 Gaussian 16, Revision A.03,
 Gaussian 16:  EM64L-G16RevA.03 25-Dec-2016

 -------------
 #p 6-31g* mp2
 -------------

 ------------------------------------------------------
 Input file generated by CHIRIPA (05-May-2021 14:57:24)
 ------------------------------------------------------
 Symbolic Z-matrix:
 Charge =  0 Multiplicity = 1

                         Standard orientation:
 ---------------------------------------------------------------------
 Center     Atomic      Atomic             Coordinates (Angstroms)
 Number     Number       Type             X           Y           Z
 ---------------------------------------------------------------------
      1          6           0       -1.934899    2.389566    0.005878
      2          6           0       -1.172779    1.296584   -0.419664
      3          6           0       -1.741559    0.021873   -0.498090
      4          6           0       -3.081294   -0.124450   -0.141735
      5          6           0       -3.866683    0.944894    0.285999
      6          6           0       -3.277052    2.210548    0.356732
      7          1           0       -1.484958    3.376274    0.063813
      8          1           0       -0.130213    1.432648   -0.692770
      9          1           0       -1.174555   -0.841590   -0.824215
     10          1           0       -4.903514    0.778037    0.551627
     11          1           0       -3.871335    3.057558    0.687561
     12          7           0       -3.694473   -1.469135   -0.220690
     13          8           0       -4.876850   -1.571687    0.098846
     14          8           0       -2.981094   -2.395086   -0.600615
     15          6           0        2.776917    2.407259   -0.100233
     16          6           0        2.113289    1.742949    0.936497
     17          6           0        2.218810    0.355585    1.073003
     18          6           0        2.999891   -0.339289    0.150857
     19          6           0        3.673152    0.293947   -0.892705
     20          6           0        3.553361    1.681917   -1.009922
     21          1           0        2.689404    3.485231   -0.198783
     22          1           0        1.509599    2.303689    1.644434
     23          1           0        1.715703   -0.183965    1.866216
     24          1           0        4.267639   -0.292121   -1.583013
     25          1           0        4.069861    2.195180   -1.816046
     26          7           0        3.119154   -1.808350    0.285160
     27          8           0        3.813451   -2.397658   -0.540251
     28          8           0        2.516077   -2.342674    1.213294
 ---------------------------------------------------------------------

 SCF Done:  E(RHF) =  -868.335892671     A.U. after   16 cycles
 E2 =    -0.2602540479D+01 EUMP2 =    -0.87093843314979D+03

 The electronic state is 1-A.
 Alpha  occ. eigenvalues --  -20.61319 -20.61310 -20.60746 -20.60722 -15.86380
 Alpha  occ. eigenvalues --  -15.85790 -11.32048 -11.31311 -11.28598 -11.28592
 Alpha  occ. eigenvalues --  -11.28440 -11.27880 -11.27821 -11.27710 -11.27708
 Alpha  occ. eigenvalues --  -11.27692 -11.26985 -11.26800  -1.60389  -1.59810
 Alpha  occ. eigenvalues --   -1.39932  -1.39357  -1.20266  -1.19489  -1.09608
 Alpha  occ. eigenvalues --   -1.08878  -1.05685  -1.04889  -0.96371  -0.95686
 Alpha  occ. eigenvalues --   -0.87061  -0.86293  -0.83177  -0.82499  -0.78172
 Alpha  occ. eigenvalues --   -0.77510  -0.72582  -0.72005  -0.71729  -0.71321
 Alpha  occ. eigenvalues --   -0.71136  -0.70643  -0.65876  -0.65657  -0.65133
 Alpha  occ. eigenvalues --   -0.64924  -0.62973  -0.62261  -0.56164  -0.55499
 Alpha  occ. eigenvalues --   -0.54201  -0.53729  -0.53231  -0.52756  -0.49368
 Alpha  occ. eigenvalues --   -0.49324  -0.48778  -0.48752  -0.45266  -0.44728
 Alpha  occ. eigenvalues --   -0.38305  -0.37700  -0.37272  -0.36296
 Alpha virt. eigenvalues --    0.04295   0.05010   0.10146   0.11229   0.15707
 Alpha virt. eigenvalues --    0.16500   0.20269   0.21534   0.26228   0.27279
 Alpha virt. eigenvalues --    0.27350   0.28411   0.30168   0.30974   0.31910

 Mulliken charges:
               1
     1  C   -0.177359
     2  C   -0.224405
     3  C   -0.174369
     4  C    0.159769
     5  C   -0.171878
     6  C   -0.217636
     7  H    0.218208
     8  H    0.233005
     9  H    0.279126
    10  H    0.276184
    11  H    0.222594
    12  N    0.487670
    13  O   -0.460771
    14  O   -0.456089
    15  C   -0.178041
    16  C   -0.227440
    17  C   -0.171858
    18  C    0.157330
    19  C   -0.171313
    20  C   -0.217747
    21  H    0.226114
    22  H    0.225857
    23  H    0.281220
    24  H    0.279525
    25  H    0.227094
    26  N    0.487612
    27  O   -0.457061
    28  O   -0.455341
 Sum of Mulliken charges =  -0.00000

 Dipole moment (field-independent basis, Debye):
    X=              1.9654    Y=              9.6309    Z=             -0.1845  Tot=              9.8311
 Quadrupole moment (field-independent basis, Debye-Ang):
   XX=           -115.0757   YY=           -110.1554   ZZ=           -102.1986
   XY=             -1.0622   XZ=             -7.0557   YZ=              1.0264

 Normal termination of Gaussian 16 at Fri May  7 08:02:00 2021.
