 Gaussian 16, Revision A.03,
 Gaussian 16:  EM64L-G16RevA.03 25-Dec-2016

 -------------
 #p 6-31g* mp2
 -------------

 ------------------------------------------------------
 Input file generated by CHIRIPA (05-May-2021 14:57:25)
 ------------------------------------------------------
 Symbolic Z-matrix:
 Charge =  0 Multiplicity = 1

                         Standard orientation:
 ---------------------------------------------------------------------
 Center     Atomic      Atomic             Coordinates (Angstroms)
 Number     Number       Type             X           Y           Z
 ---------------------------------------------------------------------
      1          6           0       -2.389765   -1.879708    1.539422
      2          6           0       -3.212780   -0.891038    2.088693
      3          6           0       -3.785176    0.089914    1.273436
      4          6           0       -3.512112    0.052040   -0.093053
      5          6           0       -2.696329   -0.919942   -0.670148
      6          6           0       -2.134616   -1.890985    0.164179
      7          1           0       -1.949263   -2.637887    2.180140
      8          1           0       -3.412675   -0.879817    3.156382
      9          1           0       -4.426040    0.866828    1.672330
     10          1           0       -2.515438   -0.905168   -1.738080
     11          1           0       -1.495841   -2.657592   -0.265152
     12          7           0       -4.112428    1.085285   -0.966223
     13          8           0       -3.856345    1.030001   -2.167057
     14          8           0       -4.827671    1.930862   -0.433246
     15          6           0        3.054689   -2.249121   -0.846447
     16          6           0        1.964258   -1.477151   -0.432266
     17          6           0        2.151098   -0.164285    0.010475
     18          6           0        3.447830    0.347120    0.026058
     19          6           0        4.554456   -0.396904   -0.380264
     20          6           0        4.344034   -1.707488   -0.819172
     21          1           0        2.900387   -3.268100   -1.188890
     22          1           0        0.961814   -1.895178   -0.452376
     23          1           0        1.324749    0.455504    0.336711
     24          1           0        5.541925    0.047326   -0.348920
     25          1           0        5.192745   -2.304688   -1.140244
     26          7           0        3.658111    1.735785    0.492740
     27          8           0        4.810509    2.163099    0.496931
     28          8           0        2.666549    2.370611    0.845497
 ---------------------------------------------------------------------

 SCF Done:  E(RHF) =  -868.336866010     A.U. after   16 cycles
 E2 =    -0.2600072001D+01 EUMP2 =    -0.87093693801018D+03

 The electronic state is 1-A.
 Alpha  occ. eigenvalues --  -20.61131 -20.61119 -20.60958 -20.60952 -15.86193
 Alpha  occ. eigenvalues --  -15.86017 -11.31749 -11.31480 -11.28439 -11.28324
 Alpha  occ. eigenvalues --  -11.28177 -11.28076 -11.28063 -11.27883 -11.27547
 Alpha  occ. eigenvalues --  -11.27333 -11.27169 -11.27097  -1.60199  -1.60032
 Alpha  occ. eigenvalues --   -1.39748  -1.39582  -1.19972  -1.19679  -1.09325
 Alpha  occ. eigenvalues --   -1.09066  -1.05418  -1.05098  -0.96117  -0.95875
 Alpha  occ. eigenvalues --   -0.86809  -0.86498  -0.82962  -0.82702  -0.77980
 Alpha  occ. eigenvalues --   -0.77719  -0.72406  -0.72232  -0.71525  -0.71357
 Alpha  occ. eigenvalues --   -0.71057  -0.70799  -0.65622  -0.65557  -0.65337
 Alpha  occ. eigenvalues --   -0.65041  -0.62799  -0.62391  -0.55897  -0.55627
 Alpha  occ. eigenvalues --   -0.53741  -0.53570  -0.53424  -0.53109  -0.49182
 Alpha  occ. eigenvalues --   -0.49148  -0.49001  -0.48980  -0.45111  -0.44965
 Alpha  occ. eigenvalues --   -0.37956  -0.37682  -0.37024  -0.36705
 Alpha virt. eigenvalues --    0.04585   0.04820   0.10492   0.10941   0.15902
 Alpha virt. eigenvalues --    0.16274   0.19235   0.21845   0.25045   0.27753
 Alpha virt. eigenvalues --    0.27914   0.28356   0.29767   0.31565   0.31875

 Mulliken charges:
               1
     1  C   -0.170638
     2  C   -0.218265
     3  C   -0.167770
     4  C    0.159116
     5  C   -0.171575
     6  C   -0.225500
     7  H    0.227085
     8  H    0.227134
     9  H    0.279401
    10  H    0.276840
    11  H    0.216251
    12  N    0.488373
    13  O   -0.459336
    14  O   -0.457165
    15  C   -0.171629
    16  C   -0.221104
    17  C   -0.172013
    18  C    0.159060
    19  C   -0.170258
    20  C   -0.218358
    21  H    0.224003
    22  H    0.217104
    23  H    0.278436
    24  H    0.276887
    25  H    0.224334
    26  N    0.488012
    27  O   -0.459657
    28  O   -0.458768
 Sum of Mulliken charges =  -0.00000

 Dipole moment (field-independent basis, Debye):
    X=              1.2111    Y=             -8.3210    Z=              1.5391  Tot=              8.5484
 Quadrupole moment (field-independent basis, Debye-Ang):
   XX=           -118.2688   YY=           -109.2045   ZZ=           -102.9754
   XY=             -6.0464   XZ=            -20.0866   YZ=              1.6929

 Normal termination of Gaussian 16 at Thu May  6 14:42:32 2021.
