 Gaussian 16, Revision A.03,
 Gaussian 16:  EM64L-G16RevA.03 25-Dec-2016

 -------------
 #p 6-31g* mp2
 -------------

 ------------------------------------------------------
 Input file generated by CHIRIPA (05-May-2021 14:53:15)
 ------------------------------------------------------
 Symbolic Z-matrix:
 Charge =  0 Multiplicity = 1

                         Standard orientation:
 ---------------------------------------------------------------------
 Center     Atomic      Atomic             Coordinates (Angstroms)
 Number     Number       Type             X           Y           Z
 ---------------------------------------------------------------------
      1          6           0        4.378094   -0.042053   -0.163217
      2          6           0        3.360887   -0.566520    0.850789
      3          6           0        1.914919   -0.322093    0.418094
      4          1           0        4.215596    1.034105   -0.312964
      5          1           0        4.198703   -0.523393   -1.134570
      6          1           0        3.543022   -0.085363    1.820289
      7          1           0        3.525949   -1.641516    0.998283
      8          1           0        1.709877   -0.816207   -0.537108
      9          1           0        1.727048    0.748788    0.289569
     10          1           0        1.204464   -0.704838    1.157431
     11          6           0        5.828078   -0.279014    0.255261
     12          6           0        6.845285    0.245454   -0.758745
     13          6           0        8.291253    0.001027   -0.326050
     14          1           0        6.007468    0.202326    1.226613
     15          1           0        5.990575   -1.355172    0.405007
     16          1           0        6.680223    1.320450   -0.906239
     17          1           0        6.663149   -0.235704   -1.728245
     18          1           0        8.479124   -1.069855   -0.197525
     19          1           0        8.496294    0.495141    0.629152
     20          1           0        9.001708    0.383772   -1.065388
     21          6           0       -6.230987   -0.996609   -0.301551
     22          6           0       -6.146829    0.398949   -0.258499
     23          6           0       -4.908686    1.031392   -0.111640
     24          6           0       -3.769825    0.233890   -0.010278
     25          6           0       -3.821073   -1.158627   -0.049763
     26          6           0       -5.069887   -1.769581   -0.197230
     27          1           0       -7.196951   -1.479560   -0.415871
     28          1           0       -7.046893    1.001781   -0.339278
     29          1           0       -4.814769    2.109945   -0.075303
     30          1           0       -2.906331   -1.732885    0.033273
     31          1           0       -5.132230   -2.853583   -0.230348
     32          7           0       -2.453410    0.892053    0.145518
     33          8           0       -1.464857    0.166934    0.232697
     34          8           0       -2.435083    2.120581    0.177499
 ---------------------------------------------------------------------

 SCF Done:  E(RHF) =  -669.535553217     A.U. after   15 cycles
 E2 =    -0.2090837294D+01 EUMP2 =    -0.67162639051051D+03

 The electronic state is 1-A.
 Alpha  occ. eigenvalues --  -20.60842 -20.60831 -15.85879 -11.31241 -11.27810
 Alpha  occ. eigenvalues --  -11.27807 -11.27555 -11.26827 -11.26817 -11.21001
 Alpha  occ. eigenvalues --  -11.20652 -11.20581 -11.20451 -11.20378 -11.19326
 Alpha  occ. eigenvalues --   -1.59907  -1.39462  -1.19414  -1.08811  -1.07565
 Alpha  occ. eigenvalues --   -1.04817  -1.02567  -0.95651  -0.94971  -0.86217
 Alpha  occ. eigenvalues --   -0.85975  -0.82477  -0.78656  -0.77529  -0.77338
 Alpha  occ. eigenvalues --   -0.72091  -0.71227  -0.70523  -0.65069  -0.64820
 Alpha  occ. eigenvalues --   -0.64210  -0.62164  -0.59976  -0.58414  -0.56587
 Alpha  occ. eigenvalues --   -0.55320  -0.54275  -0.53147  -0.52910  -0.51629
 Alpha  occ. eigenvalues --   -0.51402  -0.49004  -0.48854  -0.48760  -0.46949
 Alpha  occ. eigenvalues --   -0.45723  -0.44915  -0.44821  -0.44799  -0.42789
 Alpha  occ. eigenvalues --   -0.37396  -0.36420
 Alpha virt. eigenvalues --    0.05001   0.11234   0.16488   0.21358   0.23658
 Alpha virt. eigenvalues --    0.25285   0.27276   0.27466   0.28152   0.28297
 Alpha virt. eigenvalues --    0.29096   0.30925   0.32328   0.32382   0.32604

 Mulliken charges:
               1
     1  C   -0.297257
     2  C   -0.302678
     3  C   -0.465729
     4  H    0.150202
     5  H    0.147250
     6  H    0.148730
     7  H    0.145354
     8  H    0.148935
     9  H    0.163124
    10  H    0.164912
    11  C   -0.297246
    12  C   -0.298981
    13  C   -0.475192
    14  H    0.148468
    15  H    0.147417
    16  H    0.151843
    17  H    0.150752
    18  H    0.153958
    19  H    0.154577
    20  H    0.158515
    21  C   -0.170746
    22  C   -0.218580
    23  C   -0.170645
    24  C    0.157612
    25  C   -0.170946
    26  C   -0.218532
    27  H    0.225768
    28  H    0.223605
    29  H    0.275741
    30  H    0.275736
    31  H    0.223619
    32  N    0.492654
    33  O   -0.462079
    34  O   -0.460161
 Sum of Mulliken charges =  -0.00000

 Dipole moment (field-independent basis, Debye):
    X=             -4.9777    Y=             -2.2494    Z=             -0.5462  Tot=              5.4896
 Quadrupole moment (field-independent basis, Debye-Ang):
   XX=            -62.0644   YY=            -91.2005   ZZ=            -95.5961
   XY=              5.9082   XZ=              2.0261   YZ=              0.2718

 Normal termination of Gaussian 16 at Thu May  6 07:28:20 2021.
