 Gaussian 16, Revision A.03,
 Gaussian 16:  EM64L-G16RevA.03 25-Dec-2016

 -------------
 #p 6-31g* mp2
 -------------

 ------------------------------------------------------
 Input file generated by CHIRIPA (05-May-2021 14:57:26)
 ------------------------------------------------------
 Symbolic Z-matrix:
 Charge =  0 Multiplicity = 1

                         Standard orientation:
 ---------------------------------------------------------------------
 Center     Atomic      Atomic             Coordinates (Angstroms)
 Number     Number       Type             X           Y           Z
 ---------------------------------------------------------------------
      1          6           0       -6.082487    1.385404    0.662456
      2          6           0       -6.246430   -0.000536    0.568580
      3          6           0       -5.200990   -0.810007    0.114309
      4          6           0       -3.999746   -0.197417   -0.239295
      5          6           0       -3.805625    1.180556   -0.156853
      6          6           0       -4.864755    1.970496    0.300079
      7          1           0       -6.899928    2.006635    1.016378
      8          1           0       -7.191025   -0.457668    0.849318
      9          1           0       -5.300748   -1.885491    0.031850
     10          1           0       -2.852297    1.607353   -0.443958
     11          1           0       -4.734589    3.046570    0.371959
     12          7           0       -2.885740   -1.044029   -0.721620
     13          8           0       -1.837326   -0.479941   -1.027024
     14          8           0       -3.082088   -2.255660   -0.785129
     15          6           0        1.762825   -0.477727    0.628965
     16          6           0        2.106319    0.733424    0.019335
     17          6           0        3.444244    1.040727   -0.245372
     18          6           0        4.417355    0.109666    0.114446
     19          6           0        4.106853   -1.105433    0.723062
     20          6           0        2.762426   -1.391677    0.978267
     21          1           0        0.720968   -0.708268    0.830905
     22          1           0        1.332126    1.445104   -0.253029
     23          1           0        3.738161    1.970947   -0.716244
     24          1           0        4.900841   -1.794922    0.983069
     25          1           0        2.498599   -2.333049    1.451827
     26          7           0        5.837198    0.423847   -0.160758
     27          8           0        6.675738   -0.413260    0.165950
     28          8           0        6.084645    1.501261   -0.697960
 ---------------------------------------------------------------------

 SCF Done:  E(RHF) =  -868.339631103     A.U. after   16 cycles
 E2 =    -0.2598363255D+01 EUMP2 =    -0.87093799435841D+03

 The electronic state is 1-A.
 Alpha  occ. eigenvalues --  -20.61896 -20.61835 -20.60132 -20.60127 -15.86895
 Alpha  occ. eigenvalues --  -15.85182 -11.32034 -11.30364 -11.28603 -11.28546
 Alpha  occ. eigenvalues --  -11.28245 -11.27532 -11.27503 -11.26941 -11.26938
 Alpha  occ. eigenvalues --  -11.26480 -11.25851 -11.25836  -1.60932  -1.59212
 Alpha  occ. eigenvalues --   -1.40494  -1.38771  -1.20179  -1.18513  -1.09611
 Alpha  occ. eigenvalues --   -1.07903  -1.05547  -1.03905  -0.96485  -0.94774
 Alpha  occ. eigenvalues --   -0.86954  -0.85288  -0.83326  -0.81631  -0.78409
 Alpha  occ. eigenvalues --   -0.76734  -0.73120  -0.72246  -0.71403  -0.71278
 Alpha  occ. eigenvalues --   -0.70535  -0.69525  -0.65832  -0.65539  -0.64151
 Alpha  occ. eigenvalues --   -0.63894  -0.62901  -0.61272  -0.56039  -0.54285
 Alpha  occ. eigenvalues --   -0.53883  -0.53632  -0.52225  -0.51990  -0.49889
 Alpha  occ. eigenvalues --   -0.49844  -0.48169  -0.48143  -0.45940  -0.44219
 Alpha  occ. eigenvalues --   -0.38136  -0.37140  -0.36414  -0.35525
 Alpha virt. eigenvalues --    0.04082   0.05820   0.10518   0.12151   0.15612
 Alpha virt. eigenvalues --    0.17379   0.20600   0.22333   0.26485   0.27242
 Alpha virt. eigenvalues --    0.28306   0.29247   0.30488   0.31594   0.32194

 Mulliken charges:
               1
     1  C   -0.169840
     2  C   -0.218285
     3  C   -0.170506
     4  C    0.157697
     5  C   -0.171028
     6  C   -0.218082
     7  H    0.228562
     8  H    0.226190
     9  H    0.276966
    10  H    0.271498
    11  H    0.225503
    12  N    0.488291
    13  O   -0.468871
    14  O   -0.455442
    15  C   -0.167015
    16  C   -0.217724
    17  C   -0.172252
    18  C    0.157209
    19  C   -0.171595
    20  C   -0.219867
    21  H    0.236447
    22  H    0.221864
    23  H    0.272064
    24  H    0.272969
    25  H    0.222559
    26  N    0.488337
    27  O   -0.462558
    28  O   -0.463091
 Sum of Mulliken charges =  -0.00000

 Dipole moment (field-independent basis, Debye):
    X=             -9.5193    Y=              1.8083    Z=              2.6932  Tot=             10.0568
 Quadrupole moment (field-independent basis, Debye-Ang):
   XX=           -116.4807   YY=            -99.2835   ZZ=           -106.1938
   XY=            -15.6930   XZ=             -2.2270   YZ=             -3.5203

 Normal termination of Gaussian 16 at Fri May  7 05:05:21 2021.
