 Gaussian 16, Revision A.03,
 Gaussian 16:  EM64L-G16RevA.03 25-Dec-2016

 -------------
 #p 6-31g* mp2
 -------------

 ------------------------------------------------------
 Input file generated by CHIRIPA (05-May-2021 14:53:11)
 ------------------------------------------------------
 Symbolic Z-matrix:
 Charge =  0 Multiplicity = 1

                         Standard orientation:
 ---------------------------------------------------------------------
 Center     Atomic      Atomic             Coordinates (Angstroms)
 Number     Number       Type             X           Y           Z
 ---------------------------------------------------------------------
      1          6           0       -4.706053    0.484899    0.045777
      2          6           0       -6.045733   -0.088158   -0.417739
      3          6           0       -7.052039    0.997230   -0.801245
      4          1           0       -4.875937    1.149208    0.904135
      5          1           0       -4.285786    1.109581   -0.754562
      6          1           0       -6.462689   -0.712690    0.382713
      7          1           0       -5.872618   -0.751331   -1.274973
      8          1           0       -6.660562    1.615012   -1.615918
      9          1           0       -7.253986    1.653872    0.051186
     10          1           0       -8.002632    0.565437   -1.129554
     11          6           0       -3.689564   -0.587871    0.432614
     12          6           0       -2.349884   -0.014814    0.896130
     13          6           0       -1.343579   -1.100202    1.279636
     14          1           0       -4.109832   -1.212554    1.232952
     15          1           0       -3.519681   -1.252181   -0.425744
     16          1           0       -2.522999    0.648358    1.753363
     17          1           0       -1.932928    0.609718    0.095677
     18          1           0       -1.141631   -1.756844    0.427204
     19          1           0       -1.735055   -1.717984    2.094309
     20          1           0       -0.392985   -0.668410    1.607945
     21          6           0        4.058219    2.419898    0.124138
     22          6           0        4.985319    1.372603    0.137489
     23          6           0        4.565191    0.050225   -0.033850
     24          6           0        3.204258   -0.189835   -0.216939
     25          6           0        2.256263    0.832058   -0.235099
     26          6           0        2.699046    2.146765   -0.061785
     27          1           0        4.393383    3.444174    0.258005
     28          1           0        6.041496    1.581756    0.281681
     29          1           0        5.261478   -0.779573   -0.027799
     30          1           0        1.209997    0.592310   -0.380931
     31          1           0        1.976799    2.958115   -0.072603
     32          7           0        2.747495   -1.585716   -0.399372
     33          8           0        1.542953   -1.770823   -0.558904
     34          8           0        3.602676   -2.468271   -0.379377
 ---------------------------------------------------------------------

 SCF Done:  E(RHF) =  -669.535547782     A.U. after   15 cycles
 E2 =    -0.2091661528D+01 EUMP2 =    -0.67162720931018D+03

 The electronic state is 1-A.
 Alpha  occ. eigenvalues --  -20.60825 -20.60815 -15.85863 -11.31221 -11.27786
 Alpha  occ. eigenvalues --  -11.27773 -11.27529 -11.26804 -11.26792 -11.21434
 Alpha  occ. eigenvalues --  -11.21327 -11.21210 -11.21074 -11.20961 -11.20266
 Alpha  occ. eigenvalues --   -1.59891  -1.39446  -1.19391  -1.08790  -1.08181
 Alpha  occ. eigenvalues --   -1.04792  -1.03230  -0.95693  -0.95571  -0.86641
 Alpha  occ. eigenvalues --   -0.86189  -0.82462  -0.79301  -0.78006  -0.77502
 Alpha  occ. eigenvalues --   -0.72098  -0.71210  -0.70500  -0.65051  -0.64836
 Alpha  occ. eigenvalues --   -0.64769  -0.62150  -0.60610  -0.59038  -0.57276
 Alpha  occ. eigenvalues --   -0.55295  -0.54891  -0.53124  -0.52893  -0.52315
 Alpha  occ. eigenvalues --   -0.52048  -0.49572  -0.48850  -0.48805  -0.47605
 Alpha  occ. eigenvalues --   -0.46340  -0.45537  -0.45472  -0.44826  -0.43461
 Alpha  occ. eigenvalues --   -0.37373  -0.36393
 Alpha virt. eigenvalues --    0.05007   0.11206   0.16504   0.20597   0.22999
 Alpha virt. eigenvalues --    0.23971   0.26419   0.27235   0.27735   0.27983
 Alpha virt. eigenvalues --    0.29178   0.30906   0.31567   0.31972   0.32043

 Mulliken charges:
               1
     1  C   -0.297733
     2  C   -0.299632
     3  C   -0.475512
     4  H    0.147962
     5  H    0.147265
     6  H    0.152258
     7  H    0.153024
     8  H    0.154282
     9  H    0.154316
    10  H    0.160221
    11  C   -0.298220
    12  C   -0.301327
    13  C   -0.476103
    14  H    0.150289
    15  H    0.153215
    16  H    0.147757
    17  H    0.142395
    18  H    0.177641
    19  H    0.152072
    20  H    0.153272
    21  C   -0.170609
    22  C   -0.218617
    23  C   -0.170646
    24  C    0.157487
    25  C   -0.174353
    26  C   -0.219455
    27  H    0.225735
    28  H    0.223564
    29  H    0.275654
    30  H    0.281235
    31  H    0.224025
    32  N    0.491033
    33  O   -0.462455
    34  O   -0.460042
 Sum of Mulliken charges =  -0.00000

 Dipole moment (field-independent basis, Debye):
    X=              1.7121    Y=              4.7611    Z=              0.5864  Tot=              5.0935
 Quadrupole moment (field-independent basis, Debye-Ang):
   XX=            -80.8452   YY=            -96.9296   ZZ=            -95.2536
   XY=             14.8469   XZ=              1.7009   YZ=             -1.1062

 Normal termination of Gaussian 16 at Wed May  5 23:17:45 2021.
