 Gaussian 16, Revision A.03,
 Gaussian 16:  EM64L-G16RevA.03 25-Dec-2016

 -------------
 #p 6-31g* mp2
 -------------

 ------------------------------------------------------
 Input file generated by CHIRIPA (05-May-2021 14:55:23)
 ------------------------------------------------------
 Symbolic Z-matrix:
 Charge =  0 Multiplicity = 1

                         Standard orientation:
 ---------------------------------------------------------------------
 Center     Atomic      Atomic             Coordinates (Angstroms)
 Number     Number       Type             X           Y           Z
 ---------------------------------------------------------------------
      1          6           0        3.284664   -2.531286    0.513115
      2          6           0        1.999299   -2.014800    0.707023
      3          6           0        1.719573   -0.677223    0.411744
      4          6           0        2.753590    0.119143   -0.078054
      5          6           0        4.044410   -0.366123   -0.281989
      6          6           0        4.301325   -1.706752    0.020097
      7          1           0        3.493102   -3.571533    0.745138
      8          1           0        1.207796   -2.652818    1.089777
      9          1           0        0.733469   -0.251504    0.552386
     10          1           0        4.812864    0.294384   -0.664909
     11          1           0        5.300498   -2.105150   -0.131488
     12          7           0        2.469531    1.536791   -0.394255
     13          8           0        3.397855    2.217707   -0.824609
     14          8           0        1.323941    1.940184   -0.205752
     15          6           0       -3.092051    0.610865    0.387224
     16          6           0       -3.336202    2.091416    0.093381
     17          6           0       -2.342996    3.007697    0.808759
     18          1           0       -3.152335    0.443969    1.471409
     19          1           0       -2.068066    0.348649    0.087069
     20          1           0       -4.359882    2.350431    0.392724
     21          1           0       -3.275520    2.254773   -0.990246
     22          1           0       -1.317322    2.777779    0.502604
     23          1           0       -2.407846    2.873981    1.893432
     24          1           0       -2.535775    4.061500    0.584714
     25          6           0       -4.076988   -0.317738   -0.320818
     26          6           0       -3.832837   -1.798289   -0.026975
     27          6           0       -4.826043   -2.714569   -0.742353
     28          1           0       -5.100973   -0.055522   -0.020663
     29          1           0       -4.016704   -0.150841   -1.405003
     30          1           0       -3.893519   -1.961645    1.056652
     31          1           0       -2.809157   -2.057303   -0.326318
     32          1           0       -4.761193   -2.580852   -1.827026
     33          1           0       -5.851718   -2.484651   -0.436198
     34          1           0       -4.633264   -3.768372   -0.518308
 ---------------------------------------------------------------------

 SCF Done:  E(RHF) =  -669.536230306     A.U. after   15 cycles
 E2 =    -0.2091477302D+01 EUMP2 =    -0.67162770760798D+03

 The electronic state is 1-A.
 Alpha  occ. eigenvalues --  -20.60914 -20.60901 -15.85960 -11.31261 -11.27825
 Alpha  occ. eigenvalues --  -11.27818 -11.27561 -11.26832 -11.26818 -11.21764
 Alpha  occ. eigenvalues --  -11.21319 -11.21207 -11.21204 -11.21038 -11.20046
 Alpha  occ. eigenvalues --   -1.59976  -1.39534  -1.19430  -1.08837  -1.08262
 Alpha  occ. eigenvalues --   -1.04824  -1.03248  -0.95699  -0.95655  -0.86690
 Alpha  occ. eigenvalues --   -0.86225  -0.82518  -0.79364  -0.78065  -0.77559
 Alpha  occ. eigenvalues --   -0.72188  -0.71292  -0.70541  -0.65091  -0.64905
 Alpha  occ. eigenvalues --   -0.64810  -0.62172  -0.60628  -0.59119  -0.57284
 Alpha  occ. eigenvalues --   -0.55331  -0.54930  -0.53158  -0.52919  -0.52359
 Alpha  occ. eigenvalues --   -0.52091  -0.49618  -0.48940  -0.48912  -0.47643
 Alpha  occ. eigenvalues --   -0.46400  -0.45576  -0.45472  -0.44949  -0.43531
 Alpha  occ. eigenvalues --   -0.37410  -0.36425
 Alpha virt. eigenvalues --    0.04959   0.11223   0.16465   0.20157   0.22953
 Alpha virt. eigenvalues --    0.24071   0.25273   0.27185   0.27653   0.28419
 Alpha virt. eigenvalues --    0.29599   0.30313   0.31604   0.31887   0.32275

 Mulliken charges:
               1
     1  C   -0.170414
     2  C   -0.220209
     3  C   -0.174721
     4  C    0.156808
     5  C   -0.170282
     6  C   -0.218797
     7  H    0.225943
     8  H    0.224617
     9  H    0.281610
    10  H    0.275733
    11  H    0.223696
    12  N    0.496697
    13  O   -0.458909
    14  O   -0.469962
    15  C   -0.301375
    16  C   -0.298238
    17  C   -0.488397
    18  H    0.146938
    19  H    0.148710
    20  H    0.148715
    21  H    0.153418
    22  H    0.184104
    23  H    0.148491
    24  H    0.159077
    25  C   -0.297775
    26  C   -0.298673
    27  C   -0.475346
    28  H    0.150463
    29  H    0.151330
    30  H    0.150301
    31  H    0.145501
    32  H    0.156328
    33  H    0.156525
    34  H    0.158093
 Sum of Mulliken charges =  -0.00000

 Dipole moment (field-independent basis, Debye):
    X=              1.1478    Y=             -4.9064    Z=              1.0527  Tot=              5.1477
 Quadrupole moment (field-independent basis, Debye-Ang):
   XX=            -84.9473   YY=            -97.0387   ZZ=            -95.0187
   XY=            -13.6937   XZ=              0.8891   YZ=             -0.1870

 Normal termination of Gaussian 16 at Thu May  6 04:41:11 2021.
