 Gaussian 16, Revision A.03,
 Gaussian 16:  EM64L-G16RevA.03 25-Dec-2016

 -------------
 #p 6-31g* mp2
 -------------

 ------------------------------------------------------
 Input file generated by CHIRIPA (05-May-2021 14:55:24)
 ------------------------------------------------------
 Symbolic Z-matrix:
 Charge =  0 Multiplicity = 1

                         Standard orientation:
 ---------------------------------------------------------------------
 Center     Atomic      Atomic             Coordinates (Angstroms)
 Number     Number       Type             X           Y           Z
 ---------------------------------------------------------------------
      1          6           0        0.622046   -1.163374    0.668151
      2          6           0        1.205432   -0.152996    1.439719
      3          6           0        2.505793    0.284417    1.170874
      4          6           0        3.197130   -0.313220    0.118175
      5          6           0        2.643268   -1.321955   -0.668579
      6          6           0        1.341558   -1.743606   -0.381685
      7          1           0       -0.388630   -1.497045    0.884007
      8          1           0        0.649011    0.299427    2.255657
      9          1           0        2.981591    1.064792    1.752294
     10          1           0        3.222818   -1.753911   -1.475397
     11          1           0        0.891025   -2.528470   -0.982562
     12          7           0        4.574478    0.141506   -0.175993
     13          8           0        5.162539   -0.401089   -1.108952
     14          8           0        5.039902    1.031905    0.531966
     15          6           0       -4.225941   -0.121454   -0.358933
     16          6           0       -5.561805   -0.129268    0.384971
     17          6           0       -6.399105   -1.372563    0.083406
     18          1           0       -4.414775   -0.184899   -1.439331
     19          1           0       -3.657787   -1.021969   -0.087516
     20          1           0       -6.126682    0.771687    0.113293
     21          1           0       -5.369776   -0.065603    1.463714
     22          1           0       -5.858610   -2.280118    0.371174
     23          1           0       -6.619818   -1.438070   -0.986920
     24          1           0       -7.349749   -1.357561    0.625540
     25          6           0       -3.377581    1.115156   -0.067711
     26          6           0       -2.041717    1.122970   -0.811614
     27          6           0       -1.204417    2.366264   -0.510049
     28          1           0       -3.945736    2.015671   -0.339127
     29          1           0       -3.188747    1.178601    1.012688
     30          1           0       -2.233747    1.059305   -1.890357
     31          1           0       -1.476839    0.222015   -0.539937
     32          1           0       -0.983704    2.431771    0.560276
     33          1           0       -1.744912    3.273819   -0.797818
     34          1           0       -0.253773    2.351263   -1.052184
 ---------------------------------------------------------------------

 SCF Done:  E(RHF) =  -669.534735836     A.U. after   15 cycles
 E2 =    -0.2093040351D+01 EUMP2 =    -0.67162777618744D+03

 The electronic state is 1-A.
 Alpha  occ. eigenvalues --  -20.60794 -20.60789 -15.85849 -11.31232 -11.27811
 Alpha  occ. eigenvalues --  -11.27806 -11.27562 -11.26837 -11.26822 -11.22245
 Alpha  occ. eigenvalues --  -11.22176 -11.22144 -11.22054 -11.21650 -11.21560
 Alpha  occ. eigenvalues --   -1.59870  -1.39423  -1.19420  -1.09120  -1.08812
 Alpha  occ. eigenvalues --   -1.04820  -1.04135  -0.96582  -0.95648  -0.87595
 Alpha  occ. eigenvalues --   -0.86219  -0.82479  -0.80204  -0.78938  -0.77508
 Alpha  occ. eigenvalues --   -0.72068  -0.71194  -0.70567  -0.65773  -0.65072
 Alpha  occ. eigenvalues --   -0.64817  -0.62169  -0.61557  -0.59947  -0.58194
 Alpha  occ. eigenvalues --   -0.55909  -0.55358  -0.53293  -0.53058  -0.53005
 Alpha  occ. eigenvalues --   -0.52907  -0.50536  -0.48829  -0.48820  -0.48512
 Alpha  occ. eigenvalues --   -0.47257  -0.46464  -0.46421  -0.44824  -0.44405
 Alpha  occ. eigenvalues --   -0.37318  -0.36411
 Alpha virt. eigenvalues --    0.04990   0.11175   0.16371   0.19631   0.22781
 Alpha virt. eigenvalues --    0.23819   0.25143   0.25895   0.27214   0.27740
 Alpha virt. eigenvalues --    0.29340   0.30890   0.31162   0.31595   0.31811

 Mulliken charges:
               1
     1  C   -0.170113
     2  C   -0.216215
     3  C   -0.170929
     4  C    0.158329
     5  C   -0.170684
     6  C   -0.219156
     7  H    0.226555
     8  H    0.223583
     9  H    0.276021
    10  H    0.275898
    11  H    0.224138
    12  N    0.488063
    13  O   -0.460324
    14  O   -0.460205
    15  C   -0.296936
    16  C   -0.299849
    17  C   -0.475842
    18  H    0.152378
    19  H    0.140888
    20  H    0.154557
    21  H    0.151178
    22  H    0.153540
    23  H    0.156529
    24  H    0.162349
    25  C   -0.298373
    26  C   -0.304531
    27  C   -0.473268
    28  H    0.153099
    29  H    0.145091
    30  H    0.154040
    31  H    0.148945
    32  H    0.148811
    33  H    0.156916
    34  H    0.165518
 Sum of Mulliken charges =  -0.00000

 Dipole moment (field-independent basis, Debye):
    X=             -4.8727    Y=             -1.5612    Z=              0.9818  Tot=              5.2100
 Quadrupole moment (field-independent basis, Debye-Ang):
   XX=           -126.4148   YY=            -92.4464   ZZ=            -91.3926
   XY=             -4.7580   XZ=              2.9348   YZ=              1.7877

 Normal termination of Gaussian 16 at Thu May  6 01:34:41 2021.
