 Gaussian 16, Revision A.03,
 Gaussian 16:  EM64L-G16RevA.03 25-Dec-2016

 -------------
 #p 6-31g* mp2
 -------------

 ------------------------------------------------------
 Input file generated by CHIRIPA (05-May-2021 14:53:17)
 ------------------------------------------------------
 Symbolic Z-matrix:
 Charge =  0 Multiplicity = 1

                         Standard orientation:
 ---------------------------------------------------------------------
 Center     Atomic      Atomic             Coordinates (Angstroms)
 Number     Number       Type             X           Y           Z
 ---------------------------------------------------------------------
      1          6           0        3.105440    0.796963   -0.081766
      2          6           0        3.279537   -0.705207   -0.307953
      3          6           0        4.743356   -1.111074   -0.482018
      4          1           0        3.540055    1.341967   -0.930898
      5          1           0        3.677919    1.095596    0.807325
      6          1           0        2.705782   -1.001167   -1.195551
      7          1           0        2.844286   -1.246704    0.541725
      8          1           0        5.325409   -0.843889    0.405916
      9          1           0        5.186119   -0.596958   -1.341231
     10          1           0        4.844755   -2.188962   -0.642444
     11          6           0        1.647563    1.218187    0.093996
     12          6           0        1.473466    2.720357    0.320184
     13          6           0        0.009647    3.126224    0.494249
     14          1           0        1.075084    0.919553   -0.795094
     15          1           0        1.212947    0.673183    0.943128
     16          1           0        1.908717    3.261854   -0.529495
     17          1           0        2.047220    3.016317    1.207781
     18          1           0       -0.433116    2.612107    1.353461
     19          1           0       -0.572406    2.859039   -0.393686
     20          1           0       -0.091752    4.204112    0.654675
     21          6           0        0.069117   -2.249047    0.716532
     22          6           0       -0.816143   -1.736386    1.670478
     23          6           0       -1.886655   -0.925319    1.282248
     24          6           0       -2.042817   -0.645839   -0.074511
     25          6           0       -1.177740   -1.141599   -1.048756
     26          6           0       -0.114183   -1.950543   -0.637653
     27          1           0        0.898015   -2.878278    1.027003
     28          1           0       -0.676238   -1.966550    2.722855
     29          1           0       -2.586932   -0.515185    1.999758
     30          1           0       -1.342997   -0.894691   -2.090458
     31          1           0        0.571755   -2.347293   -1.380702
     32          7           0       -3.172438    0.211677   -0.497620
     33          8           0       -3.288241    0.443152   -1.699138
     34          8           0       -3.920643    0.636088    0.380277
 ---------------------------------------------------------------------

 SCF Done:  E(RHF) =  -669.532914095     A.U. after   15 cycles
 E2 =    -0.2097028543D+01 EUMP2 =    -0.67162994263807D+03

 The electronic state is 1-A.
 Alpha  occ. eigenvalues --  -20.60784 -20.60779 -15.85837 -11.31216 -11.27795
 Alpha  occ. eigenvalues --  -11.27746 -11.27482 -11.26813 -11.26731 -11.22316
 Alpha  occ. eigenvalues --  -11.21768 -11.21716 -11.21588 -11.21398 -11.20921
 Alpha  occ. eigenvalues --   -1.59857  -1.39411  -1.19389  -1.08860  -1.08659
 Alpha  occ. eigenvalues --   -1.04798  -1.03836  -0.96244  -0.95616  -0.87271
 Alpha  occ. eigenvalues --   -0.86193  -0.82451  -0.79981  -0.78528  -0.77485
 Alpha  occ. eigenvalues --   -0.72055  -0.71175  -0.70506  -0.65407  -0.65038
 Alpha  occ. eigenvalues --   -0.64800  -0.62157  -0.61240  -0.59668  -0.57875
 Alpha  occ. eigenvalues --   -0.55540  -0.55288  -0.53424  -0.52952  -0.52837
 Alpha  occ. eigenvalues --   -0.52546  -0.50193  -0.48822  -0.48811  -0.48268
 Alpha  occ. eigenvalues --   -0.47006  -0.46009  -0.45871  -0.44809  -0.44050
 Alpha  occ. eigenvalues --   -0.37252  -0.36286
 Alpha virt. eigenvalues --    0.04996   0.11133   0.16351   0.20384   0.22912
 Alpha virt. eigenvalues --    0.23902   0.25283   0.26456   0.27628   0.28179
 Alpha virt. eigenvalues --    0.28776   0.29485   0.31359   0.31624   0.32074

 Mulliken charges:
               1
     1  C   -0.297602
     2  C   -0.299533
     3  C   -0.475382
     4  H    0.150866
     5  H    0.149549
     6  H    0.145407
     7  H    0.145403
     8  H    0.157127
     9  H    0.158157
    10  H    0.156483
    11  C   -0.301938
    12  C   -0.299953
    13  C   -0.476551
    14  H    0.150117
    15  H    0.152298
    16  H    0.151714
    17  H    0.149854
    18  H    0.153691
    19  H    0.158968
    20  H    0.162259
    21  C   -0.169049
    22  C   -0.220458
    23  C   -0.171553
    24  C    0.162743
    25  C   -0.174220
    26  C   -0.210162
    27  H    0.225996
    28  H    0.223379
    29  H    0.275714
    30  H    0.275006
    31  H    0.224529
    32  N    0.488234
    33  O   -0.461162
    34  O   -0.459933
 Sum of Mulliken charges =  -0.00000

 Dipole moment (field-independent basis, Debye):
    X=              3.8976    Y=             -2.9962    Z=              1.4900  Tot=              5.1370
 Quadrupole moment (field-independent basis, Debye-Ang):
   XX=           -112.5984   YY=            -91.6882   ZZ=            -89.5465
   XY=              3.9665   XZ=             -4.7572   YZ=             -0.5718

 Normal termination of Gaussian 16 at Wed May  5 20:26:34 2021.
