 Gaussian 16, Revision A.03,
 Gaussian 16:  EM64L-G16RevA.03 25-Dec-2016

 -------------
 #p 6-31g* mp2
 -------------

 ------------------------------------------------------
 Input file generated by CHIRIPA (05-May-2021 14:55:22)
 ------------------------------------------------------
 Symbolic Z-matrix:
 Charge =  0 Multiplicity = 1

                         Standard orientation:
 ---------------------------------------------------------------------
 Center     Atomic      Atomic             Coordinates (Angstroms)
 Number     Number       Type             X           Y           Z
 ---------------------------------------------------------------------
      1          6           0       -1.959682    1.105482    2.225795
      2          6           0       -2.326248   -0.243975    2.192372
      3          6           0       -2.337379   -0.946972    0.983977
      4          6           0       -1.974598   -0.266268   -0.177196
      5          6           0       -1.604603    1.077753   -0.176388
      6          6           0       -1.600662    1.760883    1.043393
      7          1           0       -1.953828    1.643870    3.168928
      8          1           0       -2.605537   -0.755531    3.109080
      9          1           0       -2.616949   -1.992095    0.929432
     10          1           0       -1.331146    1.560692   -1.106661
     11          1           0       -1.315540    2.808845    1.066345
     12          7           0       -1.982576   -0.999984   -1.462497
     13          8           0       -1.658784   -0.377483   -2.471600
     14          8           0       -2.312470   -2.183677   -1.436475
     15          6           0        2.759352   -0.311927    0.485679
     16          6           0        2.925396   -1.734384   -0.050074
     17          6           0        3.393104   -2.719047    1.022064
     18          1           0        3.715434    0.028594    0.906272
     19          1           0        2.038787   -0.321785    1.315187
     20          1           0        3.644391   -1.721625   -0.879229
     21          1           0        1.968857   -2.071487   -0.469614
     22          1           0        2.673840   -2.761358    1.846364
     23          1           0        4.358893   -2.409509    1.434422
     24          1           0        3.505227   -3.729769    0.617427
     25          6           0        2.292251    0.684006   -0.574350
     26          6           0        2.126208    2.106463   -0.038596
     27          6           0        1.658501    3.091126   -1.110735
     28          1           0        3.012817    0.693864   -1.403858
     29          1           0        1.336170    0.343486   -0.994943
     30          1           0        3.082746    2.443566    0.380943
     31          1           0        1.407212    2.093704    0.790559
     32          1           0        0.692711    2.781588   -1.523092
     33          1           0        2.377765    3.133438   -1.935035
     34          1           0        1.546377    4.101847   -0.706098
 ---------------------------------------------------------------------

 SCF Done:  E(RHF) =  -669.535014287     A.U. after   15 cycles
 E2 =    -0.2094742670D+01 EUMP2 =    -0.67162975695658D+03

 The electronic state is 1-A.
 Alpha  occ. eigenvalues --  -20.60911 -20.60901 -15.85947 -11.31310 -11.27874
 Alpha  occ. eigenvalues --  -11.27864 -11.27616 -11.26886 -11.26873 -11.21834
 Alpha  occ. eigenvalues --  -11.21535 -11.21460 -11.21382 -11.21324 -11.20990
 Alpha  occ. eigenvalues --   -1.59974  -1.39527  -1.19490  -1.08881  -1.08474
 Alpha  occ. eigenvalues --   -1.04897  -1.03630  -0.96096  -0.95714  -0.87114
 Alpha  occ. eigenvalues --   -0.86288  -0.82544  -0.79692  -0.78249  -0.77599
 Alpha  occ. eigenvalues --   -0.72164  -0.71298  -0.70602  -0.65203  -0.65088
 Alpha  occ. eigenvalues --   -0.64885  -0.62322  -0.60962  -0.59471  -0.57687
 Alpha  occ. eigenvalues --   -0.55486  -0.55287  -0.53201  -0.52999  -0.52802
 Alpha  occ. eigenvalues --   -0.52501  -0.50049  -0.48925  -0.48920  -0.48002
 Alpha  occ. eigenvalues --   -0.46722  -0.45803  -0.45723  -0.44888  -0.43855
 Alpha  occ. eigenvalues --   -0.37445  -0.36430
 Alpha virt. eigenvalues --    0.04914   0.11028   0.16341   0.20131   0.22997
 Alpha virt. eigenvalues --    0.23998   0.25775   0.26759   0.26977   0.28056
 Alpha virt. eigenvalues --    0.29307   0.30118   0.31423   0.31458   0.32068

 Mulliken charges:
               1
     1  C   -0.172043
     2  C   -0.218612
     3  C   -0.170855
     4  C    0.159619
     5  C   -0.174395
     6  C   -0.219396
     7  H    0.226467
     8  H    0.224076
     9  H    0.276043
    10  H    0.281105
    11  H    0.226325
    12  N    0.487694
    13  O   -0.460053
    14  O   -0.459464
    15  C   -0.298927
    16  C   -0.300349
    17  C   -0.475444
    18  H    0.148125
    19  H    0.147930
    20  H    0.153545
    21  H    0.156231
    22  H    0.152583
    23  H    0.153893
    24  H    0.162192
    25  C   -0.300488
    26  C   -0.303862
    27  C   -0.478802
    28  H    0.152047
    29  H    0.154424
    30  H    0.152609
    31  H    0.149182
    32  H    0.149706
    33  H    0.162181
    34  H    0.156715
 Sum of Mulliken charges =  -0.00000

 Dipole moment (field-independent basis, Debye):
    X=             -0.0098    Y=              2.5010    Z=              4.4798  Tot=              5.1307
 Quadrupole moment (field-independent basis, Debye-Ang):
   XX=            -94.1803   YY=            -93.7365   ZZ=            -96.0379
   XY=             -3.3080   XZ=            -10.6625   YZ=             -3.3268

 Normal termination of Gaussian 16 at Wed May  5 23:52:59 2021.
