 Gaussian 16, Revision A.03,
 Gaussian 16:  EM64L-G16RevA.03 25-Dec-2016

 -------------
 #p 6-31g* mp2
 -------------

 ------------------------------------------------------
 Input file generated by CHIRIPA (05-May-2021 14:55:19)
 ------------------------------------------------------
 Symbolic Z-matrix:
 Charge =  0 Multiplicity = 1

                         Standard orientation:
 ---------------------------------------------------------------------
 Center     Atomic      Atomic             Coordinates (Angstroms)
 Number     Number       Type             X           Y           Z
 ---------------------------------------------------------------------
      1          6           0       -5.193157    1.007535   -0.237641
      2          6           0       -3.935722    1.570360   -0.479729
      3          6           0       -2.777461    0.795545   -0.367292
      4          6           0       -2.914016   -0.544762   -0.009216
      5          6           0       -4.152663   -1.134447    0.238403
      6          6           0       -5.297430   -0.340695    0.120022
      7          1           0       -6.087680    1.616785   -0.327294
      8          1           0       -3.851721    2.617139   -0.757655
      9          1           0       -1.791498    1.205740   -0.549043
     10          1           0       -4.204566   -2.180820    0.513770
     11          1           0       -6.272660   -0.780468    0.308625
     12          7           0       -1.694960   -1.375048    0.112962
     13          8           0       -1.842140   -2.553419    0.429848
     14          8           0       -0.615366   -0.831733   -0.110473
     15          6           0        3.765550    1.217143    0.264093
     16          6           0        2.280133    1.488451    0.023434
     17          6           0        1.852048    2.882886    0.481791
     18          1           0        3.984917    1.336428    1.333951
     19          1           0        4.359905    1.976043   -0.263359
     20          1           0        1.688792    0.728448    0.550051
     21          1           0        2.064238    1.368319   -1.045945
     22          1           0        2.416605    3.654116   -0.052140
     23          1           0        2.039025    3.010609    1.552925
     24          1           0        0.786628    3.055628    0.300415
     25          6           0        4.208674   -0.172865   -0.188950
     26          6           0        5.694089   -0.444173    0.051709
     27          6           0        6.122175   -1.838607   -0.406648
     28          1           0        3.614318   -0.931765    0.338503
     29          1           0        3.989306   -0.292150   -1.258807
     30          1           0        5.909986   -0.324041    1.121089
     31          1           0        6.285432    0.315830   -0.474908
     32          1           0        5.935199   -1.966330   -1.477781
     33          1           0        5.557619   -2.609836    0.127284
     34          1           0        7.187596   -2.011349   -0.225271
 ---------------------------------------------------------------------

 SCF Done:  E(RHF) =  -669.535905761     A.U. after   15 cycles
 E2 =    -0.2091111546D+01 EUMP2 =    -0.67162701730765D+03

 The electronic state is 1-A.
 Alpha  occ. eigenvalues --  -20.60888 -20.60878 -15.85926 -11.31258 -11.27825
 Alpha  occ. eigenvalues --  -11.27820 -11.27564 -11.26835 -11.26824 -11.20884
 Alpha  occ. eigenvalues --  -11.20640 -11.20600 -11.20545 -11.20461 -11.20395
 Alpha  occ. eigenvalues --   -1.59954  -1.39509  -1.19429  -1.08832  -1.07608
 Alpha  occ. eigenvalues --   -1.04827  -1.02791  -0.95672  -0.95290  -0.86306
 Alpha  occ. eigenvalues --   -0.86225  -0.82508  -0.78824  -0.77587  -0.77344
 Alpha  occ. eigenvalues --   -0.72148  -0.71271  -0.70537  -0.65085  -0.64830
 Alpha  occ. eigenvalues --   -0.64238  -0.62175  -0.60186  -0.58658  -0.56887
 Alpha  occ. eigenvalues --   -0.55331  -0.54585  -0.53159  -0.52920  -0.52023
 Alpha  occ. eigenvalues --   -0.51703  -0.49224  -0.48911  -0.48906  -0.47139
 Alpha  occ. eigenvalues --   -0.45843  -0.45012  -0.44945  -0.44701  -0.43041
 Alpha  occ. eigenvalues --   -0.37409  -0.36429
 Alpha virt. eigenvalues --    0.04956   0.11223   0.16440   0.20737   0.23416
 Alpha virt. eigenvalues --    0.24204   0.26671   0.27509   0.27652   0.28557
 Alpha virt. eigenvalues --    0.29201   0.30594   0.31526   0.32104   0.32641

 Mulliken charges:
               1
     1  C   -0.170577
     2  C   -0.218822
     3  C   -0.172357
     4  C    0.157688
     5  C   -0.170696
     6  C   -0.218645
     7  H    0.225891
     8  H    0.223914
     9  H    0.277972
    10  H    0.275695
    11  H    0.223671
    12  N    0.492475
    13  O   -0.459678
    14  O   -0.464279
    15  C   -0.298367
    16  C   -0.305700
    17  C   -0.474039
    18  H    0.146933
    19  H    0.144615
    20  H    0.175995
    21  H    0.150163
    22  H    0.151990
    23  H    0.154191
    24  H    0.149010
    25  C   -0.298659
    26  C   -0.299217
    27  C   -0.475337
    28  H    0.158182
    29  H    0.149607
    30  H    0.150225
    31  H    0.148911
    32  H    0.154656
    33  H    0.157271
    34  H    0.157319
 Sum of Mulliken charges =  -0.00000

 Dipole moment (field-independent basis, Debye):
    X=             -4.4809    Y=              2.7346    Z=             -0.4104  Tot=              5.2654
 Quadrupole moment (field-independent basis, Debye-Ang):
   XX=            -69.5109   YY=            -96.4967   ZZ=            -94.5633
   XY=             -3.6353   XZ=              0.5024   YZ=             -1.6415

 Normal termination of Gaussian 16 at Thu May  6 02:52:53 2021.
