 Gaussian 16, Revision A.03,
 Gaussian 16:  EM64L-G16RevA.03 25-Dec-2016

 -------------
 #p 6-31g* mp2
 -------------

 ------------------------------------------------------
 Input file generated by CHIRIPA (05-May-2021 14:53:12)
 ------------------------------------------------------
 Symbolic Z-matrix:
 Charge =  0 Multiplicity = 1

                         Standard orientation:
 ---------------------------------------------------------------------
 Center     Atomic      Atomic             Coordinates (Angstroms)
 Number     Number       Type             X           Y           Z
 ---------------------------------------------------------------------
      1          6           0       -3.834926   -0.494920    0.218741
      2          6           0       -4.611149   -1.591760   -0.510921
      3          6           0       -5.012267   -2.744564    0.409917
      4          1           0       -2.935871   -0.931979    0.674399
      5          1           0       -4.448079   -0.109155    1.044951
      6          1           0       -3.997262   -1.974383   -1.336365
      7          1           0       -5.508361   -1.152002   -0.965057
      8          1           0       -5.645584   -2.382918    1.226448
      9          1           0       -4.125899   -3.209971    0.853029
     10          1           0       -5.566071   -3.517384   -0.132218
     11          6           0       -3.426915    0.664429   -0.688544
     12          6           0       -2.650692    1.761268    0.041117
     13          6           0       -2.249574    2.914072   -0.879720
     14          1           0       -2.813762    0.278663   -1.514754
     15          1           0       -4.325971    1.101488   -1.144202
     16          1           0       -1.753480    1.321510    0.495253
     17          1           0       -3.264579    2.143891    0.866562
     18          1           0       -3.135942    3.379480   -1.322833
     19          1           0       -1.616257    2.552426   -1.696251
     20          1           0       -1.695770    3.686893   -0.337585
     21          6           0        4.347673   -1.222185   -1.473735
     22          6           0        3.484247   -0.208590   -1.902266
     23          6           0        2.642614    0.438783   -0.992810
     24          6           0        2.690577    0.045541    0.343734
     25          6           0        3.539840   -0.960718    0.801430
     26          6           0        4.372670   -1.594359   -0.125631
     27          1           0        4.998054   -1.719747   -2.187060
     28          1           0        3.462702    0.082520   -2.948611
     29          1           0        1.964481    1.226662   -1.297441
     30          1           0        3.538845   -1.229045    1.850914
     31          1           0        5.042201   -2.381198    0.210015
     32          7           0        1.804238    0.723616    1.315853
     33          8           0        1.865466    0.358709    2.487915
     34          8           0        1.065079    1.607160    0.887330
 ---------------------------------------------------------------------

 SCF Done:  E(RHF) =  -669.536170585     A.U. after   15 cycles
 E2 =    -0.2091144004D+01 EUMP2 =    -0.67162731458835D+03

 The electronic state is 1-A.
 Alpha  occ. eigenvalues --  -20.60984 -20.60978 -15.86007 -11.31318 -11.27879
 Alpha  occ. eigenvalues --  -11.27876 -11.27615 -11.26884 -11.26874 -11.21140
 Alpha  occ. eigenvalues --  -11.20739 -11.20683 -11.20614 -11.20379 -11.20113
 Alpha  occ. eigenvalues --   -1.60042  -1.39597  -1.19486  -1.08892  -1.07701
 Alpha  occ. eigenvalues --   -1.04880  -1.02768  -0.95736  -0.95262  -0.86291
 Alpha  occ. eigenvalues --   -0.86280  -0.82569  -0.78854  -0.77630  -0.77464
 Alpha  occ. eigenvalues --   -0.72230  -0.71355  -0.70593  -0.65143  -0.64881
 Alpha  occ. eigenvalues --   -0.64337  -0.62226  -0.60164  -0.58639  -0.56836
 Alpha  occ. eigenvalues --   -0.55384  -0.54576  -0.53213  -0.52970  -0.51952
 Alpha  occ. eigenvalues --   -0.51689  -0.49255  -0.48989  -0.48985  -0.47173
 Alpha  occ. eigenvalues --   -0.45927  -0.45227  -0.45024  -0.44621  -0.43036
 Alpha  occ. eigenvalues --   -0.37464  -0.36481
 Alpha virt. eigenvalues --    0.04867   0.11174   0.16341   0.21194   0.23488
 Alpha virt. eigenvalues --    0.24777   0.27006   0.27400   0.28032   0.28306
 Alpha virt. eigenvalues --    0.28902   0.30815   0.31761   0.32506   0.32627

 Mulliken charges:
               1
     1  C   -0.297692
     2  C   -0.298774
     3  C   -0.475205
     4  H    0.150857
     5  H    0.149986
     6  H    0.149024
     7  H    0.150731
     8  H    0.155503
     9  H    0.154759
    10  H    0.157870
    11  C   -0.297456
    12  C   -0.307140
    13  C   -0.471581
    14  H    0.143710
    15  H    0.145911
    16  H    0.174155
    17  H    0.149498
    18  H    0.148520
    19  H    0.146158
    20  H    0.166657
    21  C   -0.170543
    22  C   -0.218576
    23  C   -0.171222
    24  C    0.157915
    25  C   -0.170772
    26  C   -0.218584
    27  H    0.226124
    28  H    0.224038
    29  H    0.276305
    30  H    0.275891
    31  H    0.223916
    32  N    0.488602
    33  O   -0.458604
    34  O   -0.459980
 Sum of Mulliken charges =  -0.00000

 Dipole moment (field-independent basis, Debye):
    X=              3.3928    Y=             -2.3617    Z=             -3.2724  Tot=              5.2724
 Quadrupole moment (field-independent basis, Debye-Ang):
   XX=            -77.9720   YY=            -94.6814   ZZ=            -95.0884
   XY=             -8.5298   XZ=             -7.2167   YZ=             -2.5601

 Normal termination of Gaussian 16 at Thu May  6 10:25:24 2021.
