 Gaussian 16, Revision A.03,
 Gaussian 16:  EM64L-G16RevA.03 25-Dec-2016

 -------------
 #p 6-31g* mp2
 -------------

 ------------------------------------------------------
 Input file generated by CHIRIPA (05-May-2021 14:57:27)
 ------------------------------------------------------
 Symbolic Z-matrix:
 Charge =  0 Multiplicity = 1

                         Standard orientation:
 ---------------------------------------------------------------------
 Center     Atomic      Atomic             Coordinates (Angstroms)
 Number     Number       Type             X           Y           Z
 ---------------------------------------------------------------------
      1          6           0        2.944476   -2.215236    0.277410
      2          6           0        2.309749   -1.558733    1.336960
      3          6           0        2.125260   -0.173269    1.305316
      4          6           0        2.590016    0.527686    0.193581
      5          6           0        3.226173   -0.097716   -0.877618
      6          6           0        3.399860   -1.483921   -0.824555
      7          1           0        3.083595   -3.291786    0.310311
      8          1           0        1.955070   -2.124123    2.194038
      9          1           0        1.637196    0.360286    2.111869
     10          1           0        3.568969    0.492860   -1.718527
     11          1           0        3.893145   -1.991116   -1.648853
     12          7           0        2.400424    1.994807    0.148743
     13          8           0        2.818963    2.589581   -0.842068
     14          8           0        1.836873    2.522182    1.105259
     15          6           0       -0.717375   -1.895638   -0.588054
     16          6           0       -0.568211   -0.543637   -0.914187
     17          6           0       -1.616415    0.357275   -0.704005
     18          6           0       -2.805324   -0.130261   -0.163549
     19          6           0       -2.984592   -1.471456    0.171636
     20          6           0       -1.922964   -2.354425   -0.047138
     21          1           0        0.102109   -2.588518   -0.754665
     22          1           0        0.366932   -0.184521   -1.334412
     23          1           0       -1.527984    1.409100   -0.947442
     24          1           0       -3.928727   -1.799778    0.589047
     25          1           0       -2.041641   -3.403867    0.207089
     26          7           0       -3.922117    0.813994    0.063508
     27          8           0       -4.959468    0.359431    0.540908
     28          8           0       -3.738960    1.990786   -0.240224
 ---------------------------------------------------------------------

 SCF Done:  E(RHF) =  -868.334406101     A.U. after   16 cycles
 E2 =    -0.2605938953D+01 EUMP2 =    -0.87094034505325D+03

 The electronic state is 1-A.
 Alpha  occ. eigenvalues --  -20.61661 -20.61633 -20.60583 -20.60553 -15.86700
 Alpha  occ. eigenvalues --  -15.85626 -11.32239 -11.31063 -11.28879 -11.28758
 Alpha  occ. eigenvalues --  -11.28659 -11.28001 -11.27861 -11.27696 -11.27569
 Alpha  occ. eigenvalues --  -11.27393 -11.26748 -11.26546  -1.60731  -1.59647
 Alpha  occ. eigenvalues --   -1.40270  -1.39196  -1.20530  -1.19256  -1.09872
 Alpha  occ. eigenvalues --   -1.08647  -1.05900  -1.04677  -0.96647  -0.95462
 Alpha  occ. eigenvalues --   -0.87280  -0.86079  -0.83440  -0.82300  -0.78448
 Alpha  occ. eigenvalues --   -0.77337  -0.72899  -0.72106  -0.71843  -0.71568
 Alpha  occ. eigenvalues --   -0.70974  -0.70391  -0.66116  -0.65858  -0.64907
 Alpha  occ. eigenvalues --   -0.64759  -0.63195  -0.62062  -0.56395  -0.55247
 Alpha  occ. eigenvalues --   -0.54506  -0.53943  -0.52946  -0.52484  -0.49684
 Alpha  occ. eigenvalues --   -0.49651  -0.48613  -0.48591  -0.45617  -0.44587
 Alpha  occ. eigenvalues --   -0.38553  -0.38093  -0.36798  -0.36048
 Alpha virt. eigenvalues --    0.03976   0.05171   0.09941   0.11435   0.15325
 Alpha virt. eigenvalues --    0.16776   0.20321   0.21682   0.26363   0.27007
 Alpha virt. eigenvalues --    0.27370   0.28672   0.30105   0.31129   0.31679

 Mulliken charges:
               1
     1  C   -0.182351
     2  C   -0.214315
     3  C   -0.163239
     4  C    0.152730
     5  C   -0.182912
     6  C   -0.217987
     7  H    0.227921
     8  H    0.227992
     9  H    0.281444
    10  H    0.279230
    11  H    0.227736
    12  N    0.486640
    13  O   -0.458787
    14  O   -0.453641
    15  C   -0.171166
    16  C   -0.222650
    17  C   -0.173352
    18  C    0.157981
    19  C   -0.171616
    20  C   -0.222293
    21  H    0.220468
    22  H    0.227438
    23  H    0.282012
    24  H    0.274630
    25  H    0.219222
    26  N    0.487859
    27  O   -0.462424
    28  O   -0.456570
 Sum of Mulliken charges =  -0.00000

 Dipole moment (field-independent basis, Debye):
    X=              4.8330    Y=             -8.2582    Z=             -0.4618  Tot=              9.5796
 Quadrupole moment (field-independent basis, Debye-Ang):
   XX=           -121.8339   YY=           -107.6038   ZZ=           -100.5383
   XY=             -2.1154   XZ=             -1.0160   YZ=             -2.0700

 Normal termination of Gaussian 16 at Fri May  7 09:44:42 2021.
