 Gaussian 16, Revision A.03,
 Gaussian 16:  EM64L-G16RevA.03 25-Dec-2016

 -------------
 #p 6-31g* mp2
 -------------

 ------------------------------------------------------
 Input file generated by CHIRIPA (05-May-2021 14:51:10)
 ------------------------------------------------------
 Symbolic Z-matrix:
 Charge =  0 Multiplicity = 1

                         Standard orientation:
 ---------------------------------------------------------------------
 Center     Atomic      Atomic             Coordinates (Angstroms)
 Number     Number       Type             X           Y           Z
 ---------------------------------------------------------------------
      1          6           0        2.882847   -0.322563   -0.827805
      2          6           0        2.166743   -1.656727   -0.615231
      3          6           0        2.355981   -2.622273   -1.785574
      4          1           0        2.512398    0.142005   -1.751865
      5          1           0        3.954801   -0.509931   -0.980131
      6          1           0        1.096671   -1.466792   -0.461974
      7          1           0        2.538802   -2.118083    0.308532
      8          1           0        3.418020   -2.840982   -1.936700
      9          1           0        1.967695   -2.185991   -2.711584
     10          1           0        1.835782   -3.569560   -1.612655
     11          6           0        2.703016    0.653324    0.333674
     12          6           0        3.419121    1.987488    0.121101
     13          6           0        3.229883    2.953034    1.291444
     14          1           0        1.631062    0.840691    0.486001
     15          1           0        3.073466    0.188756    1.257735
     16          1           0        3.047061    2.448843   -0.802663
     17          1           0        4.489192    1.797553   -0.032157
     18          1           0        3.618168    2.516752    2.217453
     19          1           0        2.167843    3.171742    1.442570
     20          1           0        3.750081    3.900321    1.118525
     21          6           0       -2.364047   -0.797368    0.256164
     22          6           0       -2.122171   -1.345831    1.662815
     23          6           0       -1.262546   -2.610282    1.664571
     24          1           0       -2.847677   -1.572104   -0.354434
     25          1           0       -1.396080   -0.584455   -0.218287
     26          1           0       -3.090343   -1.556345    2.134983
     27          1           0       -1.639234   -0.569634    2.270189
     28          1           0       -0.283123   -2.410881    1.217838
     29          1           0       -1.742477   -3.403200    1.081863
     30          1           0       -1.102175   -2.985300    2.680200
     31          6           0       -3.221817    0.466606    0.237967
     32          6           0       -3.463692    1.015071   -1.168685
     33          6           0       -4.323318    2.279521   -1.170441
     34          1           0       -4.189783    0.253695    0.712417
     35          1           0       -2.738186    1.241344    0.848564
     36          1           0       -3.946629    0.238872   -1.776060
     37          1           0       -2.495520    1.225585   -1.640852
     38          1           0       -3.843387    3.072438   -0.587733
     39          1           0       -5.302741    2.080120   -0.723707
     40          1           0       -4.483688    2.654539   -2.186070
 ---------------------------------------------------------------------

 SCF Done:  E(RHF) =  -470.733030021     A.U. after   11 cycles
 E2 =    -0.1583529133D+01 EUMP2 =    -0.47231655915394D+03

 The electronic state is 1-A.
 Alpha  occ. eigenvalues --  -11.21652 -11.21641 -11.21636 -11.21585 -11.21465
 Alpha  occ. eigenvalues --  -11.21437 -11.21404 -11.21378 -11.21115 -11.21098
 Alpha  occ. eigenvalues --  -11.21092 -11.20967  -1.08496  -1.08442  -1.03593
 Alpha  occ. eigenvalues --   -1.03517  -0.96026  -0.95974  -0.87044  -0.86989
 Alpha  occ. eigenvalues --   -0.79722  -0.79536  -0.78371  -0.78201  -0.65227
 Alpha  occ. eigenvalues --   -0.64985  -0.61070  -0.60853  -0.59432  -0.59309
 Alpha  occ. eigenvalues --   -0.57691  -0.57537  -0.55324  -0.55252  -0.52716
 Alpha  occ. eigenvalues --   -0.52665  -0.52456  -0.52395  -0.49991  -0.49919
 Alpha  occ. eigenvalues --   -0.48157  -0.47784  -0.46855  -0.46531  -0.46071
 Alpha  occ. eigenvalues --   -0.45799  -0.45773  -0.45283  -0.43829  -0.43790
 Alpha virt. eigenvalues --    0.20252   0.23402   0.23501   0.24630   0.25596
 Alpha virt. eigenvalues --    0.26546   0.27188   0.27471   0.28455   0.29466
 Alpha virt. eigenvalues --    0.30793   0.30946   0.31708   0.31836   0.31953

 Mulliken charges:
               1
     1  C   -0.297234
     2  C   -0.310202
     3  C   -0.475424
     4  H    0.149500
     5  H    0.149908
     6  H    0.160771
     7  H    0.152543
     8  H    0.155322
     9  H    0.155222
    10  H    0.161171
    11  C   -0.298997
    12  C   -0.299652
    13  C   -0.475693
    14  H    0.148651
    15  H    0.150042
    16  H    0.151990
    17  H    0.152284
    18  H    0.155356
    19  H    0.154914
    20  H    0.160493
    21  C   -0.303325
    22  C   -0.299191
    23  C   -0.483283
    24  H    0.149946
    25  H    0.152564
    26  H    0.151863
    27  H    0.151817
    28  H    0.164181
    29  H    0.154315
    30  H    0.159811
    31  C   -0.298059
    32  C   -0.299589
    33  C   -0.475713
    34  H    0.149962
    35  H    0.149438
    36  H    0.152138
    37  H    0.151323
    38  H    0.155157
    39  H    0.155366
    40  H    0.160315
 Sum of Mulliken charges =  -0.00000

 Dipole moment (field-independent basis, Debye):
    X=              0.0296    Y=             -0.0057    Z=             -0.0129  Tot=              0.0328
 Quadrupole moment (field-independent basis, Debye-Ang):
   XX=            -83.6533   YY=            -85.8051   ZZ=            -85.2187
   XY=              0.7124   XZ=              0.4184   YZ=             -0.5434

 Normal termination of Gaussian 16 at Wed May  5 15:11:24 2021.
