 Gaussian 16, Revision A.03,
 Gaussian 16:  EM64L-G16RevA.03 25-Dec-2016

 -------------
 #p 6-31g* mp2
 -------------

 ------------------------------------------------------
 Input file generated by CHIRIPA (05-May-2021 14:55:24)
 ------------------------------------------------------
 Symbolic Z-matrix:
 Charge =  0 Multiplicity = 1

                         Standard orientation:
 ---------------------------------------------------------------------
 Center     Atomic      Atomic             Coordinates (Angstroms)
 Number     Number       Type             X           Y           Z
 ---------------------------------------------------------------------
      1          6           0        4.403353    0.612875    0.837190
      2          6           0        3.521540   -0.038670    1.705761
      3          6           0        2.385452   -0.685612    1.210468
      4          6           0        2.160912   -0.661134   -0.165131
      5          6           0        3.020719   -0.020600   -1.056052
      6          6           0        4.150574    0.619818   -0.538519
      7          1           0        5.283473    1.112901    1.230584
      8          1           0        3.715326   -0.045686    2.774613
      9          1           0        1.686223   -1.197619    1.860350
     10          1           0        2.800927   -0.030721   -2.116715
     11          1           0        4.833666    1.125018   -1.215425
     12          7           0        0.961485   -1.342569   -0.701248
     13          8           0        0.786136   -1.306554   -1.917222
     14          8           0        0.219435   -1.899791    0.104669
     15          6           0       -2.833502    1.400594    0.346627
     16          6           0       -1.899882    2.153408   -0.601851
     17          6           0       -1.537837    3.548404   -0.091260
     18          1           0       -3.750002    1.988648    0.492114
     19          1           0       -2.355014    1.318508    1.332378
     20          1           0       -2.379406    2.232840   -1.585906
     21          1           0       -0.985580    1.563404   -0.745248
     22          1           0       -1.036543    3.485053    0.879972
     23          1           0       -2.438288    4.158293    0.034538
     24          1           0       -0.869738    4.068802   -0.784577
     25          6           0       -3.204493    0.004397   -0.150089
     26          6           0       -4.138113   -0.748416    0.798389
     27          6           0       -4.500158   -2.143412    0.287798
     28          1           0       -3.682981    0.086484   -1.135840
     29          1           0       -2.287994   -0.583657   -0.295577
     30          1           0       -5.052415   -0.158412    0.941787
     31          1           0       -3.658589   -0.827848    1.782444
     32          1           0       -3.599707   -2.753300    0.162000
     33          1           0       -5.001453   -2.080062   -0.683434
     34          1           0       -5.168257   -2.663810    0.981115
 ---------------------------------------------------------------------

 SCF Done:  E(RHF) =  -669.536588279     A.U. after   15 cycles
 E2 =    -0.2092026496D+01 EUMP2 =    -0.67162861477475D+03

 The electronic state is 1-A.
 Alpha  occ. eigenvalues --  -20.61072 -20.61066 -15.86085 -11.31367 -11.27920
 Alpha  occ. eigenvalues --  -11.27914 -11.27646 -11.26911 -11.26901 -11.20986
 Alpha  occ. eigenvalues --  -11.20689 -11.20567 -11.20532 -11.20052 -11.19917
 Alpha  occ. eigenvalues --   -1.60123  -1.39678  -1.19525  -1.08938  -1.07492
 Alpha  occ. eigenvalues --   -1.04912  -1.02676  -0.95786  -0.95119  -0.86315
 Alpha  occ. eigenvalues --   -0.86139  -0.82620  -0.78769  -0.77681  -0.77241
 Alpha  occ. eigenvalues --   -0.72299  -0.71438  -0.70631  -0.65180  -0.64914
 Alpha  occ. eigenvalues --   -0.64114  -0.62259  -0.60077  -0.58525  -0.56724
 Alpha  occ. eigenvalues --   -0.55418  -0.54404  -0.53244  -0.53002  -0.51876
 Alpha  occ. eigenvalues --   -0.51538  -0.49172  -0.49061  -0.48969  -0.47083
 Alpha  occ. eigenvalues --   -0.45830  -0.45187  -0.44805  -0.44473  -0.42893
 Alpha  occ. eigenvalues --   -0.37497  -0.36508
 Alpha virt. eigenvalues --    0.04804   0.11145   0.16296   0.21275   0.23619
 Alpha virt. eigenvalues --    0.25164   0.27207   0.27326   0.28081   0.28401
 Alpha virt. eigenvalues --    0.28805   0.30953   0.32099   0.32365   0.32451

 Mulliken charges:
               1
     1  C   -0.170230
     2  C   -0.218549
     3  C   -0.170757
     4  C    0.158095
     5  C   -0.170663
     6  C   -0.218508
     7  H    0.226367
     8  H    0.224114
     9  H    0.275793
    10  H    0.276291
    11  H    0.224186
    12  N    0.488294
    13  O   -0.457799
    14  O   -0.460342
    15  C   -0.297269
    16  C   -0.297269
    17  C   -0.474851
    18  H    0.145782
    19  H    0.145339
    20  H    0.153290
    21  H    0.148950
    22  H    0.151642
    23  H    0.154522
    24  H    0.156808
    25  C   -0.309982
    26  C   -0.296939
    27  C   -0.477828
    28  H    0.146383
    29  H    0.176141
    30  H    0.145786
    31  H    0.149119
    32  H    0.167137
    33  H    0.152636
    34  H    0.154311
 Sum of Mulliken charges =  -0.00000

 Dipole moment (field-independent basis, Debye):
    X=              4.5059    Y=              2.2116    Z=              1.7967  Tot=              5.3313
 Quadrupole moment (field-independent basis, Debye-Ang):
   XX=            -76.9912   YY=            -99.6501   ZZ=            -90.9994
   XY=              2.5338   XZ=              2.7316   YZ=             -3.5168

 Normal termination of Gaussian 16 at Wed May  5 19:10:35 2021.
