 Gaussian 16, Revision A.03,
 Gaussian 16:  EM64L-G16RevA.03 25-Dec-2016

 -------------
 #p 6-31g* mp2
 -------------

 ------------------------------------------------------
 Input file generated by CHIRIPA (05-May-2021 14:51:11)
 ------------------------------------------------------
 Symbolic Z-matrix:
 Charge =  0 Multiplicity = 1

                         Standard orientation:
 ---------------------------------------------------------------------
 Center     Atomic      Atomic             Coordinates (Angstroms)
 Number     Number       Type             X           Y           Z
 ---------------------------------------------------------------------
      1          6           0        2.282065    0.706275   -0.257613
      2          6           0        3.200291    1.927394   -0.318563
      3          6           0        2.480988    3.226656    0.045191
      4          1           0        1.432891    0.859685   -0.937550
      5          1           0        1.861333    0.622707    0.754018
      6          1           0        3.620249    2.007838   -1.329394
      7          1           0        4.047478    1.770977    0.361455
      8          1           0        2.076231    3.171545    1.060935
      9          1           0        1.646575    3.409752   -0.639522
     10          1           0        3.155928    4.086779   -0.004857
     11          6           0        2.986709   -0.600186   -0.618671
     12          6           0        2.068483   -1.821305   -0.557721
     13          6           0        2.787786   -3.120567   -0.921475
     14          1           0        3.407441   -0.516618   -1.630301
     15          1           0        3.835882   -0.753596    0.061266
     16          1           0        1.221296   -1.664888   -1.237739
     17          1           0        1.648525   -1.901749    0.453110
     18          1           0        3.622199   -3.303663   -0.236762
     19          1           0        3.192542   -3.065456   -1.937219
     20          1           0        2.112846   -3.980690   -0.871427
     21          6           0       -2.786268    0.280595   -0.231969
     22          6           0       -4.137005   -0.128191   -0.820519
     23          6           0       -4.426547    0.547552   -2.161165
     24          1           0       -2.763178    1.371801   -0.106741
     25          1           0       -1.991400    0.031319   -0.948517
     26          1           0       -4.928960    0.120520   -0.102490
     27          1           0       -4.156952   -1.218569   -0.944181
     28          1           0       -3.657398    0.289977   -2.896464
     29          1           0       -4.433792    1.636675   -2.049991
     30          1           0       -5.397026    0.241173   -2.563860
     31          6           0       -2.482506   -0.386684    1.108253
     32          6           0       -1.131769    0.022102    1.696803
     33          6           0       -0.842226   -0.653642    3.037448
     34          1           0       -3.277374   -0.137407    1.824800
     35          1           0       -2.505595   -1.477890    0.983025
     36          1           0       -1.111821    1.112480    1.820465
     37          1           0       -0.339813   -0.226609    0.978773
     38          1           0       -0.834982   -1.742764    2.926274
     39          1           0       -1.611376   -0.396066    3.772748
     40          1           0        0.128252   -0.347261    3.440144
 ---------------------------------------------------------------------

 SCF Done:  E(RHF) =  -470.732648659     A.U. after   11 cycles
 E2 =    -0.1584198245D+01 EUMP2 =    -0.47231684690434D+03

 The electronic state is 1-A.
 Alpha  occ. eigenvalues --  -11.21677 -11.21602 -11.21582 -11.21441 -11.21426
 Alpha  occ. eigenvalues --  -11.21362 -11.21343 -11.21292 -11.21127 -11.21065
 Alpha  occ. eigenvalues --  -11.21065 -11.21062  -1.08486  -1.08364  -1.03562
 Alpha  occ. eigenvalues --   -1.03492  -0.96012  -0.95950  -0.87025  -0.86965
 Alpha  occ. eigenvalues --   -0.79639  -0.79589  -0.78462  -0.78002  -0.65137
 Alpha  occ. eigenvalues --   -0.64981  -0.60985  -0.60873  -0.59373  -0.59330
 Alpha  occ. eigenvalues --   -0.57676  -0.57516  -0.55296  -0.55237  -0.52717
 Alpha  occ. eigenvalues --   -0.52644  -0.52440  -0.52370  -0.49961  -0.49884
 Alpha  occ. eigenvalues --   -0.47994  -0.47911  -0.46775  -0.46659  -0.46140
 Alpha  occ. eigenvalues --   -0.45740  -0.45693  -0.45027  -0.43809  -0.43733
 Alpha virt. eigenvalues --    0.20950   0.22968   0.23633   0.24072   0.24791
 Alpha virt. eigenvalues --    0.26284   0.27015   0.27898   0.28771   0.30055
 Alpha virt. eigenvalues --    0.30216   0.31500   0.31640   0.31816   0.32199

 Mulliken charges:
               1
     1  C   -0.303666
     2  C   -0.299186
     3  C   -0.475672
     4  H    0.150014
     5  H    0.155590
     6  H    0.151746
     7  H    0.151725
     8  H    0.155192
     9  H    0.155453
    10  H    0.160141
    11  C   -0.297699
    12  C   -0.303227
    13  C   -0.475490
    14  H    0.149532
    15  H    0.149650
    16  H    0.151280
    17  H    0.154635
    18  H    0.155571
    19  H    0.155439
    20  H    0.160237
    21  C   -0.298631
    22  C   -0.299602
    23  C   -0.475645
    24  H    0.149678
    25  H    0.149165
    26  H    0.152014
    27  H    0.151878
    28  H    0.154808
    29  H    0.155156
    30  H    0.160225
    31  C   -0.297506
    32  C   -0.309794
    33  C   -0.476656
    34  H    0.148897
    35  H    0.149241
    36  H    0.150963
    37  H    0.165399
    38  H    0.154923
    39  H    0.155406
    40  H    0.158818
 Sum of Mulliken charges =  -0.00000

 Dipole moment (field-independent basis, Debye):
    X=              0.0408    Y=             -0.0006    Z=             -0.0131  Tot=              0.0428
 Quadrupole moment (field-independent basis, Debye-Ang):
   XX=            -84.8505   YY=            -85.3676   ZZ=            -84.6992
   XY=              0.1034   XZ=             -0.1914   YZ=              0.4169

 Normal termination of Gaussian 16 at Wed May  5 21:30:13 2021.
