 Gaussian 16, Revision A.03,
 Gaussian 16:  EM64L-G16RevA.03 25-Dec-2016

 -------------
 #p 6-31g* mp2
 -------------

 ------------------------------------------------------
 Input file generated by CHIRIPA (05-May-2021 14:55:21)
 ------------------------------------------------------
 Symbolic Z-matrix:
 Charge =  0 Multiplicity = 1

                         Standard orientation:
 ---------------------------------------------------------------------
 Center     Atomic      Atomic             Coordinates (Angstroms)
 Number     Number       Type             X           Y           Z
 ---------------------------------------------------------------------
      1          6           0        0.529616   -0.962223    1.588802
      2          6           0        0.606644   -1.352421    0.247783
      3          6           0        1.690266   -0.961423   -0.544323
      4          6           0        2.683558   -0.176788    0.039636
      5          6           0        2.635299    0.228045    1.372704
      6          6           0        1.542404   -0.174623    2.146001
      7          1           0       -0.315769   -1.270492    2.196824
      8          1           0       -0.178441   -1.964074   -0.187609
      9          1           0        1.775033   -1.249323   -1.585162
     10          1           0        3.433283    0.837839    1.778649
     11          1           0        1.485218    0.129896    3.187175
     12          7           0        3.835649    0.243321   -0.788975
     13          8           0        4.697763    0.934528   -0.250802
     14          8           0        3.854729   -0.126560   -1.960922
     15          6           0       -3.259597    1.010270   -0.534297
     16          6           0       -2.751342    2.129574    0.374999
     17          6           0       -2.893433    3.514743   -0.256598
     18          1           0       -2.708870    1.039834   -1.484440
     19          1           0       -4.314615    1.196401   -0.778611
     20          1           0       -1.697985    1.940650    0.618646
     21          1           0       -3.303210    2.097223    1.323161
     22          1           0       -3.942767    3.728587   -0.484128
     23          1           0       -2.328422    3.571126   -1.192644
     24          1           0       -2.524094    4.299925    0.410438
     25          6           0       -3.124224   -0.380439    0.083222
     26          6           0       -3.632479   -1.499744   -0.826074
     27          6           0       -3.490388   -2.884912   -0.194478
     28          1           0       -2.069208   -0.566571    0.327535
     29          1           0       -3.674951   -0.410003    1.033364
     30          1           0       -3.080612   -1.467392   -1.774236
     31          1           0       -4.685835   -1.310820   -1.069721
     32          1           0       -4.055399   -2.941296    0.741570
     33          1           0       -2.441054   -3.098757    0.033052
     34          1           0       -3.859728   -3.670095   -0.861513
 ---------------------------------------------------------------------

 SCF Done:  E(RHF) =  -669.534327103     A.U. after   15 cycles
 E2 =    -0.2093847817D+01 EUMP2 =    -0.67162817491996D+03

 The electronic state is 1-A.
 Alpha  occ. eigenvalues --  -20.60812 -20.60807 -15.85866 -11.31253 -11.27824
 Alpha  occ. eigenvalues --  -11.27818 -11.27555 -11.26835 -11.26816 -11.22478
 Alpha  occ. eigenvalues --  -11.22160 -11.22153 -11.22064 -11.21945 -11.21402
 Alpha  occ. eigenvalues --   -1.59887  -1.39440  -1.19434  -1.09159  -1.08813
 Alpha  occ. eigenvalues --   -1.04842  -1.04225  -0.96681  -0.95653  -0.87696
 Alpha  occ. eigenvalues --   -0.86251  -0.82480  -0.80302  -0.78955  -0.77525
 Alpha  occ. eigenvalues --   -0.72086  -0.71211  -0.70533  -0.65956  -0.65075
 Alpha  occ. eigenvalues --   -0.64747  -0.62249  -0.61535  -0.60054  -0.58287
 Alpha  occ. eigenvalues --   -0.56021  -0.55317  -0.53377  -0.53229  -0.53050
 Alpha  occ. eigenvalues --   -0.52918  -0.50640  -0.48857  -0.48838  -0.48595
 Alpha  occ. eigenvalues --   -0.47329  -0.46468  -0.46370  -0.44841  -0.44458
 Alpha  occ. eigenvalues --   -0.37344  -0.36417
 Alpha virt. eigenvalues --    0.04989   0.11058   0.16447   0.19190   0.22795
 Alpha virt. eigenvalues --    0.23661   0.25667   0.26336   0.27123   0.28042
 Alpha virt. eigenvalues --    0.29132   0.29778   0.31009   0.31455   0.31814

 Mulliken charges:
               1
     1  C   -0.170651
     2  C   -0.223493
     3  C   -0.173666
     4  C    0.158613
     5  C   -0.170936
     6  C   -0.219693
     7  H    0.228229
     8  H    0.231663
     9  H    0.276268
    10  H    0.275962
    11  H    0.224133
    12  N    0.488019
    13  O   -0.460199
    14  O   -0.460223
    15  C   -0.297079
    16  C   -0.302212
    17  C   -0.476111
    18  H    0.151702
    19  H    0.151350
    20  H    0.154330
    21  H    0.150018
    22  H    0.155655
    23  H    0.157787
    24  H    0.161368
    25  C   -0.307808
    26  C   -0.301598
    27  C   -0.478032
    28  H    0.150019
    29  H    0.148567
    30  H    0.152146
    31  H    0.157120
    32  H    0.158210
    33  H    0.144443
    34  H    0.166099
 Sum of Mulliken charges =  -0.00000

 Dipole moment (field-independent basis, Debye):
    X=             -4.1183    Y=             -1.4127    Z=              2.8882  Tot=              5.2247
 Quadrupole moment (field-independent basis, Debye-Ang):
   XX=           -115.1554   YY=            -94.6671   ZZ=            -91.5264
   XY=             -2.1779   XZ=              9.3146   YZ=              1.9948

 Normal termination of Gaussian 16 at Thu May  6 15:50:52 2021.
