 Gaussian 16, Revision A.03,
 Gaussian 16:  EM64L-G16RevA.03 25-Dec-2016

 -------------
 #p 6-31g* mp2
 -------------

 ------------------------------------------------------
 Input file generated by CHIRIPA (05-May-2021 14:55:21)
 ------------------------------------------------------
 Symbolic Z-matrix:
 Charge =  0 Multiplicity = 1

                         Standard orientation:
 ---------------------------------------------------------------------
 Center     Atomic      Atomic             Coordinates (Angstroms)
 Number     Number       Type             X           Y           Z
 ---------------------------------------------------------------------
      1          6           0       -3.794284   -2.214052   -0.150396
      2          6           0       -2.686065   -1.974611   -0.969566
      3          6           0       -2.134825   -0.693124   -1.061607
      4          6           0       -2.719641    0.330269   -0.317330
      5          6           0       -3.824108    0.123339    0.507669
      6          6           0       -4.358773   -1.166160    0.584312
      7          1           0       -4.216063   -3.212654   -0.084877
      8          1           0       -2.245603   -2.786508   -1.541284
      9          1           0       -1.277162   -0.479847   -1.687982
     10          1           0       -4.241350    0.952801    1.065629
     11          1           0       -5.219460   -1.349187    1.221308
     12          7           0       -2.144841    1.691163   -0.406619
     13          8           0       -2.678498    2.575783    0.259185
     14          8           0       -1.171541    1.847442   -1.140717
     15          6           0        4.120830    0.068019   -0.135321
     16          6           0        5.483527   -0.593744    0.072314
     17          6           0        6.510045   -0.176391   -0.981191
     18          1           0        3.745490   -0.186294   -1.136015
     19          1           0        4.244390    1.159693   -0.115948
     20          1           0        5.357221   -1.683847    0.053936
     21          1           0        5.855580   -0.337982    1.072703
     22          1           0        6.665398    0.907124   -0.959680
     23          1           0        6.164208   -0.446388   -1.984235
     24          1           0        7.476921   -0.661140   -0.813777
     25          6           0        3.083970   -0.339320    0.910013
     26          6           0        1.721274    0.322444    0.702378
     27          6           0        0.694756   -0.094910    1.755882
     28          1           0        2.960411   -1.430994    0.890640
     29          1           0        3.459311   -0.085007    1.910708
     30          1           0        1.349220    0.066682   -0.298011
     31          1           0        1.847579    1.412546    0.720756
     32          1           0        1.040593    0.175088    2.758927
     33          1           0        0.539402   -1.178424    1.734372
     34          1           0       -0.272121    0.389840    1.588469
 ---------------------------------------------------------------------

 SCF Done:  E(RHF) =  -669.535438649     A.U. after   15 cycles
 E2 =    -0.2092856601D+01 EUMP2 =    -0.67162829525039D+03

 The electronic state is 1-A.
 Alpha  occ. eigenvalues --  -20.60865 -20.60847 -15.85885 -11.31219 -11.27795
 Alpha  occ. eigenvalues --  -11.27791 -11.27534 -11.26808 -11.26797 -11.21363
 Alpha  occ. eigenvalues --  -11.21080 -11.21045 -11.20995 -11.20854 -11.20753
 Alpha  occ. eigenvalues --   -1.59924  -1.39476  -1.19400  -1.08805  -1.08086
 Alpha  occ. eigenvalues --   -1.04798  -1.03193  -0.95682  -0.95636  -0.86696
 Alpha  occ. eigenvalues --   -0.86199  -0.82472  -0.79239  -0.77882  -0.77512
 Alpha  occ. eigenvalues --   -0.72108  -0.71272  -0.70510  -0.65055  -0.64820
 Alpha  occ. eigenvalues --   -0.64710  -0.62152  -0.60593  -0.59038  -0.57269
 Alpha  occ. eigenvalues --   -0.55304  -0.54982  -0.53172  -0.52893  -0.52323
 Alpha  occ. eigenvalues --   -0.52090  -0.49620  -0.48875  -0.48868  -0.47565
 Alpha  occ. eigenvalues --   -0.46271  -0.45461  -0.45346  -0.44813  -0.43462
 Alpha  occ. eigenvalues --   -0.37352  -0.36389
 Alpha virt. eigenvalues --    0.04977   0.11205   0.16474   0.21128   0.23069
 Alpha virt. eigenvalues --    0.24265   0.26298   0.27333   0.27614   0.28074
 Alpha virt. eigenvalues --    0.28637   0.30519   0.31251   0.31850   0.31926

 Mulliken charges:
               1
     1  C   -0.170475
     2  C   -0.218629
     3  C   -0.169527
     4  C    0.155322
     5  C   -0.171644
     6  C   -0.218110
     7  H    0.225748
     8  H    0.223426
     9  H    0.276075
    10  H    0.275870
    11  H    0.223653
    12  N    0.490767
    13  O   -0.459796
    14  O   -0.459042
    15  C   -0.297629
    16  C   -0.299251
    17  C   -0.475449
    18  H    0.148458
    19  H    0.152633
    20  H    0.149642
    21  H    0.151734
    22  H    0.156308
    23  H    0.154497
    24  H    0.159035
    25  C   -0.299106
    26  C   -0.298172
    27  C   -0.475511
    28  H    0.144598
    29  H    0.148930
    30  H    0.151576
    31  H    0.161945
    32  H    0.155236
    33  H    0.149432
    34  H    0.157456
 Sum of Mulliken charges =  -0.00000

 Dipole moment (field-independent basis, Debye):
    X=             -2.1066    Y=             -4.6813    Z=              0.2756  Tot=              5.1408
 Quadrupole moment (field-independent basis, Debye-Ang):
   XX=            -82.5564   YY=            -97.3259   ZZ=            -93.6517
   XY=             11.6933   XZ=             -2.1040   YZ=              3.5979

 Normal termination of Gaussian 16 at Thu May  6 04:35:10 2021.
