 Gaussian 16, Revision A.03,
 Gaussian 16:  EM64L-G16RevA.03 25-Dec-2016

 -------------
 #p 6-31g* mp2
 -------------

 ------------------------------------------------------
 Input file generated by CHIRIPA (05-May-2021 14:57:26)
 ------------------------------------------------------
 Symbolic Z-matrix:
 Charge =  0 Multiplicity = 1

                         Standard orientation:
 ---------------------------------------------------------------------
 Center     Atomic      Atomic             Coordinates (Angstroms)
 Number     Number       Type             X           Y           Z
 ---------------------------------------------------------------------
      1          6           0       -2.841200    2.060931   -1.467851
      2          6           0       -1.907999    1.039902   -1.260113
      3          6           0       -2.219612   -0.051509   -0.443861
      4          6           0       -3.479431   -0.089897    0.151683
      5          6           0       -4.430630    0.911762   -0.035910
      6          6           0       -4.097323    1.993721   -0.856165
      7          1           0       -2.590706    2.905094   -2.103490
      8          1           0       -0.931709    1.089455   -1.733871
      9          1           0       -1.516066   -0.855737   -0.265934
     10          1           0       -5.395743    0.834516    0.449897
     11          1           0       -4.824041    2.785222   -1.015705
     12          7           0       -3.820806   -1.240321    1.017931
     13          8           0       -4.937548   -1.250629    1.531173
     14          8           0       -2.965168   -2.109933    1.167253
     15          6           0        4.481843    1.608902    1.516139
     16          6           0        3.104097    1.642392    1.276940
     17          6           0        2.506760    0.700706    0.433753
     18          6           0        3.320821   -0.264889   -0.156350
     19          6           0        4.696300   -0.324401    0.062289
     20          6           0        5.272154    0.627343    0.909121
     21          1           0        4.937524    2.344333    2.172563
     22          1           0        2.487866    2.403540    1.747000
     23          1           0        1.442624    0.703563    0.231206
     24          1           0        5.284614   -1.095194   -0.420602
     25          1           0        6.342388    0.598916    1.093066
     26          7           0        2.699818   -1.267134   -1.050925
     27          8           0        3.438937   -2.107657   -1.558724
     28          8           0        1.485716   -1.193192   -1.227353
 ---------------------------------------------------------------------

 SCF Done:  E(RHF) =  -868.339417846     A.U. after   16 cycles
 E2 =    -0.2599424152D+01 EUMP2 =    -0.87093884199822D+03

 The electronic state is 1-A.
 Alpha  occ. eigenvalues --  -20.61474 -20.61407 -20.60371 -20.60349 -15.86482
 Alpha  occ. eigenvalues --  -15.85414 -11.31685 -11.30762 -11.28277 -11.28198
 Alpha  occ. eigenvalues --  -11.27922 -11.27408 -11.27217 -11.27211 -11.27184
 Alpha  occ. eigenvalues --  -11.27146 -11.26430 -11.26291  -1.60490  -1.59441
 Alpha  occ. eigenvalues --   -1.40059  -1.38992  -1.19835  -1.18958  -1.09253
 Alpha  occ. eigenvalues --   -1.08369  -1.05218  -1.04337  -0.96120  -0.95192
 Alpha  occ. eigenvalues --   -0.86625  -0.85744  -0.82969  -0.82005  -0.78049
 Alpha  occ. eigenvalues --   -0.77032  -0.72713  -0.71792  -0.71629  -0.70947
 Alpha  occ. eigenvalues --   -0.70769  -0.70059  -0.65496  -0.65221  -0.64600
 Alpha  occ. eigenvalues --   -0.64326  -0.62586  -0.61629  -0.55714  -0.54880
 Alpha  occ. eigenvalues --   -0.53547  -0.53315  -0.52704  -0.52401  -0.49471
 Alpha  occ. eigenvalues --   -0.49420  -0.48398  -0.48378  -0.45490  -0.44399
 Alpha  occ. eigenvalues --   -0.37794  -0.36983  -0.36811  -0.35961
 Alpha virt. eigenvalues --    0.04476   0.05434   0.10834   0.11681   0.16008
 Alpha virt. eigenvalues --    0.16806   0.20222   0.21984   0.25530   0.27253
 Alpha virt. eigenvalues --    0.28473   0.29046   0.30865   0.31276   0.33197

 Mulliken charges:
               1
     1  C   -0.171499
     2  C   -0.227945
     3  C   -0.178326
     4  C    0.158246
     5  C   -0.171319
     6  C   -0.219443
     7  H    0.223362
     8  H    0.231308
     9  H    0.291792
    10  H    0.274148
    11  H    0.221342
    12  N    0.487572
    13  O   -0.463125
    14  O   -0.457388
    15  C   -0.170032
    16  C   -0.218577
    17  C   -0.171791
    18  C    0.159341
    19  C   -0.170082
    20  C   -0.218228
    21  H    0.227499
    22  H    0.225012
    23  H    0.270270
    24  H    0.277046
    25  H    0.225440
    26  N    0.492592
    27  O   -0.453766
    28  O   -0.473448
 Sum of Mulliken charges =  -0.00000

 Dipole moment (field-independent basis, Debye):
    X=              3.7716    Y=              7.4544    Z=              0.1121  Tot=              8.3550
 Quadrupole moment (field-independent basis, Debye-Ang):
   XX=            -90.2613   YY=           -106.9131   ZZ=           -107.9245
   XY=             -7.0359   XZ=             19.7265   YZ=              0.5067

 Normal termination of Gaussian 16 at Thu May  6 00:26:26 2021.
