 Gaussian 16, Revision A.03,
 Gaussian 16:  EM64L-G16RevA.03 25-Dec-2016

 -------------
 #p 6-31g* mp2
 -------------

 ------------------------------------------------------
 Input file generated by CHIRIPA (05-May-2021 14:53:13)
 ------------------------------------------------------
 Symbolic Z-matrix:
 Charge =  0 Multiplicity = 1

                         Standard orientation:
 ---------------------------------------------------------------------
 Center     Atomic      Atomic             Coordinates (Angstroms)
 Number     Number       Type             X           Y           Z
 ---------------------------------------------------------------------
      1          6           0        3.773229   -0.420122    0.445882
      2          6           0        2.773555    0.232966    1.400929
      3          6           0        1.611982   -0.692481    1.764369
      4          1           0        3.248767   -0.729144   -0.468662
      5          1           0        4.164561   -1.337552    0.906941
      6          1           0        2.385262    1.149627    0.938785
      7          1           0        3.300495    0.540642    2.313226
      8          1           0        1.981263   -1.602283    2.248614
      9          1           0        1.060830   -0.989837    0.866364
     10          1           0        0.909464   -0.205560    2.447916
     11          6           0        4.940163    0.492644    0.073253
     12          6           0        5.939837   -0.160444   -0.881794
     13          6           0        7.101410    0.765003   -1.245234
     14          1           0        4.548831    1.410074   -0.387806
     15          1           0        5.464625    0.801666    0.987797
     16          1           0        5.412897   -0.468120   -1.794091
     17          1           0        6.328130   -1.077105   -0.419651
     18          1           0        7.652562    1.062360   -0.347229
     19          1           0        6.732129    1.674805   -1.729479
     20          1           0        7.803928    0.278082   -1.928781
     21          6           0       -4.398763    2.284959   -0.046566
     22          6           0       -5.224310    1.182988   -0.292844
     23          6           0       -4.683859   -0.103331   -0.381415
     24          6           0       -3.307467   -0.251969   -0.217890
     25          6           0       -2.458777    0.826139    0.028480
     26          6           0       -3.021061    2.103339    0.113028
     27          1           0       -4.827078    3.280661    0.020676
     28          1           0       -6.294599    1.321049   -0.417205
     29          1           0       -5.299872   -0.973922   -0.571196
     30          1           0       -1.395518    0.657021    0.148046
     31          1           0       -2.377509    2.957311    0.304383
     32          7           0       -2.723759   -1.608910   -0.309527
     33          8           0       -1.508068   -1.713272   -0.161745
     34          8           0       -3.492992   -2.542424   -0.527399
 ---------------------------------------------------------------------

 SCF Done:  E(RHF) =  -669.535928379     A.U. after   15 cycles
 E2 =    -0.2091023514D+01 EUMP2 =    -0.67162695189221D+03

 The electronic state is 1-A.
 Alpha  occ. eigenvalues --  -20.60848 -20.60842 -15.85896 -11.31228 -11.27797
 Alpha  occ. eigenvalues --  -11.27786 -11.27540 -11.26810 -11.26799 -11.21370
 Alpha  occ. eigenvalues --  -11.21273 -11.21144 -11.21008 -11.20903 -11.20379
 Alpha  occ. eigenvalues --   -1.59916  -1.39472  -1.19401  -1.08803  -1.08129
 Alpha  occ. eigenvalues --   -1.04800  -1.03203  -0.95670  -0.95598  -0.86632
 Alpha  occ. eigenvalues --   -0.86199  -0.82478  -0.79265  -0.77941  -0.77521
 Alpha  occ. eigenvalues --   -0.72124  -0.71233  -0.70510  -0.65060  -0.64816
 Alpha  occ. eigenvalues --   -0.64751  -0.62151  -0.60596  -0.59021  -0.57245
 Alpha  occ. eigenvalues --   -0.55307  -0.54894  -0.53132  -0.52893  -0.52325
 Alpha  occ. eigenvalues --   -0.52029  -0.49571  -0.48869  -0.48840  -0.47562
 Alpha  occ. eigenvalues --   -0.46296  -0.45472  -0.45404  -0.44874  -0.43465
 Alpha  occ. eigenvalues --   -0.37383  -0.36402
 Alpha virt. eigenvalues --    0.05006   0.11248   0.16501   0.20841   0.23005
 Alpha virt. eigenvalues --    0.24082   0.26677   0.27294   0.27641   0.27836
 Alpha virt. eigenvalues --    0.29222   0.30899   0.31664   0.32109   0.32231

 Mulliken charges:
               1
     1  C   -0.298423
     2  C   -0.299225
     3  C   -0.486056
     4  H    0.152991
     5  H    0.150928
     6  H    0.143175
     7  H    0.149555
     8  H    0.156964
     9  H    0.179506
    10  H    0.152206
    11  C   -0.297705
    12  C   -0.299611
    13  C   -0.475477
    14  H    0.146886
    15  H    0.148553
    16  H    0.152769
    17  H    0.152588
    18  H    0.154569
    19  H    0.153989
    20  H    0.160092
    21  C   -0.170540
    22  C   -0.218706
    23  C   -0.170789
    24  C    0.157550
    25  C   -0.171939
    26  C   -0.219378
    27  H    0.225746
    28  H    0.223571
    29  H    0.275653
    30  H    0.279004
    31  H    0.223836
    32  N    0.493622
    33  O   -0.466177
    34  O   -0.459726
 Sum of Mulliken charges =  -0.00000

 Dipole moment (field-independent basis, Debye):
    X=             -2.1791    Y=              4.6482    Z=              0.2657  Tot=              5.1405
 Quadrupole moment (field-independent basis, Debye-Ang):
   XX=            -77.9045   YY=            -97.0997   ZZ=            -95.3639
   XY=            -14.5808   XZ=              0.9192   YZ=             -0.9389

 Normal termination of Gaussian 16 at Thu May  6 04:09:49 2021.
