 Gaussian 16, Revision A.03,
 Gaussian 16:  EM64L-G16RevA.03 25-Dec-2016

 -------------
 #p 6-31g* mp2
 -------------

 ------------------------------------------------------
 Input file generated by CHIRIPA (05-May-2021 14:53:13)
 ------------------------------------------------------
 Symbolic Z-matrix:
 Charge =  0 Multiplicity = 1

                         Standard orientation:
 ---------------------------------------------------------------------
 Center     Atomic      Atomic             Coordinates (Angstroms)
 Number     Number       Type             X           Y           Z
 ---------------------------------------------------------------------
      1          6           0       -3.206135   -0.368607   -0.125219
      2          6           0       -3.151061   -1.383654    1.016985
      3          6           0       -3.551869   -2.791817    0.576277
      4          1           0       -4.222858   -0.348779   -0.540942
      5          1           0       -2.543546   -0.702701   -0.935622
      6          1           0       -3.812498   -1.047037    1.825569
      7          1           0       -2.134399   -1.400928    1.430162
      8          1           0       -2.886001   -3.152134   -0.214540
      9          1           0       -4.573634   -2.796232    0.183113
     10          1           0       -3.505449   -3.501340    1.408312
     11          6           0       -2.808155    1.043753    0.299728
     12          6           0       -2.863229    2.058800   -0.842476
     13          6           0       -2.462421    3.466963   -0.401768
     14          1           0       -3.470744    1.377848    1.110131
     15          1           0       -1.791432    1.023926    0.715451
     16          1           0       -3.879891    2.076074   -1.255653
     17          1           0       -2.201792    1.722183   -1.651059
     18          1           0       -1.440656    3.471379   -0.008604
     19          1           0       -3.128289    3.827281    0.389049
     20          1           0       -2.508841    4.176486   -1.233803
     21          6           0        3.585496    1.818745    0.639736
     22          6           0        4.282637    0.620790    0.451535
     23          6           0        3.608005   -0.539223    0.059378
     24          6           0        2.229825   -0.465055   -0.136605
     25          6           0        1.507187    0.713459    0.042817
     26          6           0        2.202434    1.861180    0.435137
     27          1           0        4.117573    2.715096    0.944438
     28          1           0        5.356760    0.584885    0.609702
     29          1           0        4.122951   -1.479908   -0.093458
     30          1           0        0.436645    0.718174   -0.122516
     31          1           0        1.658429    2.790136    0.580549
     32          7           0        1.504709   -1.686603   -0.551851
     33          8           0        0.290365   -1.595024   -0.718041
     34          8           0        2.164439   -2.712501   -0.703268
 ---------------------------------------------------------------------

 SCF Done:  E(RHF) =  -669.536022380     A.U. after   15 cycles
 E2 =    -0.2093032136D+01 EUMP2 =    -0.67162905451560D+03

 The electronic state is 1-A.
 Alpha  occ. eigenvalues --  -20.60982 -20.60971 -15.86011 -11.31290 -11.27851
 Alpha  occ. eigenvalues --  -11.27829 -11.27582 -11.26854 -11.26841 -11.21685
 Alpha  occ. eigenvalues --  -11.21462 -11.21302 -11.20750 -11.20635 -11.20054
 Alpha  occ. eigenvalues --   -1.60037  -1.39595  -1.19457  -1.08869  -1.08082
 Alpha  occ. eigenvalues --   -1.04849  -1.03144  -0.95722  -0.95624  -0.86646
 Alpha  occ. eigenvalues --   -0.86250  -0.82555  -0.79309  -0.77774  -0.77615
 Alpha  occ. eigenvalues --   -0.72249  -0.71347  -0.70576  -0.65129  -0.64976
 Alpha  occ. eigenvalues --   -0.64608  -0.62178  -0.60506  -0.59082  -0.57206
 Alpha  occ. eigenvalues --   -0.55361  -0.54937  -0.53180  -0.52938  -0.52350
 Alpha  occ. eigenvalues --   -0.52029  -0.49582  -0.48984  -0.48964  -0.47596
 Alpha  occ. eigenvalues --   -0.46369  -0.45380  -0.45180  -0.44901  -0.43393
 Alpha  occ. eigenvalues --   -0.37434  -0.36445
 Alpha virt. eigenvalues --    0.04886   0.11180   0.16394   0.18665   0.23098
 Alpha virt. eigenvalues --    0.24052   0.25967   0.26502   0.27909   0.28388
 Alpha virt. eigenvalues --    0.29560   0.31207   0.31839   0.32363   0.32905

 Mulliken charges:
               1
     1  C   -0.303272
     2  C   -0.296884
     3  C   -0.478735
     4  H    0.145811
     5  H    0.169720
     6  H    0.144529
     7  H    0.156774
     8  H    0.169917
     9  H    0.149526
    10  H    0.156995
    11  C   -0.299869
    12  C   -0.302704
    13  C   -0.473179
    14  H    0.149903
    15  H    0.138651
    16  H    0.155583
    17  H    0.153399
    18  H    0.141632
    19  H    0.157650
    20  H    0.161577
    21  C   -0.170315
    22  C   -0.218829
    23  C   -0.169998
    24  C    0.157208
    25  C   -0.179340
    26  C   -0.222781
    27  H    0.226259
    28  H    0.223864
    29  H    0.275772
    30  H    0.288839
    31  H    0.225471
    32  N    0.491937
    33  O   -0.466598
    34  O   -0.458514
 Sum of Mulliken charges =  -0.00000

 Dipole moment (field-independent basis, Debye):
    X=              2.6518    Y=              4.1226    Z=              1.3299  Tot=              5.0790
 Quadrupole moment (field-independent basis, Debye-Ang):
   XX=            -78.9918   YY=            -99.0787   ZZ=            -96.1051
   XY=              5.5764   XZ=              3.2254   YZ=             -1.2596

 Normal termination of Gaussian 16 at Thu May  6 10:29:21 2021.
