 Gaussian 16, Revision A.03,
 Gaussian 16:  EM64L-G16RevA.03 25-Dec-2016

 -------------
 #p 6-31g* mp2
 -------------

 ------------------------------------------------------
 Input file generated by CHIRIPA (05-May-2021 14:51:12)
 ------------------------------------------------------
 Symbolic Z-matrix:
 Charge =  0 Multiplicity = 1

                         Standard orientation:
 ---------------------------------------------------------------------
 Center     Atomic      Atomic             Coordinates (Angstroms)
 Number     Number       Type             X           Y           Z
 ---------------------------------------------------------------------
      1          6           0        2.194876   -0.628377    0.748344
      2          6           0        1.742080   -2.062904    0.474309
      3          6           0        1.540323   -2.873911    1.754682
      4          1           0        3.131527   -0.649554    1.322086
      5          1           0        1.449678   -0.131306    1.384737
      6          1           0        2.487228   -2.556687   -0.162518
      7          1           0        0.806498   -2.038310   -0.099013
      8          1           0        0.781676   -2.406859    2.391013
      9          1           0        2.471956   -2.928181    2.327148
     10          1           0        1.216736   -3.896230    1.535558
     11          6           0        2.400828    0.194987   -0.521846
     12          6           0        2.853624    1.629513   -0.247811
     13          6           0        3.055380    2.440521   -1.528184
     14          1           0        3.146025   -0.302084   -1.158239
     15          1           0        1.464176    0.216163   -1.095588
     16          1           0        3.789206    1.604920    0.325511
     17          1           0        2.108476    2.123297    0.389016
     18          1           0        2.123748    2.494790   -2.100650
     19          1           0        3.814027    1.973468   -2.164515
     20          1           0        3.378967    3.462840   -1.309060
     21          6           0       -2.177077   -0.537091   -0.087733
     22          6           0       -2.435070   -1.238034   -1.421938
     23          6           0       -2.189163   -2.745626   -1.354936
     24          1           0       -1.141281   -0.727554    0.224989
     25          1           0       -2.822796   -0.980987    0.682591
     26          1           0       -1.790051   -0.792013   -2.189814
     27          1           0       -3.470315   -1.045721   -1.731614
     28          1           0       -2.842741   -3.209797   -0.609294
     29          1           0       -1.152930   -2.954647   -1.070096
     30          1           0       -2.379528   -3.226702   -2.319398
     31          6           0       -2.418626    0.970482   -0.138765
     32          6           0       -2.160634    1.671424    1.195440
     33          6           0       -2.406540    3.179017    1.128439
     34          1           0       -1.772907    1.414378   -0.909089
     35          1           0       -3.454423    1.160944   -0.451487
     36          1           0       -1.125388    1.479112    1.505116
     37          1           0       -2.805652    1.225404    1.963315
     38          1           0       -3.442772    3.388037    0.843599
     39          1           0       -1.752962    3.643187    0.382797
     40          1           0       -2.216176    3.660093    2.092900
 ---------------------------------------------------------------------

 SCF Done:  E(RHF) =  -470.732673045     A.U. after   11 cycles
 E2 =    -0.1585150715D+01 EUMP2 =    -0.47231782375987D+03

 The electronic state is 1-A.
 Alpha  occ. eigenvalues --  -11.21677 -11.21666 -11.21652 -11.21628 -11.21480
 Alpha  occ. eigenvalues --  -11.21459 -11.21421 -11.21394 -11.21126 -11.21123
 Alpha  occ. eigenvalues --  -11.21093 -11.21084  -1.08554  -1.08443  -1.03625
 Alpha  occ. eigenvalues --   -1.03549  -0.96049  -0.96012  -0.87053  -0.87041
 Alpha  occ. eigenvalues --   -0.79721  -0.79591  -0.78359  -0.78271  -0.65565
 Alpha  occ. eigenvalues --   -0.64740  -0.61236  -0.60766  -0.59445  -0.59346
 Alpha  occ. eigenvalues --   -0.57703  -0.57586  -0.55419  -0.55222  -0.52720
 Alpha  occ. eigenvalues --   -0.52719  -0.52467  -0.52444  -0.49997  -0.49981
 Alpha  occ. eigenvalues --   -0.48135  -0.47874  -0.46954  -0.46542  -0.46137
 Alpha  occ. eigenvalues --   -0.45800  -0.45715  -0.45296  -0.43844  -0.43831
 Alpha virt. eigenvalues --    0.18550   0.22067   0.23343   0.24534   0.25624
 Alpha virt. eigenvalues --    0.26412   0.26671   0.28130   0.28301   0.30691
 Alpha virt. eigenvalues --    0.30930   0.31603   0.31720   0.31831   0.32381

 Mulliken charges:
               1
     1  C   -0.301020
     2  C   -0.310349
     3  C   -0.476012
     4  H    0.150606
     5  H    0.151265
     6  H    0.152735
     7  H    0.160258
     8  H    0.155983
     9  H    0.155476
    10  H    0.160715
    11  C   -0.299379
    12  C   -0.300221
    13  C   -0.475676
    14  H    0.150142
    15  H    0.149619
    16  H    0.152397
    17  H    0.152124
    18  H    0.154773
    19  H    0.155459
    20  H    0.160623
    21  C   -0.307282
    22  C   -0.299737
    23  C   -0.481717
    24  H    0.158178
    25  H    0.149844
    26  H    0.151602
    27  H    0.152470
    28  H    0.155480
    29  H    0.160792
    30  H    0.160675
    31  C   -0.297781
    32  C   -0.302038
    33  C   -0.475786
    34  H    0.149102
    35  H    0.150154
    36  H    0.152818
    37  H    0.152347
    38  H    0.155542
    39  H    0.155310
    40  H    0.160507
 Sum of Mulliken charges =  -0.00000

 Dipole moment (field-independent basis, Debye):
    X=              0.0053    Y=             -0.0117    Z=              0.0099  Tot=              0.0162
 Quadrupole moment (field-independent basis, Debye-Ang):
   XX=            -82.8076   YY=            -86.3352   ZZ=            -85.4188
   XY=             -0.1376   XZ=             -0.1391   YZ=              0.4336

 Normal termination of Gaussian 16 at Thu May  6 03:54:34 2021.
