 Gaussian 16, Revision A.03,
 Gaussian 16:  EM64L-G16RevA.03 25-Dec-2016

 -------------
 #p 6-31g* mp2
 -------------

 ------------------------------------------------------
 Input file generated by CHIRIPA (05-May-2021 14:51:08)
 ------------------------------------------------------
 Symbolic Z-matrix:
 Charge =  0 Multiplicity = 1

                         Standard orientation:
 ---------------------------------------------------------------------
 Center     Atomic      Atomic             Coordinates (Angstroms)
 Number     Number       Type             X           Y           Z
 ---------------------------------------------------------------------
      1          6           0        2.961770   -0.623672    0.647517
      2          6           0        1.515020   -0.450604    0.183893
      3          6           0        0.505247   -1.056545    1.159080
      4          1           0        3.172728   -1.693903    0.778083
      5          1           0        3.080805   -0.158760    1.635992
      6          1           0        1.399091   -0.914494   -0.804025
      7          1           0        1.307539    0.619329    0.054232
      8          1           0        0.591843   -0.587204    2.144383
      9          1           0        0.683914   -2.129743    1.281250
     10          1           0       -0.522597   -0.921521    0.808132
     11          6           0        3.982959   -0.023058   -0.316932
     12          6           0        5.429709   -0.196126    0.146691
     13          6           0        6.439481    0.409815   -0.828495
     14          1           0        3.863924   -0.487969   -1.305407
     15          1           0        3.772001    1.047173   -0.447498
     16          1           0        5.637189   -1.266059    0.276353
     17          1           0        5.545638    0.267765    1.134609
     18          1           0        6.260814    1.483013   -0.950665
     19          1           0        6.352886   -0.059525   -1.813798
     20          1           0        7.467326    0.274792   -0.477548
     21          6           0       -3.030498    0.910681   -0.373249
     22          6           0       -3.336211    2.199656    0.390340
     23          6           0       -2.444040    3.365567   -0.036832
     24          1           0       -1.976133    0.642652   -0.220214
     25          1           0       -3.153685    1.092543   -1.449886
     26          1           0       -3.213828    2.015043    1.465308
     27          1           0       -4.390020    2.464544    0.235626
     28          1           0       -2.572279    3.578235   -1.103100
     29          1           0       -1.389404    3.126180    0.133570
     30          1           0       -2.679591    4.276900    0.521603
     31          6           0       -3.914230   -0.263951    0.042664
     32          6           0       -3.608518   -1.552927   -0.720925
     33          6           0       -4.500689   -2.718838   -0.293753
     34          1           0       -3.791044   -0.445813    1.119301
     35          1           0       -4.968595    0.004078   -0.110371
     36          1           0       -2.554709   -1.817814   -0.566210
     37          1           0       -3.730901   -1.368313   -1.795893
     38          1           0       -5.555325   -2.479450   -0.464155
     39          1           0       -4.372450   -2.931505    0.772516
     40          1           0       -4.265138   -3.630170   -0.852188
 ---------------------------------------------------------------------

 SCF Done:  E(RHF) =  -470.733101784     A.U. after   11 cycles
 E2 =    -0.1583249690D+01 EUMP2 =    -0.47231635147440D+03

 The electronic state is 1-A.
 Alpha  occ. eigenvalues --  -11.21666 -11.21620 -11.21595 -11.21594 -11.21440
 Alpha  occ. eigenvalues --  -11.21393 -11.21378 -11.21331 -11.21130 -11.21083
 Alpha  occ. eigenvalues --  -11.21074 -11.21059  -1.08474  -1.08423  -1.03573
 Alpha  occ. eigenvalues --   -1.03523  -0.96037  -0.95962  -0.87043  -0.86990
 Alpha  occ. eigenvalues --   -0.79637  -0.79584  -0.78282  -0.78241  -0.65124
 Alpha  occ. eigenvalues --   -0.65082  -0.61001  -0.60890  -0.59412  -0.59331
 Alpha  occ. eigenvalues --   -0.57696  -0.57535  -0.55321  -0.55247  -0.52771
 Alpha  occ. eigenvalues --   -0.52638  -0.52469  -0.52370  -0.49976  -0.49898
 Alpha  occ. eigenvalues --   -0.47976  -0.47899  -0.46667  -0.46624  -0.45820
 Alpha  occ. eigenvalues --   -0.45774  -0.45742  -0.45661  -0.43809  -0.43748
 Alpha virt. eigenvalues --    0.20321   0.23030   0.23760   0.24435   0.26239
 Alpha virt. eigenvalues --    0.26514   0.27128   0.27273   0.28044   0.29428
 Alpha virt. eigenvalues --    0.30060   0.31386   0.31737   0.31855   0.32099

 Mulliken charges:
               1
     1  C   -0.298362
     2  C   -0.299945
     3  C   -0.485555
     4  H    0.149904
     5  H    0.149633
     6  H    0.152558
     7  H    0.151925
     8  H    0.155299
     9  H    0.155700
    10  H    0.168584
    11  C   -0.298349
    12  C   -0.299703
    13  C   -0.475741
    14  H    0.149698
    15  H    0.149807
    16  H    0.151973
    17  H    0.151958
    18  H    0.155272
    19  H    0.155243
    20  H    0.160316
    21  C   -0.305224
    22  C   -0.299203
    23  C   -0.475829
    24  H    0.155860
    25  H    0.149694
    26  H    0.152069
    27  H    0.151966
    28  H    0.155272
    29  H    0.154934
    30  H    0.160217
    31  C   -0.298360
    32  C   -0.303825
    33  C   -0.475483
    34  H    0.149847
    35  H    0.149928
    36  H    0.155090
    37  H    0.152023
    38  H    0.155135
    39  H    0.155484
    40  H    0.160189
 Sum of Mulliken charges =  -0.00000

 Dipole moment (field-independent basis, Debye):
    X=              0.0136    Y=             -0.0055    Z=             -0.0028  Tot=              0.0149
 Quadrupole moment (field-independent basis, Debye-Ang):
   XX=            -85.3318   YY=            -84.9511   ZZ=            -84.4360
   XY=             -1.0911   XZ=              1.0743   YZ=              0.6939

 Normal termination of Gaussian 16 at Wed May  5 16:36:11 2021.
