 Gaussian 16, Revision A.03,
 Gaussian 16:  EM64L-G16RevA.03 25-Dec-2016

 -------------
 #p 6-31g* mp2
 -------------

 ------------------------------------------------------
 Input file generated by CHIRIPA (05-May-2021 14:51:10)
 ------------------------------------------------------
 Symbolic Z-matrix:
 Charge =  0 Multiplicity = 1

                         Standard orientation:
 ---------------------------------------------------------------------
 Center     Atomic      Atomic             Coordinates (Angstroms)
 Number     Number       Type             X           Y           Z
 ---------------------------------------------------------------------
      1          6           0        3.368779    0.759877   -0.164150
      2          6           0        2.303080    1.223092   -1.157982
      3          6           0        1.825343    2.650566   -0.889875
      4          1           0        2.964559    0.827415    0.855159
      5          1           0        4.224318    1.448049   -0.207359
      6          1           0        1.450389    0.533461   -1.113904
      7          1           0        2.709818    1.154262   -2.175057
      8          1           0        2.661069    3.354895   -0.953781
      9          1           0        1.394484    2.730566    0.113401
     10          1           0        1.063798    2.961324   -1.611913
     11          6           0        3.856376   -0.665234   -0.419172
     12          6           0        4.922075   -1.128450    0.574660
     13          6           0        5.399812   -2.555923    0.306553
     14          1           0        3.000837   -1.353406   -0.375963
     15          1           0        4.260595   -0.732772   -1.438481
     16          1           0        4.515337   -1.059619    1.591735
     17          1           0        5.774766   -0.438818    0.530583
     18          1           0        5.830671   -2.635923   -0.696722
     19          1           0        4.564086   -3.260252    0.370460
     20          1           0        6.161357   -2.866681    1.028591
     21          6           0       -3.930506   -0.671568   -0.012755
     22          6           0       -5.438494   -0.540138   -0.228812
     23          6           0       -6.060102   -1.797020   -0.838439
     24          1           0       -3.446661   -0.892380   -0.974046
     25          1           0       -3.734476   -1.532754    0.640947
     26          1           0       -5.631708    0.321375   -0.880792
     27          1           0       -5.918784   -0.319424    0.733073
     28          1           0       -5.896594   -2.662140   -0.187722
     29          1           0       -5.607887   -2.017700   -1.810758
     30          1           0       -7.138609   -1.681252   -0.984319
     31          6           0       -3.294649    0.576927    0.596076
     32          6           0       -1.786661    0.445495    0.812133
     33          6           0       -1.165053    1.702377    1.421761
     34          1           0       -3.490678    1.438111   -0.057626
     35          1           0       -3.778494    0.797738    1.557369
     36          1           0       -1.306370    0.224781   -0.149751
     37          1           0       -1.593447   -0.416018    1.464115
     38          1           0       -1.617268    1.923057    2.394079
     39          1           0       -1.328561    2.567497    0.771044
     40          1           0       -0.086546    1.586609    1.567640
 ---------------------------------------------------------------------

 SCF Done:  E(RHF) =  -470.732832713     A.U. after   11 cycles
 E2 =    -0.1583172635D+01 EUMP2 =    -0.47231600534774D+03

 The electronic state is 1-A.
 Alpha  occ. eigenvalues --  -11.21653 -11.21621 -11.21595 -11.21573 -11.21436
 Alpha  occ. eigenvalues --  -11.21400 -11.21376 -11.21340 -11.21096 -11.21086
 Alpha  occ. eigenvalues --  -11.21065 -11.20954  -1.08467  -1.08412  -1.03590
 Alpha  occ. eigenvalues --   -1.03479  -0.96058  -0.95907  -0.87085  -0.86917
 Alpha  occ. eigenvalues --   -0.79681  -0.79518  -0.78285  -0.78219  -0.65150
 Alpha  occ. eigenvalues --   -0.65008  -0.61150  -0.60795  -0.59379  -0.59299
 Alpha  occ. eigenvalues --   -0.57643  -0.57543  -0.55471  -0.55062  -0.52759
 Alpha  occ. eigenvalues --   -0.52647  -0.52439  -0.52313  -0.50100  -0.49721
 Alpha  occ. eigenvalues --   -0.47959  -0.47871  -0.46799  -0.46462  -0.45847
 Alpha  occ. eigenvalues --   -0.45766  -0.45761  -0.45618  -0.43788  -0.43757
 Alpha virt. eigenvalues --    0.20305   0.23087   0.23628   0.25520   0.25794
 Alpha virt. eigenvalues --    0.26188   0.26831   0.27659   0.28096   0.29311
 Alpha virt. eigenvalues --    0.30065   0.30592   0.31160   0.32050   0.32367

 Mulliken charges:
               1
     1  C   -0.298897
     2  C   -0.302488
     3  C   -0.479269
     4  H    0.149168
     5  H    0.149790
     6  H    0.153914
     7  H    0.151838
     8  H    0.154220
     9  H    0.161796
    10  H    0.158808
    11  C   -0.298335
    12  C   -0.299649
    13  C   -0.475714
    14  H    0.149722
    15  H    0.149681
    16  H    0.151891
    17  H    0.151928
    18  H    0.155165
    19  H    0.155212
    20  H    0.160226
    21  C   -0.298376
    22  C   -0.299683
    23  C   -0.475733
    24  H    0.149697
    25  H    0.149495
    26  H    0.152025
    27  H    0.151993
    28  H    0.155183
    29  H    0.155233
    30  H    0.160339
    31  C   -0.298551
    32  C   -0.302017
    33  C   -0.478292
    34  H    0.149868
    35  H    0.149871
    36  H    0.153876
    37  H    0.151677
    38  H    0.155069
    39  H    0.157251
    40  H    0.162068
 Sum of Mulliken charges =  -0.00000

 Dipole moment (field-independent basis, Debye):
    X=             -0.0307    Y=              0.0059    Z=              0.0134  Tot=              0.0340
 Quadrupole moment (field-independent basis, Debye-Ang):
   XX=            -84.7886   YY=            -86.2610   ZZ=            -83.7448
   XY=              0.2334   XZ=             -0.8184   YZ=             -0.9595

 Normal termination of Gaussian 16 at Wed May  5 23:00:51 2021.
