 Gaussian 16, Revision A.03,
 Gaussian 16:  EM64L-G16RevA.03 25-Dec-2016

 -------------
 #p 6-31g* mp2
 -------------

 ------------------------------------------------------
 Input file generated by CHIRIPA (05-May-2021 14:55:21)
 ------------------------------------------------------
 Symbolic Z-matrix:
 Charge =  0 Multiplicity = 1

                         Standard orientation:
 ---------------------------------------------------------------------
 Center     Atomic      Atomic             Coordinates (Angstroms)
 Number     Number       Type             X           Y           Z
 ---------------------------------------------------------------------
      1          6           0        1.328009   -2.581080    0.225944
      2          6           0        2.092723   -2.191987   -0.878746
      3          6           0        2.602094   -0.893070   -0.967649
      4          6           0        2.326139   -0.005040    0.070880
      5          6           0        1.567532   -0.362671    1.184391
      6          6           0        1.068312   -1.666792    1.252177
      7          1           0        0.936260   -3.592132    0.286804
      8          1           0        2.295999   -2.899917   -1.677219
      9          1           0        3.197018   -0.565347   -1.811497
     10          1           0        1.381671    0.365345    1.964690
     11          1           0        0.474730   -1.966189    2.111286
     12          7           0        2.860013    1.372820   -0.012060
     13          8           0        2.602734    2.136335    0.916105
     14          8           0        3.525635    1.663182   -1.003662
     15          6           0       -2.674406    0.954640    0.230661
     16          6           0       -3.007987    2.188324   -0.608823
     17          6           0       -2.621127    3.496057    0.082532
     18          1           0       -3.190716    1.026491    1.197721
     19          1           0       -1.597862    0.949622    0.450709
     20          1           0       -4.083349    2.190283   -0.828389
     21          1           0       -2.490977    2.113437   -1.574073
     22          1           0       -1.545911    3.520138    0.287302
     23          1           0       -3.147331    3.597421    1.037223
     24          1           0       -2.868410    4.365113   -0.535088
     25          6           0       -3.055257   -0.360392   -0.447108
     26          6           0       -2.721676   -1.594076    0.392375
     27          6           0       -3.108535   -2.901809   -0.298979
     28          1           0       -4.131801   -0.355374   -0.667156
     29          1           0       -2.538947   -0.432243   -1.414168
     30          1           0       -3.238685   -1.519188    1.357625
     31          1           0       -1.646313   -1.596034    0.611941
     32          1           0       -2.582332   -3.003173   -1.253670
     33          1           0       -4.183752   -2.925890   -0.503750
     34          1           0       -2.861253   -3.770864    0.318641
 ---------------------------------------------------------------------

 SCF Done:  E(RHF) =  -669.535206595     A.U. after   15 cycles
 E2 =    -0.2093370284D+01 EUMP2 =    -0.67162857687881D+03

 The electronic state is 1-A.
 Alpha  occ. eigenvalues --  -20.60875 -20.60870 -15.85930 -11.31331 -11.27889
 Alpha  occ. eigenvalues --  -11.27880 -11.27619 -11.26905 -11.26892 -11.21936
 Alpha  occ. eigenvalues --  -11.21630 -11.21605 -11.21546 -11.21456 -11.20834
 Alpha  occ. eigenvalues --   -1.59950  -1.39502  -1.19505  -1.08895  -1.08594
 Alpha  occ. eigenvalues --   -1.04910  -1.03693  -0.96143  -0.95713  -0.87159
 Alpha  occ. eigenvalues --   -0.86301  -0.82544  -0.79787  -0.78405  -0.77583
 Alpha  occ. eigenvalues --   -0.72145  -0.71275  -0.70585  -0.65271  -0.65144
 Alpha  occ. eigenvalues --   -0.64884  -0.62249  -0.61093  -0.59558  -0.57750
 Alpha  occ. eigenvalues --   -0.55437  -0.55369  -0.53281  -0.52995  -0.52830
 Alpha  occ. eigenvalues --   -0.52561  -0.50075  -0.48909  -0.48899  -0.48088
 Alpha  occ. eigenvalues --   -0.46813  -0.45941  -0.45844  -0.44898  -0.43944
 Alpha  occ. eigenvalues --   -0.37432  -0.36437
 Alpha virt. eigenvalues --    0.04919   0.11006   0.16379   0.20822   0.22871
 Alpha virt. eigenvalues --    0.24105   0.26129   0.26724   0.27280   0.28399
 Alpha virt. eigenvalues --    0.28777   0.30447   0.31338   0.31354   0.31996

 Mulliken charges:
               1
     1  C   -0.169744
     2  C   -0.218392
     3  C   -0.170859
     4  C    0.158069
     5  C   -0.171721
     6  C   -0.219551
     7  H    0.227605
     8  H    0.224251
     9  H    0.276111
    10  H    0.276774
    11  H    0.226691
    12  N    0.488047
    13  O   -0.460195
    14  O   -0.459855
    15  C   -0.300245
    16  C   -0.299828
    17  C   -0.477573
    18  H    0.148216
    19  H    0.149616
    20  H    0.150949
    21  H    0.153039
    22  H    0.162295
    23  H    0.153518
    24  H    0.161223
    25  C   -0.296522
    26  C   -0.309231
    27  C   -0.475489
    28  H    0.149890
    29  H    0.150378
    30  H    0.149884
    31  H    0.156181
    32  H    0.154234
    33  H    0.158459
    34  H    0.153779
 Sum of Mulliken charges =  -0.00000

 Dipole moment (field-independent basis, Debye):
    X=             -1.7531    Y=             -4.7807    Z=              0.2638  Tot=              5.0989
 Quadrupole moment (field-independent basis, Debye-Ang):
   XX=           -102.6988   YY=            -96.1014   ZZ=            -90.9471
   XY=            -12.4502   XZ=             -1.9793   YZ=              0.4126

 Normal termination of Gaussian 16 at Wed May  5 23:49:01 2021.
