 Gaussian 16, Revision A.03,
 Gaussian 16:  EM64L-G16RevA.03 25-Dec-2016

 -------------
 #p 6-31g* mp2
 -------------

 ------------------------------------------------------
 Input file generated by CHIRIPA (05-May-2021 14:51:14)
 ------------------------------------------------------
 Symbolic Z-matrix:
 Charge =  0 Multiplicity = 1

                         Standard orientation:
 ---------------------------------------------------------------------
 Center     Atomic      Atomic             Coordinates (Angstroms)
 Number     Number       Type             X           Y           Z
 ---------------------------------------------------------------------
      1          6           0       -2.989329   -1.197590   -0.060489
      2          6           0       -1.499699   -0.852650   -0.058996
      3          6           0       -0.606396   -2.089511   -0.158879
      4          1           0       -3.203221   -1.874785    0.777725
      5          1           0       -3.229441   -1.751261   -0.978742
      6          1           0       -1.262747   -0.298589    0.858330
      7          1           0       -1.289364   -0.176044   -0.897197
      8          1           0       -0.813968   -2.641142   -1.081494
      9          1           0       -0.787200   -2.764384    0.684008
     10          1           0        0.454345   -1.819914   -0.156143
     11          6           0       -3.895185    0.028497    0.038833
     12          6           0       -5.384816   -0.316444    0.037340
     13          6           0       -6.278119    0.920418    0.137223
     14          1           0       -3.655073    0.582168    0.957086
     15          1           0       -3.681294    0.705692   -0.799381
     16          1           0       -5.595150   -0.993049    0.875541
     17          1           0       -5.621768   -0.870504   -0.879986
     18          1           0       -6.097314    1.595290   -0.705664
     19          1           0       -6.070546    1.472049    1.059838
     20          1           0       -7.338859    0.650820    0.134487
     21          6           0        3.804015   -0.083408    0.090826
     22          6           0        5.324687    0.033757   -0.017875
     23          6           0        6.034284   -1.310852    0.144275
     24          1           0        3.545040   -0.521213    1.064583
     25          1           0        3.441714   -0.784777   -0.673513
     26          1           0        5.683865    0.735755    0.745541
     27          1           0        5.580063    0.471511   -0.991410
     28          1           0        5.704215   -2.015929   -0.625479
     29          1           0        5.808607   -1.750183    1.121342
     30          1           0        7.120488   -1.203928    0.063096
     31          6           0        3.080500    1.252501   -0.069170
     32          6           0        1.559828    1.135337    0.039531
     33          6           0        0.850230    2.479945   -0.122619
     34          1           0        3.442801    1.953871    0.695169
     35          1           0        3.339474    1.690307   -1.042928
     36          1           0        1.304451    0.697583    1.013066
     37          1           0        1.200649    0.433338   -0.723885
     38          1           0        1.075908    2.919276   -1.099686
     39          1           0        1.180299    3.185023    0.647134
     40          1           0       -0.235973    2.373021   -0.041441
 ---------------------------------------------------------------------

 SCF Done:  E(RHF) =  -470.732258651     A.U. after   11 cycles
 E2 =    -0.1584307639D+01 EUMP2 =    -0.47231656628945D+03

 The electronic state is 1-A.
 Alpha  occ. eigenvalues --  -11.21606 -11.21597 -11.21539 -11.21520 -11.21403
 Alpha  occ. eigenvalues --  -11.21391 -11.21330 -11.21325 -11.21069 -11.21066
 Alpha  occ. eigenvalues --  -11.21009 -11.20974  -1.08463  -1.08371  -1.03606
 Alpha  occ. eigenvalues --   -1.03410  -0.95996  -0.95918  -0.87011  -0.86934
 Alpha  occ. eigenvalues --   -0.79700  -0.79477  -0.78370  -0.78092  -0.65131
 Alpha  occ. eigenvalues --   -0.64977  -0.61060  -0.60771  -0.59676  -0.59058
 Alpha  occ. eigenvalues --   -0.57774  -0.57302  -0.55283  -0.55206  -0.52764
 Alpha  occ. eigenvalues --   -0.52537  -0.52503  -0.52276  -0.49917  -0.49880
 Alpha  occ. eigenvalues --   -0.47894  -0.47833  -0.46801  -0.46448  -0.45836
 Alpha  occ. eigenvalues --   -0.45804  -0.45636  -0.45536  -0.43763  -0.43751
 Alpha virt. eigenvalues --    0.21398   0.23120   0.23615   0.24438   0.25828
 Alpha virt. eigenvalues --    0.26214   0.26575   0.26972   0.28419   0.29215
 Alpha virt. eigenvalues --    0.30346   0.31215   0.31401   0.31789   0.32393

 Mulliken charges:
               1
     1  C   -0.298035
     2  C   -0.301144
     3  C   -0.481203
     4  H    0.149445
     5  H    0.149259
     6  H    0.153899
     7  H    0.153143
     8  H    0.154135
     9  H    0.154728
    10  H    0.165842
    11  C   -0.298568
    12  C   -0.299530
    13  C   -0.475716
    14  H    0.149211
    15  H    0.149407
    16  H    0.151978
    17  H    0.151960
    18  H    0.155191
    19  H    0.155166
    20  H    0.160244
    21  C   -0.299651
    22  C   -0.299518
    23  C   -0.475743
    24  H    0.149689
    25  H    0.149655
    26  H    0.152081
    27  H    0.151999
    28  H    0.155276
    29  H    0.155226
    30  H    0.160260
    31  C   -0.297878
    32  C   -0.302571
    33  C   -0.478421
    34  H    0.149194
    35  H    0.149261
    36  H    0.152238
    37  H    0.157266
    38  H    0.154397
    39  H    0.154644
    40  H    0.163183
 Sum of Mulliken charges =  -0.00000

 Dipole moment (field-independent basis, Debye):
    X=              0.0076    Y=              0.0033    Z=              0.0021  Tot=              0.0086
 Quadrupole moment (field-independent basis, Debye-Ang):
   XX=            -85.9452   YY=            -86.3276   ZZ=            -82.6924
   XY=              1.1438   XZ=              0.0570   YZ=              0.1061

 Normal termination of Gaussian 16 at Wed May  5 23:14:56 2021.
