 Gaussian 16, Revision A.03,
 Gaussian 16:  EM64L-G16RevA.03 25-Dec-2016

 -------------
 #p 6-31g* mp2
 -------------

 ------------------------------------------------------
 Input file generated by CHIRIPA (05-May-2021 14:51:12)
 ------------------------------------------------------
 Symbolic Z-matrix:
 Charge =  0 Multiplicity = 1

                         Standard orientation:
 ---------------------------------------------------------------------
 Center     Atomic      Atomic             Coordinates (Angstroms)
 Number     Number       Type             X           Y           Z
 ---------------------------------------------------------------------
      1          6           0       -4.811161    0.032061    0.216036
      2          6           0       -5.905244   -0.887342   -0.327714
      3          6           0       -7.311158   -0.423394    0.054322
      4          1           0       -4.896457    0.085828    1.310010
      5          1           0       -4.977174    1.050774   -0.160870
      6          1           0       -5.736422   -1.904303    0.048991
      7          1           0       -5.817213   -0.939078   -1.420504
      8          1           0       -7.504305    0.581463   -0.334984
      9          1           0       -7.423054   -0.389246    1.142860
     10          1           0       -8.077786   -1.094943   -0.344630
     11          6           0       -3.400114   -0.418606   -0.157559
     12          6           0       -2.306030    0.500797    0.386191
     13          6           0       -0.900116    0.036848    0.004154
     14          1           0       -3.234100   -1.437320    0.219346
     15          1           0       -3.314817   -0.472374   -1.251533
     16          1           0       -2.394061    0.552533    1.478981
     17          1           0       -2.474852    1.517757    0.009486
     18          1           0       -0.788220    0.002701   -1.084383
     19          1           0       -0.706969   -0.968008    0.393461
     20          1           0       -0.133488    0.708397    0.403107
     21          6           0        3.443071    0.559720   -0.130004
     22          6           0        3.556388    2.075118    0.039456
     23          6           0        2.222661    2.794209   -0.165173
     24          1           0        3.055177    0.337370   -1.133520
     25          1           0        2.703198    0.172237    0.584026
     26          1           0        4.296838    2.459446   -0.673735
     27          1           0        3.944239    2.293880    1.042616
     28          1           0        1.478848    2.438752    0.555238
     29          1           0        1.833451    2.605259   -1.170865
     30          1           0        2.326626    3.876447   -0.039419
     31          6           0        4.768203   -0.173175    0.071528
     32          6           0        4.654886   -1.688572   -0.097932
     33          6           0        5.988613   -2.407664    0.106697
     34          1           0        5.508076    0.214309   -0.642502
     35          1           0        5.156097    0.049175    1.075044
     36          1           0        4.267036   -1.907334   -1.101093
     37          1           0        3.914435   -2.072900    0.615258
     38          1           0        6.377823   -2.218713    1.112388
     39          1           0        6.732426   -2.052207   -0.613715
     40          1           0        5.884648   -3.489901   -0.019058
 ---------------------------------------------------------------------

 SCF Done:  E(RHF) =  -470.733044591     A.U. after   11 cycles
 E2 =    -0.1582696259D+01 EUMP2 =    -0.47231574085017D+03

 The electronic state is 1-A.
 Alpha  occ. eigenvalues --  -11.21586 -11.21584 -11.21570 -11.21556 -11.21377
 Alpha  occ. eigenvalues --  -11.21367 -11.21317 -11.21305 -11.21064 -11.21057
 Alpha  occ. eigenvalues --  -11.21049 -11.20972  -1.08410  -1.08392  -1.03530
 Alpha  occ. eigenvalues --   -1.03477  -0.95983  -0.95921  -0.87008  -0.86932
 Alpha  occ. eigenvalues --   -0.79631  -0.79504  -0.78233  -0.78186  -0.65040
 Alpha  occ. eigenvalues --   -0.65027  -0.60931  -0.60890  -0.59479  -0.59191
 Alpha  occ. eigenvalues --   -0.57695  -0.57436  -0.55257  -0.55223  -0.52747
 Alpha  occ. eigenvalues --   -0.52648  -0.52448  -0.52228  -0.49905  -0.49878
 Alpha  occ. eigenvalues --   -0.47986  -0.47766  -0.46611  -0.46579  -0.45772
 Alpha  occ. eigenvalues --   -0.45736  -0.45692  -0.45663  -0.43770  -0.43675
 Alpha virt. eigenvalues --    0.21753   0.23047   0.23471   0.24984   0.26135
 Alpha virt. eigenvalues --    0.26671   0.26964   0.27379   0.27910   0.29122
 Alpha virt. eigenvalues --    0.30173   0.31393   0.31729   0.31985   0.32025

 Mulliken charges:
               1
     1  C   -0.298189
     2  C   -0.299604
     3  C   -0.475682
     4  H    0.149518
     5  H    0.149523
     6  H    0.151863
     7  H    0.151902
     8  H    0.155173
     9  H    0.155130
    10  H    0.160181
    11  C   -0.298360
    12  C   -0.299626
    13  C   -0.481711
    14  H    0.149378
    15  H    0.149564
    16  H    0.151254
    17  H    0.152128
    18  H    0.154888
    19  H    0.154257
    20  H    0.167697
    21  C   -0.299848
    22  C   -0.299950
    23  C   -0.478585
    24  H    0.150207
    25  H    0.151892
    26  H    0.151851
    27  H    0.151643
    28  H    0.157667
    29  H    0.155965
    30  H    0.160248
    31  C   -0.298356
    32  C   -0.299537
    33  C   -0.475695
    34  H    0.149382
    35  H    0.149396
    36  H    0.152064
    37  H    0.152037
    38  H    0.155068
    39  H    0.155097
    40  H    0.160167
 Sum of Mulliken charges =  -0.00000

 Dipole moment (field-independent basis, Debye):
    X=              0.0174    Y=              0.0106    Z=             -0.0080  Tot=              0.0219
 Quadrupole moment (field-independent basis, Debye-Ang):
   XX=            -86.8549   YY=            -84.9799   ZZ=            -83.0729
   XY=              0.7885   XZ=             -0.0652   YZ=             -0.5604

 Normal termination of Gaussian 16 at Thu May  6 00:43:45 2021.
