 Gaussian 16, Revision A.03,
 Gaussian 16:  EM64L-G16RevA.03 25-Dec-2016

 -------------
 #p 6-31g* mp2
 -------------

 ------------------------------------------------------
 Input file generated by CHIRIPA (05-May-2021 14:57:24)
 ------------------------------------------------------
 Symbolic Z-matrix:
 Charge =  0 Multiplicity = 1

                         Standard orientation:
 ---------------------------------------------------------------------
 Center     Atomic      Atomic             Coordinates (Angstroms)
 Number     Number       Type             X           Y           Z
 ---------------------------------------------------------------------
      1          6           0       -1.374688    0.710802    1.468161
      2          6           0       -2.411634    0.080856    2.164173
      3          6           0       -3.566902   -0.333623    1.494762
      4          6           0       -3.652222   -0.101233    0.122900
      5          6           0       -2.636226    0.523822   -0.598453
      6          6           0       -1.490090    0.929888    0.091497
      7          1           0       -0.480795    1.029512    1.996153
      8          1           0       -2.324754   -0.090594    3.233332
      9          1           0       -4.384794   -0.823579    2.008974
     10          1           0       -2.751736    0.680981   -1.663993
     11          1           0       -0.686369    1.418874   -0.451615
     12          7           0       -4.870418   -0.535571   -0.596647
     13          8           0       -4.921183   -0.319225   -1.805471
     14          8           0       -5.751409   -1.084125    0.061820
     15          6           0        2.138176    2.133768   -0.704009
     16          6           0        3.114411    2.123887    0.297683
     17          6           0        3.848139    0.963713    0.562612
     18          6           0        3.578410   -0.173770   -0.196775
     19          6           0        2.612248   -0.195428   -1.201439
     20          6           0        1.890646    0.976119   -1.449061
     21          1           0        1.572908    3.039436   -0.903091
     22          1           0        3.308783    3.021460    0.877878
     23          1           0        4.609630    0.928267    1.332219
     24          1           0        2.441009   -1.105680   -1.763166
     25          1           0        1.133089    0.980879   -2.227603
     26          7           0        4.348757   -1.408014    0.074533
     27          8           0        4.092111   -2.397046   -0.608539
     28          8           0        5.194612   -1.363012    0.965116
 ---------------------------------------------------------------------

 SCF Done:  E(RHF) =  -868.336129849     A.U. after   16 cycles
 E2 =    -0.2601761212D+01 EUMP2 =    -0.87093789106031D+03

 The electronic state is 1-A.
 Alpha  occ. eigenvalues --  -20.61513 -20.61503 -20.61057 -20.61046 -15.86571
 Alpha  occ. eigenvalues --  -15.86109 -11.32170 -11.31521 -11.28746 -11.28736
 Alpha  occ. eigenvalues --  -11.28600 -11.28134 -11.28064 -11.27867 -11.27834
 Alpha  occ. eigenvalues --  -11.27819 -11.27094 -11.27076  -1.60582  -1.60129
 Alpha  occ. eigenvalues --   -1.40127  -1.39682  -1.20385  -1.19694  -1.09764
 Alpha  occ. eigenvalues --   -1.09070  -1.05808  -1.05114  -0.96538  -0.95902
 Alpha  occ. eigenvalues --   -0.87232  -0.86491  -0.83346  -0.82748  -0.78350
 Alpha  occ. eigenvalues --   -0.77794  -0.72785  -0.72327  -0.71909  -0.71496
 Alpha  occ. eigenvalues --   -0.71452  -0.70793  -0.66066  -0.65893  -0.65345
 Alpha  occ. eigenvalues --   -0.65073  -0.63140  -0.62453  -0.56333  -0.55591
 Alpha  occ. eigenvalues --   -0.54244  -0.53894  -0.53420  -0.53093  -0.49563
 Alpha  occ. eigenvalues --   -0.49524  -0.49090  -0.49079  -0.45480  -0.45078
 Alpha  occ. eigenvalues --   -0.38407  -0.37724  -0.37370  -0.36661
 Alpha virt. eigenvalues --    0.04143   0.04755   0.09999   0.11007   0.15518
 Alpha virt. eigenvalues --    0.16270   0.19448   0.21819   0.25417   0.26819
 Alpha virt. eigenvalues --    0.27938   0.28447   0.29968   0.30865   0.32085

 Mulliken charges:
               1
     1  C   -0.173182
     2  C   -0.217970
     3  C   -0.170492
     4  C    0.159558
     5  C   -0.174073
     6  C   -0.217950
     7  H    0.226292
     8  H    0.225154
     9  H    0.276996
    10  H    0.272384
    11  H    0.219072
    12  N    0.488108
    13  O   -0.461216
    14  O   -0.458806
    15  C   -0.179768
    16  C   -0.220706
    17  C   -0.171270
    18  C    0.158889
    19  C   -0.168672
    20  C   -0.222514
    21  H    0.227015
    22  H    0.226460
    23  H    0.278604
    24  H    0.280595
    25  H    0.224591
    26  N    0.487830
    27  O   -0.456579
    28  O   -0.458352
 Sum of Mulliken charges =  -0.00000

 Dipole moment (field-independent basis, Debye):
    X=              1.8276    Y=              5.7084    Z=              1.6626  Tot=              6.2201
 Quadrupole moment (field-independent basis, Debye-Ang):
   XX=           -153.7483   YY=           -106.1412   ZZ=            -97.8990
   XY=             12.1990   XZ=            -11.6789   YZ=             -0.4069

 Normal termination of Gaussian 16 at Thu May  6 19:40:16 2021.
