 Gaussian 16, Revision A.03,
 Gaussian 16:  EM64L-G16RevA.03 25-Dec-2016

 -------------
 #p 6-31g* mp2
 -------------

 ------------------------------------------------------
 Input file generated by CHIRIPA (05-May-2021 14:53:12)
 ------------------------------------------------------
 Symbolic Z-matrix:
 Charge =  0 Multiplicity = 1

                         Standard orientation:
 ---------------------------------------------------------------------
 Center     Atomic      Atomic             Coordinates (Angstroms)
 Number     Number       Type             X           Y           Z
 ---------------------------------------------------------------------
      1          6           0       -4.847909   -0.246688    0.404366
      2          6           0       -5.923242    0.715558   -0.101329
      3          6           0       -7.177472    0.712854    0.773140
      4          1           0       -5.264543   -1.262326    0.447252
      5          1           0       -4.578349    0.024337    1.434549
      6          1           0       -6.189700    0.443652   -1.130738
      7          1           0       -5.503942    1.728992   -0.143198
      8          1           0       -6.932329    1.005535    1.799222
      9          1           0       -7.621984   -0.287108    0.806071
     10          1           0       -7.933080    1.407679    0.393488
     11          6           0       -3.587939   -0.255253   -0.459423
     12          6           0       -2.512606   -1.217498    0.046272
     13          6           0       -1.258377   -1.214795   -0.828197
     14          1           0       -3.857500   -0.526278   -1.489606
     15          1           0       -3.171305    0.760386   -0.502309
     16          1           0       -2.931906   -2.230933    0.088141
     17          1           0       -2.246148   -0.945593    1.075681
     18          1           0       -0.813865   -0.214832   -0.861128
     19          1           0       -1.503520   -1.507476   -1.854279
     20          1           0       -0.502769   -1.909619   -0.448545
     21          6           0        3.589407   -2.299080    0.253075
     22          6           0        4.484592   -1.427362    0.881783
     23          6           0        4.331285   -0.043058    0.760341
     24          6           0        3.266816    0.437293   -0.000881
     25          6           0        2.358338   -0.405547   -0.639300
     26          6           0        2.531003   -1.786293   -0.504126
     27          1           0        3.716020   -3.373059    0.352748
     28          1           0        5.307483   -1.822772    1.470464
     29          1           0        5.009674    0.654451    1.236458
     30          1           0        1.547740    0.018392   -1.219496
     31          1           0        1.834257   -2.460906   -0.993501
     32          7           0        3.094269    1.900910   -0.136715
     33          8           0        2.148279    2.298963   -0.812950
     34          8           0        3.908284    2.622327    0.435626
 ---------------------------------------------------------------------

 SCF Done:  E(RHF) =  -669.534656841     A.U. after   15 cycles
 E2 =    -0.2092070547D+01 EUMP2 =    -0.67162672738743D+03

 The electronic state is 1-A.
 Alpha  occ. eigenvalues --  -20.60744 -20.60737 -15.85793 -11.31115 -11.27706
 Alpha  occ. eigenvalues --  -11.27642 -11.27446 -11.26713 -11.26666 -11.21985
 Alpha  occ. eigenvalues --  -11.21729 -11.21628 -11.21554 -11.21465 -11.21081
 Alpha  occ. eigenvalues --   -1.59817  -1.39372  -1.19300  -1.08705  -1.08613
 Alpha  occ. eigenvalues --   -1.04706  -1.03772  -0.96262  -0.95539  -0.87301
 Alpha  occ. eigenvalues --   -0.86103  -0.82378  -0.79865  -0.78394  -0.77415
 Alpha  occ. eigenvalues --   -0.72014  -0.71140  -0.70420  -0.65244  -0.64955
 Alpha  occ. eigenvalues --   -0.64730  -0.62130  -0.61135  -0.59620  -0.57847
 Alpha  occ. eigenvalues --   -0.55565  -0.55190  -0.53221  -0.52970  -0.52802
 Alpha  occ. eigenvalues --   -0.52468  -0.50158  -0.48770  -0.48768  -0.48151
 Alpha  occ. eigenvalues --   -0.46843  -0.45945  -0.45839  -0.44785  -0.44022
 Alpha  occ. eigenvalues --   -0.37291  -0.36263
 Alpha virt. eigenvalues --    0.05091   0.11285   0.16505   0.20837   0.22797
 Alpha virt. eigenvalues --    0.24171   0.25848   0.26458   0.26966   0.27919
 Alpha virt. eigenvalues --    0.29146   0.29230   0.31362   0.31640   0.32376

 Mulliken charges:
               1
     1  C   -0.298676
     2  C   -0.300158
     3  C   -0.475883
     4  H    0.148730
     5  H    0.150599
     6  H    0.151842
     7  H    0.154308
     8  H    0.155704
     9  H    0.154511
    10  H    0.161012
    11  C   -0.300251
    12  C   -0.298459
    13  C   -0.486731
    14  H    0.149451
    15  H    0.155093
    16  H    0.151514
    17  H    0.155065
    18  H    0.161621
    19  H    0.155953
    20  H    0.154660
    21  C   -0.171284
    22  C   -0.218908
    23  C   -0.170740
    24  C    0.157614
    25  C   -0.170825
    26  C   -0.222032
    27  H    0.225280
    28  H    0.223087
    29  H    0.275277
    30  H    0.281222
    31  H    0.225304
    32  N    0.488181
    33  O   -0.461573
    34  O   -0.460510
 Sum of Mulliken charges =  -0.00000

 Dipole moment (field-independent basis, Debye):
    X=              0.4784    Y=             -5.0979    Z=              0.4992  Tot=              5.1446
 Quadrupole moment (field-independent basis, Debye-Ang):
   XX=            -88.3290   YY=            -99.4028   ZZ=            -93.7144
   XY=            -15.8510   XZ=              4.9897   YZ=              1.0300

 Normal termination of Gaussian 16 at Thu May  6 07:17:13 2021.
