 Gaussian 16, Revision A.03,
 Gaussian 16:  EM64L-G16RevA.03 25-Dec-2016

 -------------
 #p 6-31g* mp2
 -------------

 ------------------------------------------------------
 Input file generated by CHIRIPA (05-May-2021 14:57:24)
 ------------------------------------------------------
 Symbolic Z-matrix:
 Charge =  0 Multiplicity = 1

                         Standard orientation:
 ---------------------------------------------------------------------
 Center     Atomic      Atomic             Coordinates (Angstroms)
 Number     Number       Type             X           Y           Z
 ---------------------------------------------------------------------
      1          6           0       -5.472398    1.895419    0.488485
      2          6           0       -5.992073    0.721631   -0.067105
      3          6           0       -5.148098   -0.344881   -0.390844
      4          6           0       -3.783383   -0.202870   -0.144521
      5          6           0       -3.235401    0.953781    0.407895
      6          6           0       -4.098143    2.007550    0.723797
      7          1           0       -6.135307    2.718962    0.736929
      8          1           0       -7.058922    0.631747   -0.250949
      9          1           0       -5.523751   -1.264903   -0.821961
     10          1           0       -2.167538    1.013860    0.579587
     11          1           0       -3.691762    2.917944    1.155171
     12          7           0       -2.879970   -1.325194   -0.483101
     13          8           0       -1.681347   -1.175159   -0.256320
     14          8           0       -3.387605   -2.333654   -0.968849
     15          6           0        5.898025    1.419924   -0.643452
     16          6           0        4.595714    1.907728   -0.793623
     17          6           0        3.499020    1.139574   -0.391438
     18          6           0        3.742235   -0.117645    0.159503
     19          6           0        5.027895   -0.631363    0.322171
     20          6           0        6.109587    0.154167   -0.087016
     21          1           0        6.744136    2.023394   -0.958598
     22          1           0        4.428413    2.890373   -1.225438
     23          1           0        2.480344    1.492768   -0.496181
     24          1           0        5.163063   -1.614699    0.755988
     25          1           0        7.119882   -0.227231    0.030816
     26          7           0        2.589155   -0.940052    0.588983
     27          8           0        2.830111   -2.044467    1.071525
     28          8           0        1.466250   -0.464668    0.434938
 ---------------------------------------------------------------------

 SCF Done:  E(RHF) =  -868.335266106     A.U. after   16 cycles
 E2 =    -0.2600291677D+01 EUMP2 =    -0.87093555778361D+03

 The electronic state is 1-A.
 Alpha  occ. eigenvalues --  -20.60021 -20.59967 -20.59711 -20.59597 -15.85059
 Alpha  occ. eigenvalues --  -15.84702 -11.30732 -11.30428 -11.27354 -11.27326
 Alpha  occ. eigenvalues --  -11.27137 -11.27069 -11.27004 -11.26885 -11.26434
 Alpha  occ. eigenvalues --  -11.26408 -11.26160 -11.26143  -1.59064  -1.58744
 Alpha  occ. eigenvalues --   -1.38613  -1.38277  -1.18933  -1.18647  -1.08269
 Alpha  occ. eigenvalues --   -1.07984  -1.04384  -1.04100  -0.95053  -0.94746
 Alpha  occ. eigenvalues --   -0.85768  -0.85481  -0.81895  -0.81557  -0.76892
 Alpha  occ. eigenvalues --   -0.76544  -0.71337  -0.70806  -0.70403  -0.70095
 Alpha  occ. eigenvalues --   -0.70042  -0.69749  -0.64580  -0.64394  -0.64279
 Alpha  occ. eigenvalues --   -0.64112  -0.61733  -0.61434  -0.54876  -0.54606
 Alpha  occ. eigenvalues --   -0.52694  -0.52484  -0.52418  -0.52196  -0.48053
 Alpha  occ. eigenvalues --   -0.48015  -0.47690  -0.47640  -0.43952  -0.43603
 Alpha  occ. eigenvalues --   -0.36929  -0.36660  -0.36002  -0.35723
 Alpha virt. eigenvalues --    0.05660   0.05978   0.11648   0.11926   0.17096
 Alpha virt. eigenvalues --    0.17398   0.21711   0.22020   0.27601   0.27877
 Alpha virt. eigenvalues --    0.28557   0.29015   0.31186   0.31566   0.32777

 Mulliken charges:
               1
     1  C   -0.171957
     2  C   -0.218832
     3  C   -0.171682
     4  C    0.158066
     5  C   -0.172790
     6  C   -0.219062
     7  H    0.222467
     8  H    0.220818
     9  H    0.274462
    10  H    0.282270
    11  H    0.220304
    12  N    0.487117
    13  O   -0.444544
    14  O   -0.467099
    15  C   -0.171787
    16  C   -0.218388
    17  C   -0.171014
    18  C    0.159509
    19  C   -0.171171
    20  C   -0.218414
    21  H    0.223731
    22  H    0.220918
    23  H    0.273320
    24  H    0.275820
    25  H    0.222206
    26  N    0.488340
    27  O   -0.460623
    28  O   -0.451987
 Sum of Mulliken charges =  -0.00000

 Dipole moment (field-independent basis, Debye):
    X=              1.0276    Y=              6.7115    Z=             -0.2811  Tot=              6.7955
 Quadrupole moment (field-independent basis, Debye-Ang):
   XX=            -48.4084   YY=           -104.3188   ZZ=           -106.4204
   XY=             -4.2997   XZ=             -6.7193   YZ=             -0.4810

 Normal termination of Gaussian 16 at Wed May  5 16:22:32 2021.
