 Gaussian 16, Revision A.03,
 Gaussian 16:  EM64L-G16RevA.03 25-Dec-2016

 -------------
 #p 6-31g* mp2
 -------------

 ------------------------------------------------------
 Input file generated by CHIRIPA (05-May-2021 14:53:16)
 ------------------------------------------------------
 Symbolic Z-matrix:
 Charge =  0 Multiplicity = 1

                         Standard orientation:
 ---------------------------------------------------------------------
 Center     Atomic      Atomic             Coordinates (Angstroms)
 Number     Number       Type             X           Y           Z
 ---------------------------------------------------------------------
      1          6           0        3.639254    0.791177    0.215424
      2          6           0        2.583000    1.808557    0.648147
      3          6           0        3.192192    3.061850    1.277382
      4          1           0        4.245265    0.508105    1.086955
      5          1           0        4.324185    1.266175   -0.500566
      6          1           0        1.899443    1.331374    1.362054
      7          1           0        1.979311    2.089095   -0.224477
      8          1           0        3.859170    3.563413    0.568738
      9          1           0        3.778848    2.801388    2.164284
     10          1           0        2.419419    3.775629    1.579378
     11          6           0        3.045736   -0.467184   -0.415442
     12          6           0        4.101990   -1.484565   -0.848166
     13          6           0        3.492798   -2.737858   -1.477400
     14          1           0        2.360805   -0.942182    0.300548
     15          1           0        2.439725   -0.184113   -1.286974
     16          1           0        4.705679   -1.765102    0.024459
     17          1           0        4.785547   -1.007382   -1.562072
     18          1           0        2.906142   -2.477395   -2.364302
     19          1           0        2.825821   -3.239421   -0.768757
     20          1           0        4.265571   -3.451637   -1.779396
     21          6           0       -1.714439   -1.736771    1.801135
     22          6           0       -0.845797   -0.859017    1.144226
     23          6           0       -1.331675    0.037449    0.187763
     24          6           0       -2.698031    0.029110   -0.088442
     25          6           0       -3.588766   -0.833132    0.549071
     26          6           0       -3.080742   -1.721054    1.501988
     27          1           0       -1.328396   -2.429849    2.542762
     28          1           0        0.215761   -0.869003    1.374527
     29          1           0       -0.681513    0.727819   -0.335779
     30          1           0       -4.642035   -0.799790    0.298207
     31          1           0       -3.757680   -2.401595    2.010582
     32          7           0       -3.224132    0.973636   -1.099129
     33          8           0       -4.432069    0.946545   -1.324493
     34          8           0       -2.418588    1.723162   -1.646805
 ---------------------------------------------------------------------

 SCF Done:  E(RHF) =  -669.535487481     A.U. after   15 cycles
 E2 =    -0.2092253695D+01 EUMP2 =    -0.67162774117611D+03

 The electronic state is 1-A.
 Alpha  occ. eigenvalues --  -20.60710 -20.60705 -15.85762 -11.31100 -11.27684
 Alpha  occ. eigenvalues --  -11.27642 -11.27422 -11.26697 -11.26641 -11.22337
 Alpha  occ. eigenvalues --  -11.22239 -11.22178 -11.22038 -11.21577 -11.21537
 Alpha  occ. eigenvalues --   -1.59785  -1.39340  -1.19276  -1.09134  -1.08679
 Alpha  occ. eigenvalues --   -1.04671  -1.04134  -0.96568  -0.95516  -0.87580
 Alpha  occ. eigenvalues --   -0.86078  -0.82354  -0.80218  -0.79005  -0.77375
 Alpha  occ. eigenvalues --   -0.71982  -0.71108  -0.70389  -0.65821  -0.64926
 Alpha  occ. eigenvalues --   -0.64646  -0.62028  -0.61528  -0.59933  -0.58188
 Alpha  occ. eigenvalues --   -0.55856  -0.55189  -0.53231  -0.53064  -0.52971
 Alpha  occ. eigenvalues --   -0.52743  -0.50506  -0.48742  -0.48738  -0.48520
 Alpha  occ. eigenvalues --   -0.47258  -0.46468  -0.46404  -0.44751  -0.44415
 Alpha  occ. eigenvalues --   -0.37265  -0.36267
 Alpha virt. eigenvalues --    0.05123   0.11349   0.16561   0.19217   0.22882
 Alpha virt. eigenvalues --    0.23582   0.24332   0.24898   0.27413   0.28454
 Alpha virt. eigenvalues --    0.29691   0.30735   0.31375   0.31443   0.31795

 Mulliken charges:
               1
     1  C   -0.298076
     2  C   -0.306295
     3  C   -0.475815
     4  H    0.150375
     5  H    0.154571
     6  H    0.144990
     7  H    0.157156
     8  H    0.158759
     9  H    0.155415
    10  H    0.164283
    11  C   -0.303988
    12  C   -0.299675
    13  C   -0.476070
    14  H    0.140804
    15  H    0.153942
    16  H    0.152276
    17  H    0.155845
    18  H    0.158543
    19  H    0.152269
    20  H    0.162631
    21  C   -0.171822
    22  C   -0.224898
    23  C   -0.174826
    24  C    0.158428
    25  C   -0.170711
    26  C   -0.218717
    27  H    0.225330
    28  H    0.231474
    29  H    0.279074
    30  H    0.275263
    31  H    0.223000
    32  N    0.488048
    33  O   -0.460778
    34  O   -0.460805
 Sum of Mulliken charges =  -0.00000

 Dipole moment (field-independent basis, Debye):
    X=              2.0666    Y=             -3.2437    Z=              3.4676  Tot=              5.1785
 Quadrupole moment (field-independent basis, Debye-Ang):
   XX=            -99.9645   YY=            -95.3202   ZZ=            -95.3270
   XY=             11.0041   XZ=            -11.0963   YZ=             -0.7174

 Normal termination of Gaussian 16 at Wed May  5 17:11:02 2021.
