 Gaussian 16, Revision A.03,
 Gaussian 16:  EM64L-G16RevA.03 25-Dec-2016

 -------------
 #p 6-31g* mp2
 -------------

 ------------------------------------------------------
 Input file generated by CHIRIPA (05-May-2021 14:51:14)
 ------------------------------------------------------
 Symbolic Z-matrix:
 Charge =  0 Multiplicity = 1

                         Standard orientation:
 ---------------------------------------------------------------------
 Center     Atomic      Atomic             Coordinates (Angstroms)
 Number     Number       Type             X           Y           Z
 ---------------------------------------------------------------------
      1          6           0       -4.674856    0.079763   -0.197499
      2          6           0       -5.666444   -0.974983    0.294690
      3          6           0       -7.116522   -0.625564   -0.041427
      4          1           0       -4.931899    1.051097    0.246782
      5          1           0       -4.782601    0.195104   -1.284919
      6          1           0       -5.555900   -1.089295    1.380659
      7          1           0       -5.406896   -1.943956   -0.150665
      8          1           0       -7.249058   -0.531312   -1.124086
      9          1           0       -7.398909    0.328206    0.415938
     10          1           0       -7.808411   -1.392935    0.319534
     11          6           0       -3.221085   -0.255415    0.131029
     12          6           0       -2.229497    0.799331   -0.361159
     13          6           0       -0.779419    0.449912   -0.025043
     14          1           0       -3.113340   -0.370756    1.218449
     15          1           0       -2.964042   -1.226749   -0.313252
     16          1           0       -2.489045    1.768305    0.084195
     17          1           0       -2.340041    0.913643   -1.447128
     18          1           0       -0.497032   -0.503857   -0.482407
     19          1           0       -0.646883    0.355660    1.057617
     20          1           0       -0.087530    1.217283   -0.386004
     21          6           0        3.858855    0.781847   -0.273075
     22          6           0        2.992377    1.712652    0.575924
     23          6           0        2.823359    3.097354   -0.050038
     24          1           0        4.845436    1.242309   -0.419967
     25          1           0        3.408924    0.681903   -1.270557
     26          1           0        3.443067    1.809713    1.571953
     27          1           0        2.007808    1.249833    0.720972
     28          1           0        2.352608    3.019823   -1.035423
     29          1           0        3.796022    3.582883   -0.179607
     30          1           0        2.200533    3.746442    0.573368
     31          6           0        4.037086   -0.606195    0.339545
     32          6           0        4.903565   -1.537000   -0.509454
     33          6           0        5.072582   -2.921703    0.116507
     34          1           0        4.487017   -0.506251    1.337026
     35          1           0        3.050505   -1.066658    0.486437
     36          1           0        5.888133   -1.074182   -0.654502
     37          1           0        4.452874   -1.634060   -1.505483
     38          1           0        4.099919   -3.407231    0.246077
     39          1           0        5.543332   -2.844171    1.101893
     40          1           0        5.695408   -3.570790   -0.506897
 ---------------------------------------------------------------------

 SCF Done:  E(RHF) =  -470.732995965     A.U. after   11 cycles
 E2 =    -0.1582848054D+01 EUMP2 =    -0.47231584401897D+03

 The electronic state is 1-A.
 Alpha  occ. eigenvalues --  -11.21656 -11.21625 -11.21553 -11.21443 -11.21442
 Alpha  occ. eigenvalues --  -11.21381 -11.21328 -11.21268 -11.21148 -11.21090
 Alpha  occ. eigenvalues --  -11.21035 -11.21035  -1.08472  -1.08355  -1.03587
 Alpha  occ. eigenvalues --   -1.03458  -0.96040  -0.95918  -0.87064  -0.86933
 Alpha  occ. eigenvalues --   -0.79690  -0.79488  -0.78287  -0.78157  -0.65100
 Alpha  occ. eigenvalues --   -0.65004  -0.61005  -0.60916  -0.59406  -0.59241
 Alpha  occ. eigenvalues --   -0.57648  -0.57516  -0.55332  -0.55206  -0.52754
 Alpha  occ. eigenvalues --   -0.52610  -0.52450  -0.52341  -0.49989  -0.49850
 Alpha  occ. eigenvalues --   -0.47958  -0.47839  -0.46708  -0.46519  -0.45851
 Alpha  occ. eigenvalues --   -0.45753  -0.45695  -0.45613  -0.43779  -0.43693
 Alpha virt. eigenvalues --    0.21428   0.22975   0.23745   0.24904   0.25895
 Alpha virt. eigenvalues --    0.26594   0.26945   0.27606   0.27880   0.29001
 Alpha virt. eigenvalues --    0.30792   0.31037   0.31694   0.31781   0.32208

 Mulliken charges:
               1
     1  C   -0.298334
     2  C   -0.299652
     3  C   -0.475726
     4  H    0.149771
     5  H    0.149582
     6  H    0.151994
     7  H    0.151950
     8  H    0.155212
     9  H    0.155238
    10  H    0.160339
    11  C   -0.298690
    12  C   -0.299836
    13  C   -0.480251
    14  H    0.149692
    15  H    0.149583
    16  H    0.152473
    17  H    0.152025
    18  H    0.154962
    19  H    0.155701
    20  H    0.165030
    21  C   -0.297520
    22  C   -0.308897
    23  C   -0.476285
    24  H    0.149126
    25  H    0.149027
    26  H    0.151211
    27  H    0.163230
    28  H    0.154299
    29  H    0.155262
    30  H    0.159964
    31  C   -0.298725
    32  C   -0.299576
    33  C   -0.475648
    34  H    0.149246
    35  H    0.150489
    36  H    0.151783
    37  H    0.151733
    38  H    0.155093
    39  H    0.155099
    40  H    0.160025
 Sum of Mulliken charges =  -0.00000

 Dipole moment (field-independent basis, Debye):
    X=             -0.0535    Y=             -0.0055    Z=              0.0075  Tot=              0.0543
 Quadrupole moment (field-independent basis, Debye-Ang):
   XX=            -85.5004   YY=            -85.6245   ZZ=            -83.8875
   XY=              0.5282   XZ=              0.0903   YZ=              0.9818

 Normal termination of Gaussian 16 at Thu May  6 00:50:32 2021.
