 Gaussian 16, Revision A.03,
 Gaussian 16:  EM64L-G16RevA.03 25-Dec-2016

 -------------
 #p 6-31g* mp2
 -------------

 ------------------------------------------------------
 Input file generated by CHIRIPA (05-May-2021 14:51:12)
 ------------------------------------------------------
 Symbolic Z-matrix:
 Charge =  0 Multiplicity = 1

                         Standard orientation:
 ---------------------------------------------------------------------
 Center     Atomic      Atomic             Coordinates (Angstroms)
 Number     Number       Type             X           Y           Z
 ---------------------------------------------------------------------
      1          6           0        3.886252    0.224989    0.275939
      2          6           0        5.273303    0.177536   -0.365795
      3          6           0        6.228225    1.222337    0.212400
      4          1           0        3.460284    1.228436    0.139596
      5          1           0        3.985813    0.072273    1.359526
      6          1           0        5.171023    0.328917   -1.448033
      7          1           0        5.695940   -0.825971   -0.228076
      8          1           0        6.359827    1.070261    1.288576
      9          1           0        5.831927    2.231711    0.061687
     10          1           0        7.213875    1.170727   -0.260558
     11          6           0        2.920313   -0.813563   -0.291600
     12          6           0        1.533262   -0.766111    0.350134
     13          6           0        0.578341   -1.810912   -0.228061
     14          1           0        2.820753   -0.660848   -1.375187
     15          1           0        3.346282   -1.817010   -0.155257
     16          1           0        1.110626    0.237397    0.212415
     17          1           0        1.635542   -0.917491    1.432372
     18          1           0        0.974638   -2.820285   -0.077348
     19          1           0        0.446739   -1.658836   -1.304237
     20          1           0       -0.407310   -1.759301    0.244897
     21          6           0       -3.415524   -0.382116   -0.346798
     22          6           0       -3.422222   -1.570900    0.614832
     23          6           0       -3.446760   -2.917140   -0.109620
     24          1           0       -4.302395   -0.436311   -0.992916
     25          1           0       -2.541615   -0.459518   -1.008376
     26          1           0       -4.295102   -1.490541    1.275316
     27          1           0       -2.535332   -1.513764    1.258865
     28          1           0       -2.569080   -3.023150   -0.755406
     29          1           0       -4.338849   -2.999795   -0.738862
     30          1           0       -3.451189   -3.753137    0.596745
     31          6           0       -3.391041    0.970690    0.362459
     32          6           0       -3.384343    2.159474   -0.599172
     33          6           0       -3.359806    3.505714    0.125281
     34          1           0       -4.264951    1.048092    1.024038
     35          1           0       -2.504172    1.024885    1.008577
     36          1           0       -4.271233    2.102338   -1.243204
     37          1           0       -2.511463    2.079115   -1.259654
     38          1           0       -2.467717    3.588370    0.754524
     39          1           0       -4.237485    3.611724    0.771067
     40          1           0       -3.355377    4.341711   -0.581084
 ---------------------------------------------------------------------

 SCF Done:  E(RHF) =  -470.732953111     A.U. after   11 cycles
 E2 =    -0.1583430776D+01 EUMP2 =    -0.47231638388679D+03

 The electronic state is 1-A.
 Alpha  occ. eigenvalues --  -11.21668 -11.21627 -11.21602 -11.21595 -11.21445
 Alpha  occ. eigenvalues --  -11.21387 -11.21384 -11.21324 -11.21103 -11.21091
 Alpha  occ. eigenvalues --  -11.21073 -11.21017  -1.08480  -1.08417  -1.03600
 Alpha  occ. eigenvalues --   -1.03500  -0.96034  -0.95954  -0.87046  -0.86978
 Alpha  occ. eigenvalues --   -0.79640  -0.79586  -0.78286  -0.78232  -0.65153
 Alpha  occ. eigenvalues --   -0.65062  -0.61078  -0.60963  -0.59334  -0.59289
 Alpha  occ. eigenvalues --   -0.57616  -0.57567  -0.55335  -0.55232  -0.52694
 Alpha  occ. eigenvalues --   -0.52659  -0.52448  -0.52374  -0.49984  -0.49887
 Alpha  occ. eigenvalues --   -0.48002  -0.47852  -0.46686  -0.46607  -0.45828
 Alpha  occ. eigenvalues --   -0.45770  -0.45761  -0.45671  -0.43809  -0.43757
 Alpha virt. eigenvalues --    0.20481   0.23103   0.23801   0.24957   0.26229
 Alpha virt. eigenvalues --    0.26522   0.26834   0.27618   0.27999   0.29291
 Alpha virt. eigenvalues --    0.30655   0.31009   0.31591   0.31729   0.32134

 Mulliken charges:
               1
     1  C   -0.298280
     2  C   -0.299672
     3  C   -0.475733
     4  H    0.149605
     5  H    0.149596
     6  H    0.151978
     7  H    0.152024
     8  H    0.155227
     9  H    0.155216
    10  H    0.160357
    11  C   -0.298528
    12  C   -0.299772
    13  C   -0.485099
    14  H    0.149597
    15  H    0.149920
    16  H    0.151385
    17  H    0.152017
    18  H    0.155695
    19  H    0.154645
    20  H    0.170830
    21  C   -0.300642
    22  C   -0.303309
    23  C   -0.478302
    24  H    0.149786
    25  H    0.152301
    26  H    0.153175
    27  H    0.152068
    28  H    0.159037
    29  H    0.155130
    30  H    0.160062
    31  C   -0.298416
    32  C   -0.299570
    33  C   -0.475714
    34  H    0.149534
    35  H    0.149675
    36  H    0.151979
    37  H    0.151634
    38  H    0.155142
    39  H    0.155258
    40  H    0.160163
 Sum of Mulliken charges =  -0.00000

 Dipole moment (field-independent basis, Debye):
    X=              0.0086    Y=             -0.0145    Z=             -0.0054  Tot=              0.0177
 Quadrupole moment (field-independent basis, Debye-Ang):
   XX=            -84.2865   YY=            -85.9104   ZZ=            -84.5340
   XY=             -0.8030   XZ=             -0.0105   YZ=             -1.0958

 Normal termination of Gaussian 16 at Thu May  6 05:29:37 2021.
