 Gaussian 16, Revision A.03,
 Gaussian 16:  EM64L-G16RevA.03 25-Dec-2016

 -------------
 #p 6-31g* mp2
 -------------

 ------------------------------------------------------
 Input file generated by CHIRIPA (05-May-2021 14:53:16)
 ------------------------------------------------------
 Symbolic Z-matrix:
 Charge =  0 Multiplicity = 1

                         Standard orientation:
 ---------------------------------------------------------------------
 Center     Atomic      Atomic             Coordinates (Angstroms)
 Number     Number       Type             X           Y           Z
 ---------------------------------------------------------------------
      1          6           0       -4.378102   -0.164821   -0.178125
      2          6           0       -4.596523    1.330399   -0.411783
      3          6           0       -5.947355    1.636392   -1.059407
      4          1           0       -4.454708   -0.694429   -1.137599
      5          1           0       -5.186584   -0.551422    0.457715
      6          1           0       -3.787111    1.714352   -1.045855
      7          1           0       -4.519199    1.856533    0.548332
      8          1           0       -6.767170    1.280469   -0.427091
      9          1           0       -6.030923    1.137480   -2.030336
     10          1           0       -6.082634    2.710919   -1.217364
     11          6           0       -3.032079   -0.486633    0.468702
     12          6           0       -2.813658   -1.981853    0.702360
     13          6           0       -1.462826   -2.287846    1.349984
     14          1           0       -2.223597   -0.100032   -0.167138
     15          1           0       -2.955473    0.042975    1.428177
     16          1           0       -2.890982   -2.507987   -0.257755
     17          1           0       -3.623070   -2.365806    1.336432
     18          1           0       -1.379258   -1.788934    2.320914
     19          1           0       -0.643011   -1.931923    0.717669
     20          1           0       -1.327547   -3.362373    1.507941
     21          6           0        2.780619    2.638988    0.703209
     22          6           0        4.004116    2.095656    0.297787
     23          6           0        4.079082    0.775604   -0.156515
     24          6           0        2.905622    0.023948   -0.192464
     25          6           0        1.671715    0.536811    0.204696
     26          6           0        1.620369    1.859206    0.655454
     27          1           0        2.731558    3.665346    1.054746
     28          1           0        4.906798    2.698908    0.333799
     29          1           0        5.013119    0.329852   -0.476356
     30          1           0        0.788907   -0.089159    0.157463
     31          1           0        0.668806    2.278532    0.969684
     32          7           0        2.972482   -1.374772   -0.671538
     33          8           0        1.924283   -2.016198   -0.693638
     34          8           0        4.071820   -1.803178   -1.015863
 ---------------------------------------------------------------------

 SCF Done:  E(RHF) =  -669.535724539     A.U. after   15 cycles
 E2 =    -0.2091883135D+01 EUMP2 =    -0.67162760767369D+03

 The electronic state is 1-A.
 Alpha  occ. eigenvalues --  -20.60830 -20.60825 -15.85870 -11.31190 -11.27760
 Alpha  occ. eigenvalues --  -11.27735 -11.27498 -11.26771 -11.26749 -11.21855
 Alpha  occ. eigenvalues --  -11.21653 -11.21542 -11.21499 -11.21260 -11.20776
 Alpha  occ. eigenvalues --   -1.59897  -1.39454  -1.19362  -1.08767  -1.08574
 Alpha  occ. eigenvalues --   -1.04759  -1.03587  -0.96030  -0.95607  -0.87044
 Alpha  occ. eigenvalues --   -0.86162  -0.82441  -0.79663  -0.78428  -0.77488
 Alpha  occ. eigenvalues --   -0.72097  -0.71212  -0.70481  -0.65213  -0.65017
 Alpha  occ. eigenvalues --   -0.64762  -0.62142  -0.60948  -0.59411  -0.57650
 Alpha  occ. eigenvalues --   -0.55341  -0.55235  -0.53092  -0.52892  -0.52676
 Alpha  occ. eigenvalues --   -0.52432  -0.49986  -0.48846  -0.48839  -0.47952
 Alpha  occ. eigenvalues --   -0.46674  -0.45937  -0.45865  -0.44855  -0.43860
 Alpha  occ. eigenvalues --   -0.37345  -0.36358
 Alpha virt. eigenvalues --    0.05026   0.11282   0.16530   0.20107   0.22879
 Alpha virt. eigenvalues --    0.23784   0.25618   0.26849   0.27458   0.28050
 Alpha virt. eigenvalues --    0.29488   0.30382   0.31526   0.31771   0.32080

 Mulliken charges:
               1
     1  C   -0.298015
     2  C   -0.299716
     3  C   -0.475728
     4  H    0.152588
     5  H    0.151069
     6  H    0.149974
     7  H    0.149659
     8  H    0.156010
     9  H    0.156754
    10  H    0.159695
    11  C   -0.299574
    12  C   -0.299641
    13  C   -0.488998
    14  H    0.143258
    15  H    0.145932
    16  H    0.156607
    17  H    0.151566
    18  H    0.148608
    19  H    0.172320
    20  H    0.166809
    21  C   -0.170323
    22  C   -0.219096
    23  C   -0.169888
    24  C    0.155285
    25  C   -0.174027
    26  C   -0.222970
    27  H    0.225669
    28  H    0.223421
    29  H    0.275536
    30  H    0.287351
    31  H    0.225008
    32  N    0.489637
    33  O   -0.465152
    34  O   -0.459629
 Sum of Mulliken charges =  -0.00000

 Dipole moment (field-independent basis, Debye):
    X=             -0.2279    Y=              4.8109    Z=              1.6396  Tot=              5.0878
 Quadrupole moment (field-independent basis, Debye-Ang):
   XX=            -91.7278   YY=            -94.8749   ZZ=            -95.6416
   XY=             15.5889   XZ=              3.5134   YZ=             -0.6419

 Normal termination of Gaussian 16 at Thu May  6 02:44:18 2021.
