 Gaussian 16, Revision A.03,
 Gaussian 16:  EM64L-G16RevA.03 25-Dec-2016

 -------------
 #p 6-31g* mp2
 -------------

 ------------------------------------------------------
 Input file generated by CHIRIPA (05-May-2021 14:51:09)
 ------------------------------------------------------
 Symbolic Z-matrix:
 Charge =  0 Multiplicity = 1

                         Standard orientation:
 ---------------------------------------------------------------------
 Center     Atomic      Atomic             Coordinates (Angstroms)
 Number     Number       Type             X           Y           Z
 ---------------------------------------------------------------------
      1          6           0       -3.385851    1.121819   -0.306676
      2          6           0       -2.446604    1.975943    0.545539
      3          6           0       -2.120247    3.321842   -0.102413
      4          1           0       -2.927512    0.954930   -1.291063
      5          1           0       -4.315958    1.678927   -0.485354
      6          1           0       -1.519096    1.416837    0.723716
      7          1           0       -2.907147    2.140657    1.528079
      8          1           0       -3.033903    3.902629   -0.265259
      9          1           0       -1.637966    3.174697   -1.074192
     10          1           0       -1.447492    3.916206    0.523679
     11          6           0       -3.721413   -0.226734    0.327778
     12          6           0       -4.660661   -1.080858   -0.524437
     13          6           0       -4.987017   -2.426757    0.123515
     14          1           0       -2.791306   -0.783842    0.506456
     15          1           0       -4.179753   -0.059845    1.312165
     16          1           0       -4.200117   -1.245572   -1.506977
     17          1           0       -5.588168   -0.521752   -0.702614
     18          1           0       -5.469298   -2.279612    1.095294
     19          1           0       -4.073361   -3.007544    0.286361
     20          1           0       -5.659772   -3.021121   -0.502577
     21          6           0        4.118988    0.051384   -0.132525
     22          6           0        5.508206   -0.529544    0.133144
     23          6           0        6.628778    0.480608   -0.115265
     24          1           0        4.069908    0.407702   -1.170587
     25          1           0        3.968803    0.931786    0.507576
     26          1           0        5.655191   -1.409408   -0.506270
     27          1           0        5.553923   -0.884695    1.170638
     28          1           0        6.509918    1.354936    0.532827
     29          1           0        6.611762    0.827241   -1.153608
     30          1           0        7.613243    0.044383    0.080683
     31          6           0        2.988277   -0.946468    0.111424
     32          6           0        1.599058   -0.365541   -0.154247
     33          6           0        0.478486   -1.375693    0.094163
     34          1           0        3.138460   -1.826871   -0.528679
     35          1           0        3.037356   -1.302787    1.149486
     36          1           0        1.553342   -0.010390   -1.191741
     37          1           0        1.452074    0.514323    0.485168
     38          1           0        0.495501   -1.722327    1.132506
     39          1           0        0.597346   -2.250021   -0.553930
     40          1           0       -0.505979   -0.939467   -0.101786
 ---------------------------------------------------------------------

 SCF Done:  E(RHF) =  -470.733124575     A.U. after   11 cycles
 E2 =    -0.1583208203D+01 EUMP2 =    -0.47231633277845D+03

 The electronic state is 1-A.
 Alpha  occ. eigenvalues --  -11.21672 -11.21624 -11.21584 -11.21574 -11.21445
 Alpha  occ. eigenvalues --  -11.21385 -11.21383 -11.21314 -11.21138 -11.21088
 Alpha  occ. eigenvalues --  -11.21057 -11.21036  -1.08477  -1.08412  -1.03580
 Alpha  occ. eigenvalues --   -1.03505  -0.96037  -0.95952  -0.87050  -0.86972
 Alpha  occ. eigenvalues --   -0.79651  -0.79564  -0.78282  -0.78230  -0.65129
 Alpha  occ. eigenvalues --   -0.65069  -0.60993  -0.60889  -0.59416  -0.59311
 Alpha  occ. eigenvalues --   -0.57657  -0.57553  -0.55311  -0.55259  -0.52775
 Alpha  occ. eigenvalues --   -0.52633  -0.52451  -0.52366  -0.49967  -0.49898
 Alpha  occ. eigenvalues --   -0.47970  -0.47888  -0.46698  -0.46582  -0.45826
 Alpha  occ. eigenvalues --   -0.45765  -0.45747  -0.45673  -0.43796  -0.43732
 Alpha virt. eigenvalues --    0.20372   0.23021   0.23829   0.24793   0.26163
 Alpha virt. eigenvalues --    0.26533   0.27234   0.27279   0.27895   0.29059
 Alpha virt. eigenvalues --    0.30515   0.31349   0.31673   0.31891   0.32259

 Mulliken charges:
               1
     1  C   -0.298285
     2  C   -0.304280
     3  C   -0.475342
     4  H    0.149274
     5  H    0.149803
     6  H    0.156056
     7  H    0.151961
     8  H    0.155092
     9  H    0.155332
    10  H    0.160038
    11  C   -0.305322
    12  C   -0.299171
    13  C   -0.475894
    14  H    0.155656
    15  H    0.149811
    16  H    0.151753
    17  H    0.151808
    18  H    0.155049
    19  H    0.155832
    20  H    0.160078
    21  C   -0.298308
    22  C   -0.299682
    23  C   -0.475732
    24  H    0.149711
    25  H    0.149705
    26  H    0.151957
    27  H    0.152016
    28  H    0.155262
    29  H    0.155220
    30  H    0.160336
    31  C   -0.298651
    32  C   -0.300319
    33  C   -0.484521
    34  H    0.149706
    35  H    0.149879
    36  H    0.151931
    37  H    0.153024
    38  H    0.155677
    39  H    0.155495
    40  H    0.168044
 Sum of Mulliken charges =  -0.00000

 Dipole moment (field-independent basis, Debye):
    X=              0.0267    Y=             -0.0092    Z=              0.0056  Tot=              0.0288
 Quadrupole moment (field-independent basis, Debye-Ang):
   XX=            -85.1149   YY=            -85.9338   ZZ=            -83.7278
   XY=             -1.2407   XZ=             -0.2172   YZ=              0.9283

 Normal termination of Gaussian 16 at Thu May  6 03:45:13 2021.
