 Gaussian 16, Revision A.03,
 Gaussian 16:  EM64L-G16RevA.03 25-Dec-2016

 -------------
 #p 6-31g* mp2
 -------------

 ------------------------------------------------------
 Input file generated by CHIRIPA (05-May-2021 14:53:12)
 ------------------------------------------------------
 Symbolic Z-matrix:
 Charge =  0 Multiplicity = 1

                         Standard orientation:
 ---------------------------------------------------------------------
 Center     Atomic      Atomic             Coordinates (Angstroms)
 Number     Number       Type             X           Y           Z
 ---------------------------------------------------------------------
      1          6           0       -2.784020    0.667384   -0.360673
      2          6           0       -3.448043    2.007678   -0.677963
      3          6           0       -2.527794    2.955880   -1.447280
      4          1           0       -1.870254    0.846997    0.222179
      5          1           0       -2.467624    0.191568   -1.299230
      6          1           0       -3.764332    2.480187    0.260820
      7          1           0       -4.360436    1.824841   -1.259963
      8          1           0       -2.222000    2.508485   -2.398557
      9          1           0       -1.622509    3.167555   -0.869133
     10          1           0       -3.022525    3.907881   -1.663601
     11          6           0       -3.691487   -0.291325    0.408162
     12          6           0       -3.027464   -1.631618    0.725451
     13          6           0       -3.947713   -2.579821    1.494768
     14          1           0       -4.007882    0.184491    1.346718
     15          1           0       -4.605253   -0.470938   -0.174691
     16          1           0       -2.115070   -1.448782    1.307452
     17          1           0       -2.711175   -2.104127   -0.213332
     18          1           0       -4.852998   -2.791495    0.916621
     19          1           0       -4.253507   -2.132426    2.446046
     20          1           0       -3.452982   -3.531822    1.711090
     21          6           0        3.185173    1.384510    1.876391
     22          6           0        4.172593    0.752133    1.113749
     23          6           0        3.820879   -0.098453    0.061444
     24          6           0        2.466106   -0.294949   -0.201747
     25          6           0        1.459042    0.320668    0.539960
     26          6           0        1.833931    1.167142    1.587571
     27          1           0        3.467394    2.043669    2.692023
     28          1           0        5.222773    0.919088    1.335778
     29          1           0        4.564774   -0.600755   -0.544966
     30          1           0        0.420454    0.134677    0.294687
     31          1           0        1.064934    1.656918    2.178170
     32          7           0        2.081495   -1.193250   -1.313289
     33          8           0        0.880947   -1.349847   -1.524945
     34          8           0        2.987868   -1.723732   -1.951815
 ---------------------------------------------------------------------

 SCF Done:  E(RHF) =  -669.535631732     A.U. after   15 cycles
 E2 =    -0.2091873472D+01 EUMP2 =    -0.67162750520391D+03

 The electronic state is 1-A.
 Alpha  occ. eigenvalues --  -20.60750 -20.60744 -15.85799 -11.31148 -11.27732
 Alpha  occ. eigenvalues --  -11.27684 -11.27482 -11.26748 -11.26737 -11.21697
 Alpha  occ. eigenvalues --  -11.21504 -11.21445 -11.21357 -11.21150 -11.20934
 Alpha  occ. eigenvalues --   -1.59822  -1.39374  -1.19329  -1.08729  -1.08453
 Alpha  occ. eigenvalues --   -1.04733  -1.03509  -0.95977  -0.95563  -0.86989
 Alpha  occ. eigenvalues --   -0.86132  -0.82398  -0.79570  -0.78292  -0.77418
 Alpha  occ. eigenvalues --   -0.72019  -0.71143  -0.70446  -0.65130  -0.64975
 Alpha  occ. eigenvalues --   -0.64721  -0.62085  -0.60906  -0.59337  -0.57575
 Alpha  occ. eigenvalues --   -0.55316  -0.55201  -0.53063  -0.52863  -0.52638
 Alpha  occ. eigenvalues --   -0.52375  -0.49920  -0.48779  -0.48772  -0.47883
 Alpha  occ. eigenvalues --   -0.46610  -0.45822  -0.45668  -0.44782  -0.43784
 Alpha  occ. eigenvalues --   -0.37316  -0.36335
 Alpha virt. eigenvalues --    0.05080   0.11304   0.16570   0.19965   0.23058
 Alpha virt. eigenvalues --    0.24293   0.24725   0.26963   0.27796   0.27972
 Alpha virt. eigenvalues --    0.29810   0.31060   0.31525   0.31784   0.32048

 Mulliken charges:
               1
     1  C   -0.301297
     2  C   -0.299396
     3  C   -0.475527
     4  H    0.135016
     5  H    0.164647
     6  H    0.149200
     7  H    0.154618
     8  H    0.160755
     9  H    0.149752
    10  H    0.160345
    11  C   -0.298520
    12  C   -0.300529
    13  C   -0.475969
    14  H    0.146094
    15  H    0.151917
    16  H    0.145243
    17  H    0.164512
    18  H    0.155980
    19  H    0.152305
    20  H    0.162057
    21  C   -0.170511
    22  C   -0.219137
    23  C   -0.169984
    24  C    0.158387
    25  C   -0.181612
    26  C   -0.222101
    27  H    0.225455
    28  H    0.223351
    29  H    0.275471
    30  H    0.290780
    31  H    0.222567
    32  N    0.487237
    33  O   -0.460497
    34  O   -0.460610
 Sum of Mulliken charges =  -0.00000

 Dipole moment (field-independent basis, Debye):
    X=              1.2682    Y=              3.0587    Z=              3.7413  Tot=              4.9961
 Quadrupole moment (field-independent basis, Debye-Ang):
   XX=            -83.3122   YY=            -97.7485   ZZ=            -96.3533
   XY=              6.5172   XZ=              9.5782   YZ=             -0.7363

 Normal termination of Gaussian 16 at Thu May  6 07:20:09 2021.
