 Gaussian 16, Revision A.03,
 Gaussian 16:  EM64L-G16RevA.03 25-Dec-2016

 -------------
 #p 6-31g* mp2
 -------------

 ------------------------------------------------------
 Input file generated by CHIRIPA (05-May-2021 14:57:22)
 ------------------------------------------------------
 Symbolic Z-matrix:
 Charge =  0 Multiplicity = 1

                         Standard orientation:
 ---------------------------------------------------------------------
 Center     Atomic      Atomic             Coordinates (Angstroms)
 Number     Number       Type             X           Y           Z
 ---------------------------------------------------------------------
      1          6           0        4.671278    2.116231    0.648397
      2          6           0        5.213201    1.291249   -0.342687
      3          6           0        4.580868    0.095142   -0.694868
      4          6           0        3.402808   -0.246715   -0.032601
      5          6           0        2.838124    0.554045    0.958967
      6          6           0        3.487557    1.745649    1.294921
      7          1           0        5.169131    3.043646    0.915677
      8          1           0        6.132373    1.576517   -0.846462
      9          1           0        4.978565   -0.562228   -1.458491
     10          1           0        1.920570    0.243008    1.443496
     11          1           0        3.064404    2.384380    2.064991
     12          7           0        2.724334   -1.510596   -0.396850
     13          8           0        1.687540   -1.789259    0.201516
     14          8           0        3.242187   -2.198632   -1.273818
     15          6           0       -4.551813    2.253106   -0.648159
     16          6           0       -5.335414    1.252296   -0.064317
     17          6           0       -4.771341    0.021339    0.283697
     18          6           0       -3.414357   -0.175696    0.032578
     19          6           0       -2.607396    0.801732   -0.547715
     20          6           0       -3.192701    2.025031   -0.887572
     21          1           0       -4.998245    3.206369   -0.915336
     22          1           0       -6.391183    1.426628    0.122778
     23          1           0       -5.354825   -0.770841    0.736924
     24          1           0       -1.557748    0.598514   -0.721956
     25          1           0       -2.581720    2.800451   -1.340860
     26          7           0       -2.805960   -1.474803    0.396687
     27          8           0       -1.608096   -1.623541    0.165096
     28          8           0       -3.538483   -2.319705    0.906773
 ---------------------------------------------------------------------

 SCF Done:  E(RHF) =  -868.335125965     A.U. after   16 cycles
 E2 =    -0.2600503914D+01 EUMP2 =    -0.87093562987941D+03

 The electronic state is 1-A.
 Alpha  occ. eigenvalues --  -20.60123 -20.60078 -20.60012 -20.59990 -15.85116
 Alpha  occ. eigenvalues --  -15.85086 -11.30851 -11.30805 -11.27464 -11.27443
 Alpha  occ. eigenvalues --  -11.27415 -11.27411 -11.27275 -11.27227 -11.26561
 Alpha  occ. eigenvalues --  -11.26549 -11.26518 -11.26497  -1.59150  -1.59120
 Alpha  occ. eigenvalues --   -1.38692  -1.38652  -1.19061  -1.19014  -1.08391
 Alpha  occ. eigenvalues --   -1.08345  -1.04512  -1.04467  -0.95172  -0.95101
 Alpha  occ. eigenvalues --   -0.85891  -0.85847  -0.82024  -0.81890  -0.77013
 Alpha  occ. eigenvalues --   -0.76885  -0.71476  -0.71103  -0.70494  -0.70470
 Alpha  occ. eigenvalues --   -0.70159  -0.70107  -0.64707  -0.64635  -0.64515
 Alpha  occ. eigenvalues --   -0.64473  -0.61849  -0.61806  -0.55003  -0.54959
 Alpha  occ. eigenvalues --   -0.52834  -0.52781  -0.52604  -0.52561  -0.48173
 Alpha  occ. eigenvalues --   -0.48094  -0.48045  -0.47999  -0.44018  -0.43967
 Alpha  occ. eigenvalues --   -0.37068  -0.37016  -0.36141  -0.36090
 Alpha virt. eigenvalues --    0.05544   0.05610   0.11503   0.11561   0.16971
 Alpha virt. eigenvalues --    0.17036   0.21508   0.21756   0.27320   0.27630
 Alpha virt. eigenvalues --    0.28292   0.28822   0.30875   0.31385   0.32407

 Mulliken charges:
               1
     1  C   -0.172191
     2  C   -0.218689
     3  C   -0.171765
     4  C    0.158153
     5  C   -0.174640
     6  C   -0.219306
     7  H    0.223634
     8  H    0.222114
     9  H    0.275533
    10  H    0.279252
    11  H    0.221411
    12  N    0.486390
    13  O   -0.445101
    14  O   -0.464494
    15  C   -0.171929
    16  C   -0.218532
    17  C   -0.171455
    18  C    0.158720
    19  C   -0.172839
    20  C   -0.218807
    21  H    0.223556
    22  H    0.222139
    23  H    0.275570
    24  H    0.276769
    25  H    0.220713
    26  N    0.487226
    27  O   -0.447224
    28  O   -0.464206
 Sum of Mulliken charges =  -0.00000

 Dipole moment (field-independent basis, Debye):
    X=              0.2464    Y=              8.7704    Z=              0.0362  Tot=              8.7739
 Quadrupole moment (field-independent basis, Debye-Ang):
   XX=            -69.5150   YY=           -109.4176   ZZ=           -103.4948
   XY=              0.1443   XZ=              4.2125   YZ=             -0.0457

 Normal termination of Gaussian 16 at Fri May  7 04:51:59 2021.
