 Gaussian 16, Revision A.03,
 Gaussian 16:  EM64L-G16RevA.03 25-Dec-2016

 -------------
 #p 6-31g* mp2
 -------------

 ------------------------------------------------------
 Input file generated by CHIRIPA (05-May-2021 14:51:08)
 ------------------------------------------------------
 Symbolic Z-matrix:
 Charge =  0 Multiplicity = 1

                         Standard orientation:
 ---------------------------------------------------------------------
 Center     Atomic      Atomic             Coordinates (Angstroms)
 Number     Number       Type             X           Y           Z
 ---------------------------------------------------------------------
      1          6           0        3.206414    0.764113   -0.447533
      2          6           0        2.069067    1.742043   -0.744317
      3          6           0        2.534260    3.198230   -0.774424
      4          1           0        3.663141    1.024641    0.517076
      5          1           0        3.991114    0.883690   -1.207363
      6          1           0        1.286122    1.619690    0.015053
      7          1           0        1.614870    1.479039   -1.708241
      8          1           0        3.299416    3.342376   -1.544073
      9          1           0        2.968801    3.483826    0.189013
     10          1           0        1.705327    3.880156   -0.988214
     11          6           0        2.757057   -0.695576   -0.414119
     12          6           0        3.894404   -1.673506   -0.117335
     13          6           0        3.429211   -3.129694   -0.087229
     14          1           0        1.972357   -0.815153    0.345710
     15          1           0        2.300330   -0.956104   -1.378728
     16          1           0        4.348601   -1.410502    0.846589
     17          1           0        4.677349   -1.551153   -0.876705
     18          1           0        2.994670   -3.415289   -1.050665
     19          1           0        2.664055   -3.273839    0.682420
     20          1           0        4.258145   -3.811619    0.126562
     21          6           0       -2.526240   -0.247907    1.005557
     22          6           0       -1.577191    0.857303    1.470099
     23          6           0       -0.672370    0.414687    2.620396
     24          1           0       -3.142816   -0.573765    1.854437
     25          1           0       -1.936444   -1.121175    0.694208
     26          1           0       -2.168550    1.728728    1.779175
     27          1           0       -0.962936    1.180700    0.619969
     28          1           0       -0.057718   -0.440070    2.320074
     29          1           0       -1.270182    0.111071    3.485867
     30          1           0       -0.002142    1.220043    2.936715
     31          6           0       -3.437231    0.179370   -0.143904
     32          6           0       -4.386280   -0.925840   -0.608447
     33          6           0       -5.291101   -0.483224   -1.758744
     34          1           0       -4.027027    1.052638    0.167445
     35          1           0       -2.820655    0.505228   -0.992784
     36          1           0       -5.000535   -1.249237    0.241683
     37          1           0       -3.794920   -1.797265   -0.917524
     38          1           0       -4.693289   -0.179608   -2.624215
     39          1           0       -5.905754    0.371534   -1.458421
     40          1           0       -5.961330   -1.288579   -2.075063
 ---------------------------------------------------------------------

 SCF Done:  E(RHF) =  -470.733259122     A.U. after   11 cycles
 E2 =    -0.1583391199D+01 EUMP2 =    -0.47231665032047D+03

 The electronic state is 1-A.
 Alpha  occ. eigenvalues --  -11.21623 -11.21601 -11.21596 -11.21595 -11.21429
 Alpha  occ. eigenvalues --  -11.21402 -11.21368 -11.21342 -11.21140 -11.21096
 Alpha  occ. eigenvalues --  -11.21082 -11.21067  -1.08465  -1.08420  -1.03572
 Alpha  occ. eigenvalues --   -1.03523  -0.96000  -0.95996  -0.87022  -0.87005
 Alpha  occ. eigenvalues --   -0.79690  -0.79540  -0.78309  -0.78207  -0.65214
 Alpha  occ. eigenvalues --   -0.64950  -0.61074  -0.60834  -0.59419  -0.59309
 Alpha  occ. eigenvalues --   -0.57657  -0.57560  -0.55325  -0.55251  -0.52700
 Alpha  occ. eigenvalues --   -0.52684  -0.52440  -0.52408  -0.50022  -0.49869
 Alpha  occ. eigenvalues --   -0.48063  -0.47865  -0.46866  -0.46425  -0.45973
 Alpha  occ. eigenvalues --   -0.45774  -0.45709  -0.45441  -0.43805  -0.43790
 Alpha virt. eigenvalues --    0.20141   0.23266   0.23707   0.24150   0.26093
 Alpha virt. eigenvalues --    0.26633   0.27095   0.27637   0.28096   0.29282
 Alpha virt. eigenvalues --    0.30147   0.31575   0.31707   0.31915   0.32112

 Mulliken charges:
               1
     1  C   -0.297190
     2  C   -0.309329
     3  C   -0.475202
     4  H    0.149831
     5  H    0.149596
     6  H    0.161877
     7  H    0.151058
     8  H    0.155232
     9  H    0.155141
    10  H    0.160315
    11  C   -0.301922
    12  C   -0.299563
    13  C   -0.475702
    14  H    0.152240
    15  H    0.149277
    16  H    0.152273
    17  H    0.152108
    18  H    0.155066
    19  H    0.154895
    20  H    0.160487
    21  C   -0.297776
    22  C   -0.306899
    23  C   -0.478328
    24  H    0.149497
    25  H    0.149772
    26  H    0.152095
    27  H    0.158607
    28  H    0.156529
    29  H    0.155822
    30  H    0.160008
    31  C   -0.298494
    32  C   -0.299702
    33  C   -0.475712
    34  H    0.149441
    35  H    0.150124
    36  H    0.151886
    37  H    0.152075
    38  H    0.155174
    39  H    0.155148
    40  H    0.160242
 Sum of Mulliken charges =  -0.00000

 Dipole moment (field-independent basis, Debye):
    X=              0.0012    Y=              0.0058    Z=              0.0031  Tot=              0.0067
 Quadrupole moment (field-independent basis, Debye-Ang):
   XX=            -84.8034   YY=            -85.9255   ZZ=            -84.0225
   XY=             -0.3254   XZ=             -1.2418   YZ=              0.5124

 Normal termination of Gaussian 16 at Wed May  5 19:41:46 2021.
