 Gaussian 16, Revision A.03,
 Gaussian 16:  EM64L-G16RevA.03 25-Dec-2016

 -------------
 #p 6-31g* mp2
 -------------

 ------------------------------------------------------
 Input file generated by CHIRIPA (05-May-2021 14:55:24)
 ------------------------------------------------------
 Symbolic Z-matrix:
 Charge =  0 Multiplicity = 1

                         Standard orientation:
 ---------------------------------------------------------------------
 Center     Atomic      Atomic             Coordinates (Angstroms)
 Number     Number       Type             X           Y           Z
 ---------------------------------------------------------------------
      1          6           0        3.106240   -2.448113    0.865552
      2          6           0        3.957183   -1.354577    1.056849
      3          6           0        3.666493   -0.118035    0.472886
      4          6           0        2.511248   -0.010031   -0.299794
      5          6           0        1.643715   -1.080977   -0.508963
      6          6           0        1.954252   -2.308070    0.084634
      7          1           0        3.339764   -3.405018    1.322931
      8          1           0        4.852525   -1.460420    1.662824
      9          1           0        4.307867    0.744931    0.604590
     10          1           0        0.758495   -0.944744   -1.118262
     11          1           0        1.291575   -3.155607   -0.065648
     12          7           0        2.193002    1.294038   -0.923109
     13          8           0        1.169065    1.363252   -1.599423
     14          8           0        2.973523    2.222262   -0.723547
     15          6           0       -3.120960    0.813854    0.782402
     16          6           0       -2.166570    1.901421    0.288113
     17          6           0       -1.854885    2.946210    1.360056
     18          1           0       -4.054825    1.281597    1.123075
     19          1           0       -2.680432    0.320257    1.659723
     20          1           0       -2.608145    2.391889   -0.588852
     21          1           0       -1.234942    1.431017   -0.051601
     22          1           0       -1.391394    2.475805    2.233266
     23          1           0       -2.772398    3.442137    1.692963
     24          1           0       -1.170953    3.714129    0.985360
     25          6           0       -3.442109   -0.237961   -0.277917
     26          6           0       -4.396499   -1.325528    0.216372
     27          6           0       -4.708184   -2.370318   -0.855572
     28          1           0       -3.882637    0.255635   -1.155239
     29          1           0       -2.508244   -0.705704   -0.618590
     30          1           0       -5.328127   -0.855125    0.556085
     31          1           0       -3.954925   -1.815997    1.093336
     32          1           0       -3.790671   -2.866245   -1.188478
     33          1           0       -5.171676   -1.899913   -1.728782
     34          1           0       -5.392117   -3.138237   -0.480877
 ---------------------------------------------------------------------

 SCF Done:  E(RHF) =  -669.536122777     A.U. after   15 cycles
 E2 =    -0.2091670558D+01 EUMP2 =    -0.67162779333522D+03

 The electronic state is 1-A.
 Alpha  occ. eigenvalues --  -20.60955 -20.60948 -15.85969 -11.31299 -11.27865
 Alpha  occ. eigenvalues --  -11.27857 -11.27597 -11.26872 -11.26862 -11.21567
 Alpha  occ. eigenvalues --  -11.21229 -11.21135 -11.20990 -11.20765 -11.20369
 Alpha  occ. eigenvalues --   -1.60006  -1.39563  -1.19468  -1.08870  -1.08123
 Alpha  occ. eigenvalues --   -1.04865  -1.03164  -0.95713  -0.95655  -0.86676
 Alpha  occ. eigenvalues --   -0.86265  -0.82546  -0.79254  -0.77891  -0.77578
 Alpha  occ. eigenvalues --   -0.72194  -0.71316  -0.70575  -0.65125  -0.64880
 Alpha  occ. eigenvalues --   -0.64759  -0.62213  -0.60572  -0.59037  -0.57221
 Alpha  occ. eigenvalues --   -0.55368  -0.54976  -0.53195  -0.52957  -0.52331
 Alpha  occ. eigenvalues --   -0.52070  -0.49637  -0.48969  -0.48952  -0.47564
 Alpha  occ. eigenvalues --   -0.46341  -0.45575  -0.45378  -0.44677  -0.43430
 Alpha  occ. eigenvalues --   -0.37445  -0.36466
 Alpha virt. eigenvalues --    0.04893   0.11150   0.16367   0.20590   0.22898
 Alpha virt. eigenvalues --    0.24641   0.25258   0.27331   0.27609   0.28205
 Alpha virt. eigenvalues --    0.29247   0.30993   0.31700   0.31938   0.32524

 Mulliken charges:
               1
     1  C   -0.170596
     2  C   -0.218515
     3  C   -0.170725
     4  C    0.158616
     5  C   -0.173118
     6  C   -0.218659
     7  H    0.226073
     8  H    0.223906
     9  H    0.275897
    10  H    0.277347
    11  H    0.223912
    12  N    0.487903
    13  O   -0.458412
    14  O   -0.458600
    15  C   -0.298574
    16  C   -0.304901
    17  C   -0.476965
    18  H    0.148362
    19  H    0.145121
    20  H    0.153826
    21  H    0.164461
    22  H    0.149890
    23  H    0.151553
    24  H    0.167783
    25  C   -0.295579
    26  C   -0.299431
    27  C   -0.474577
    28  H    0.152490
    29  H    0.142212
    30  H    0.153203
    31  H    0.149067
    32  H    0.150431
    33  H    0.157059
    34  H    0.159540
 Sum of Mulliken charges =  -0.00000

 Dipole moment (field-independent basis, Debye):
    X=              1.2851    Y=             -4.4933    Z=              2.1094  Tot=              5.1275
 Quadrupole moment (field-independent basis, Debye-Ang):
   XX=            -85.4484   YY=            -94.7201   ZZ=            -96.5065
   XY=            -10.6943   XZ=              7.5454   YZ=              1.2280

 Normal termination of Gaussian 16 at Thu May  6 16:01:52 2021.
