 Gaussian 16, Revision A.03,
 Gaussian 16:  EM64L-G16RevA.03 25-Dec-2016

 -------------
 #p 6-31g* mp2
 -------------

 ------------------------------------------------------
 Input file generated by CHIRIPA (05-May-2021 14:51:10)
 ------------------------------------------------------
 Symbolic Z-matrix:
 Charge =  0 Multiplicity = 1

                         Standard orientation:
 ---------------------------------------------------------------------
 Center     Atomic      Atomic             Coordinates (Angstroms)
 Number     Number       Type             X           Y           Z
 ---------------------------------------------------------------------
      1          6           0        2.776121   -0.524154    0.281113
      2          6           0        2.243300   -1.034548    1.620361
      3          6           0        1.133016   -2.073117    1.457760
      4          1           0        1.947281   -0.089860   -0.294525
      5          1           0        3.151394   -1.374826   -0.304482
      6          1           0        1.870409   -0.182997    2.203824
      7          1           0        3.073539   -1.467505    2.192958
      8          1           0        1.496193   -2.940814    0.897577
      9          1           0        0.286227   -1.649008    0.908505
     10          1           0        0.766733   -2.424397    2.427450
     11          6           0        3.886585    0.514724    0.427166
     12          6           0        4.419406    1.025118   -0.912082
     13          6           0        5.529690    2.063687   -0.749480
     14          1           0        3.511312    1.365395    1.012762
     15          1           0        4.715424    0.080430    1.002804
     16          1           0        3.589167    1.458074   -1.484678
     17          1           0        4.792297    0.173567   -1.495545
     18          1           0        6.376479    1.639578   -0.200225
     19          1           0        5.166513    2.931384   -0.189297
     20          1           0        5.895973    2.414967   -1.719170
     21          6           0       -3.829745    0.281070    0.154453
     22          6           0       -4.214104    1.738384   -0.103394
     23          6           0       -5.211831    2.276985    0.922397
     24          1           0       -4.737305   -0.337961    0.145402
     25          1           0       -3.402577    0.194774    1.163152
     26          1           0       -4.639145    1.822148   -1.111828
     27          1           0       -3.305502    2.353990   -0.093918
     28          1           0       -4.793118    2.222448    1.932499
     29          1           0       -6.134340    1.687584    0.908806
     30          1           0       -5.472786    3.320282    0.719190
     31          6           0       -2.832961   -0.271639   -0.862732
     32          6           0       -2.448602   -1.728954   -0.604885
     33          6           0       -1.450875   -2.267555   -1.630676
     34          1           0       -3.260128   -0.185345   -1.871431
     35          1           0       -1.925401    0.347391   -0.853681
     36          1           0       -3.357204   -2.344559   -0.614361
     37          1           0       -2.023561   -1.812717    0.403549
     38          1           0       -0.528366   -1.678154   -1.617085
     39          1           0       -1.869587   -2.213017   -2.640779
     40          1           0       -1.189920   -3.310851   -1.427468
 ---------------------------------------------------------------------

 SCF Done:  E(RHF) =  -470.732940094     A.U. after   11 cycles
 E2 =    -0.1583269260D+01 EUMP2 =    -0.47231620935364D+03

 The electronic state is 1-A.
 Alpha  occ. eigenvalues --  -11.21624 -11.21620 -11.21615 -11.21565 -11.21441
 Alpha  occ. eigenvalues --  -11.21417 -11.21380 -11.21357 -11.21085 -11.21081
 Alpha  occ. eigenvalues --  -11.21042 -11.21021  -1.08467  -1.08428  -1.03585
 Alpha  occ. eigenvalues --   -1.03493  -0.96040  -0.95935  -0.87027  -0.86979
 Alpha  occ. eigenvalues --   -0.79625  -0.79578  -0.78274  -0.78248  -0.65197
 Alpha  occ. eigenvalues --   -0.64993  -0.61189  -0.60740  -0.59363  -0.59343
 Alpha  occ. eigenvalues --   -0.57642  -0.57545  -0.55441  -0.55115  -0.52694
 Alpha  occ. eigenvalues --   -0.52663  -0.52397  -0.52388  -0.49973  -0.49899
 Alpha  occ. eigenvalues --   -0.48011  -0.47811  -0.46733  -0.46530  -0.45889
 Alpha  occ. eigenvalues --   -0.45759  -0.45717  -0.45626  -0.43806  -0.43779
 Alpha virt. eigenvalues --    0.20528   0.23147   0.23632   0.25050   0.25893
 Alpha virt. eigenvalues --    0.26600   0.26986   0.27664   0.28130   0.29275
 Alpha virt. eigenvalues --    0.30435   0.31060   0.31418   0.31888   0.32095

 Mulliken charges:
               1
     1  C   -0.299097
     2  C   -0.299606
     3  C   -0.483112
     4  H    0.149165
     5  H    0.150114
     6  H    0.151416
     7  H    0.152053
     8  H    0.155782
     9  H    0.164432
    10  H    0.159595
    11  C   -0.298301
    12  C   -0.299705
    13  C   -0.475729
    14  H    0.149443
    15  H    0.149930
    16  H    0.151908
    17  H    0.152125
    18  H    0.155231
    19  H    0.155160
    20  H    0.160378
    21  C   -0.298252
    22  C   -0.299604
    23  C   -0.475713
    24  H    0.149881
    25  H    0.149545
    26  H    0.152000
    27  H    0.151652
    28  H    0.155178
    29  H    0.155271
    30  H    0.160253
    31  C   -0.298482
    32  C   -0.305239
    33  C   -0.477105
    34  H    0.149917
    35  H    0.148316
    36  H    0.152650
    37  H    0.155947
    38  H    0.156448
    39  H    0.154984
    40  H    0.161169
 Sum of Mulliken charges =  -0.00000

 Dipole moment (field-independent basis, Debye):
    X=              0.0049    Y=             -0.0199    Z=             -0.0006  Tot=              0.0205
 Quadrupole moment (field-independent basis, Debye-Ang):
   XX=            -84.8056   YY=            -84.9570   ZZ=            -84.9297
   XY=             -0.5101   XZ=              0.9436   YZ=             -0.1190

 Normal termination of Gaussian 16 at Thu May  6 05:22:33 2021.
