 Gaussian 16, Revision A.03,
 Gaussian 16:  EM64L-G16RevA.03 25-Dec-2016

 -------------
 #p 6-31g* mp2
 -------------

 ------------------------------------------------------
 Input file generated by CHIRIPA (05-May-2021 14:53:15)
 ------------------------------------------------------
 Symbolic Z-matrix:
 Charge =  0 Multiplicity = 1

                         Standard orientation:
 ---------------------------------------------------------------------
 Center     Atomic      Atomic             Coordinates (Angstroms)
 Number     Number       Type             X           Y           Z
 ---------------------------------------------------------------------
      1          6           0        3.109334    0.964224   -0.331415
      2          6           0        1.650814    1.415582   -0.247871
      3          6           0        1.466853    2.890283   -0.607327
      4          1           0        3.717787    1.585427    0.340029
      5          1           0        3.483854    1.144114   -1.348651
      6          1           0        1.278741    1.233614    0.768527
      7          1           0        1.045732    0.793106   -0.919448
      8          1           0        1.811693    3.083877   -1.628213
      9          1           0        2.046025    3.526888    0.069353
     10          1           0        0.416798    3.191696   -0.541036
     11          6           0        3.309351   -0.507719    0.025105
     12          6           0        4.767871   -0.959077   -0.058440
     13          6           0        4.951832   -2.433779    0.301016
     14          1           0        2.934831   -0.687610    1.042341
     15          1           0        2.700898   -1.128922   -0.646339
     16          1           0        5.372953   -0.336602    0.613137
     17          1           0        5.139944   -0.777109   -1.074838
     18          1           0        4.372660   -3.070383   -0.375663
     19          1           0        4.606993   -2.627372    1.321903
     20          1           0        6.001887   -2.735191    0.234726
     21          6           0       -1.801960    2.149253    0.791078
     22          6           0       -2.198942    1.890385   -0.524944
     23          6           0       -2.591754    0.604544   -0.908165
     24          6           0       -2.575488   -0.403344    0.054742
     25          6           0       -2.185178   -0.176907    1.373709
     26          6           0       -1.796353    1.116602    1.734541
     27          1           0       -1.498362    3.151103    1.080078
     28          1           0       -2.204283    2.690416   -1.259768
     29          1           0       -2.903685    0.376359   -1.920118
     30          1           0       -2.190263   -0.994853    2.083888
     31          1           0       -1.488534    1.314731    2.757300
     32          7           0       -2.989230   -1.768664   -0.339107
     33          8           0       -2.966111   -2.639361    0.528066
     34          8           0       -3.328806   -1.942254   -1.507521
 ---------------------------------------------------------------------

 SCF Done:  E(RHF) =  -669.533778610     A.U. after   15 cycles
 E2 =    -0.2094298623D+01 EUMP2 =    -0.67162807723383D+03

 The electronic state is 1-A.
 Alpha  occ. eigenvalues --  -20.60795 -20.60790 -15.85851 -11.31225 -11.27816
 Alpha  occ. eigenvalues --  -11.27811 -11.27540 -11.26816 -11.26805 -11.21887
 Alpha  occ. eigenvalues --  -11.21703 -11.21637 -11.21627 -11.21514 -11.21095
 Alpha  occ. eigenvalues --   -1.59871  -1.39424  -1.19417  -1.08843  -1.08623
 Alpha  occ. eigenvalues --   -1.04824  -1.03775  -0.96271  -0.95627  -0.87279
 Alpha  occ. eigenvalues --   -0.86221  -0.82472  -0.79835  -0.78437  -0.77511
 Alpha  occ. eigenvalues --   -0.72071  -0.71195  -0.70557  -0.65282  -0.65080
 Alpha  occ. eigenvalues --   -0.64844  -0.62178  -0.61177  -0.59718  -0.57919
 Alpha  occ. eigenvalues --   -0.55559  -0.55314  -0.53299  -0.52920  -0.52799
 Alpha  occ. eigenvalues --   -0.52549  -0.50180  -0.48829  -0.48822  -0.48144
 Alpha  occ. eigenvalues --   -0.46869  -0.45971  -0.45907  -0.44828  -0.44040
 Alpha  occ. eigenvalues --   -0.37291  -0.36388
 Alpha virt. eigenvalues --    0.05010   0.11102   0.16460   0.20649   0.22821
 Alpha virt. eigenvalues --    0.24336   0.26342   0.26613   0.27252   0.27625
 Alpha virt. eigenvalues --    0.28685   0.30723   0.31188   0.31497   0.31791

 Mulliken charges:
               1
     1  C   -0.298949
     2  C   -0.298126
     3  C   -0.477393
     4  H    0.148100
     5  H    0.149899
     6  H    0.150291
     7  H    0.155394
     8  H    0.156866
     9  H    0.153608
    10  H    0.149823
    11  C   -0.298316
    12  C   -0.299821
    13  C   -0.475968
    14  H    0.148258
    15  H    0.152564
    16  H    0.150942
    17  H    0.152310
    18  H    0.157459
    19  H    0.155085
    20  H    0.160458
    21  C   -0.166781
    22  C   -0.216054
    23  C   -0.172178
    24  C    0.158596
    25  C   -0.170241
    26  C   -0.219419
    27  H    0.227060
    28  H    0.224131
    29  H    0.275830
    30  H    0.275838
    31  H    0.223517
    32  N    0.488060
    33  O   -0.460277
    34  O   -0.460564
 Sum of Mulliken charges =  -0.00000

 Dipole moment (field-independent basis, Debye):
    X=              1.4146    Y=              4.7195    Z=              1.3928  Tot=              5.1200
 Quadrupole moment (field-independent basis, Debye-Ang):
   XX=           -103.0564   YY=           -100.0795   ZZ=            -89.3842
   XY=            -13.3393   XZ=             -2.6410   YZ=             -1.4244

 Normal termination of Gaussian 16 at Thu May  6 10:34:37 2021.
