 Gaussian 16, Revision A.03,
 Gaussian 16:  EM64L-G16RevA.03 25-Dec-2016

 -------------
 #p 6-31g* mp2
 -------------

 ------------------------------------------------------
 Input file generated by CHIRIPA (05-May-2021 14:53:12)
 ------------------------------------------------------
 Symbolic Z-matrix:
 Charge =  0 Multiplicity = 1

                         Standard orientation:
 ---------------------------------------------------------------------
 Center     Atomic      Atomic             Coordinates (Angstroms)
 Number     Number       Type             X           Y           Z
 ---------------------------------------------------------------------
      1          6           0        3.767471   -0.263444    0.204466
      2          6           0        4.200047   -0.965927   -1.082926
      3          6           0        4.944313   -2.275482   -0.820385
      4          1           0        4.654053   -0.065470    0.822305
      5          1           0        3.126280   -0.940509    0.785716
      6          1           0        4.839105   -0.287231   -1.662229
      7          1           0        3.312354   -1.162080   -1.697858
      8          1           0        4.311063   -2.973471   -0.263243
      9          1           0        5.846489   -2.093651   -0.227412
     10          1           0        5.244292   -2.760959   -1.754293
     11          6           0        3.022202    1.047190   -0.041588
     12          6           0        2.589626    1.749674    1.245805
     13          6           0        1.845360    3.059229    0.983264
     14          1           0        3.663393    1.724255   -0.622838
     15          1           0        2.135621    0.849216   -0.659426
     16          1           0        3.477319    1.945826    1.860737
     17          1           0        1.950568    1.070977    1.825108
     18          1           0        0.943185    2.877397    0.390290
     19          1           0        2.478611    3.757217    0.426122
     20          1           0        1.545381    3.544706    1.917172
     21          6           0       -3.117256    1.991019   -0.997793
     22          6           0       -4.174099    1.108556   -0.751092
     23          6           0       -3.928178   -0.166701   -0.233607
     24          6           0       -2.607258   -0.528233    0.026688
     25          6           0       -1.532950    0.328436   -0.208412
     26          6           0       -1.802372    1.598834   -0.726145
     27          1           0       -3.317422    2.979782   -1.399884
     28          1           0       -5.196260    1.410430   -0.961099
     29          1           0       -4.727514   -0.869774   -0.033182
     30          1           0       -0.524603   -0.000957    0.011027
     31          1           0       -0.979640    2.282081   -0.916747
     32          7           0       -2.334472   -1.875719    0.574657
     33          8           0       -1.161796   -2.170193    0.795456
     34          8           0       -3.298505   -2.611888    0.772981
 ---------------------------------------------------------------------

 SCF Done:  E(RHF) =  -669.535471038     A.U. after   15 cycles
 E2 =    -0.2091907686D+01 EUMP2 =    -0.67162737872416D+03

 The electronic state is 1-A.
 Alpha  occ. eigenvalues --  -20.60802 -20.60795 -15.85854 -11.31205 -11.27775
 Alpha  occ. eigenvalues --  -11.27772 -11.27509 -11.26785 -11.26763 -11.22061
 Alpha  occ. eigenvalues --  -11.21830 -11.21799 -11.21601 -11.21455 -11.20925
 Alpha  occ. eigenvalues --   -1.59876  -1.39430  -1.19377  -1.08773  -1.08703
 Alpha  occ. eigenvalues --   -1.04782  -1.03787  -0.96256  -0.95611  -0.87274
 Alpha  occ. eigenvalues --   -0.86176  -0.82449  -0.79872  -0.78471  -0.77497
 Alpha  occ. eigenvalues --   -0.72074  -0.71198  -0.70488  -0.65366  -0.65023
 Alpha  occ. eigenvalues --   -0.64804  -0.62190  -0.61122  -0.59638  -0.57845
 Alpha  occ. eigenvalues --   -0.55589  -0.55270  -0.53109  -0.52982  -0.52918
 Alpha  occ. eigenvalues --   -0.52582  -0.50179  -0.48830  -0.48829  -0.48173
 Alpha  occ. eigenvalues --   -0.46908  -0.46028  -0.45895  -0.44839  -0.44034
 Alpha  occ. eigenvalues --   -0.37353  -0.36375
 Alpha virt. eigenvalues --    0.05028   0.11255   0.16467   0.18401   0.22719
 Alpha virt. eigenvalues --    0.23926   0.25473   0.25949   0.27356   0.28447
 Alpha virt. eigenvalues --    0.29481   0.30754   0.31422   0.31707   0.32482

 Mulliken charges:
               1
     1  C   -0.300874
     2  C   -0.299602
     3  C   -0.476782
     4  H    0.150595
     5  H    0.158035
     6  H    0.150105
     7  H    0.152714
     8  H    0.160646
     9  H    0.154432
    10  H    0.160378
    11  C   -0.299067
    12  C   -0.302973
    13  C   -0.477842
    14  H    0.150664
    15  H    0.140811
    16  H    0.156309
    17  H    0.156681
    18  H    0.143859
    19  H    0.157327
    20  H    0.164640
    21  C   -0.171127
    22  C   -0.218694
    23  C   -0.170452
    24  C    0.158925
    25  C   -0.176141
    26  C   -0.222994
    27  H    0.226214
    28  H    0.223556
    29  H    0.275638
    30  H    0.279178
    31  H    0.229163
    32  N    0.488050
    33  O   -0.461201
    34  O   -0.460171
 Sum of Mulliken charges =  -0.00000

 Dipole moment (field-independent basis, Debye):
    X=             -0.8526    Y=              4.6738    Z=             -1.8440  Tot=              5.0962
 Quadrupole moment (field-independent basis, Debye-Ang):
   XX=            -83.8223   YY=           -100.7981   ZZ=            -95.6291
   XY=            -10.0566   XZ=              5.4735   YZ=              1.2438

 Normal termination of Gaussian 16 at Thu May  6 02:31:35 2021.
