 Gaussian 16, Revision A.03,
 Gaussian 16:  EM64L-G16RevA.03 25-Dec-2016

 -------------
 #p 6-31g* mp2
 -------------

 ------------------------------------------------------
 Input file generated by CHIRIPA (05-May-2021 14:51:11)
 ------------------------------------------------------
 Symbolic Z-matrix:
 Charge =  0 Multiplicity = 1

                         Standard orientation:
 ---------------------------------------------------------------------
 Center     Atomic      Atomic             Coordinates (Angstroms)
 Number     Number       Type             X           Y           Z
 ---------------------------------------------------------------------
      1          6           0        2.991314   -0.990299    0.485766
      2          6           0        1.523365   -1.019878    0.058877
      3          6           0        0.652823   -1.860632    0.993267
      4          1           0        3.376784   -2.018421    0.522125
      5          1           0        3.060657   -0.594141    1.508334
      6          1           0        1.456935   -1.414568   -0.963093
      7          1           0        1.141398    0.008448    0.023346
      8          1           0        0.689362   -1.465186    2.013507
      9          1           0        1.006692   -2.896288    1.021463
     10          1           0       -0.392640   -1.868030    0.669521
     11          6           0        3.874279   -0.153781   -0.438538
     12          6           0        5.342229   -0.124202   -0.011649
     13          6           0        6.212770    0.716552   -0.946039
     14          1           0        3.804937   -0.549940   -1.461106
     15          1           0        3.488809    0.874341   -0.474896
     16          1           0        5.724195   -1.152528    0.023882
     17          1           0        5.408658    0.270488    1.010321
     18          1           0        5.858901    1.752208   -0.974235
     19          1           0        6.176231    0.321106   -1.966278
     20          1           0        7.258234    0.723949   -0.622293
     21          6           0       -3.042549    1.221774   -0.118405
     22          6           0       -1.784945    1.305562    0.747272
     23          6           0       -1.014961    2.611164    0.546470
     24          1           0       -2.760019    1.323688   -1.175163
     25          1           0       -3.696548    2.073676    0.113850
     26          1           0       -1.134146    0.452997    0.514442
     27          1           0       -2.070481    1.203243    1.802078
     28          1           0       -1.643502    3.471637    0.797711
     29          1           0       -0.701847    2.717128   -0.497241
     30          1           0       -0.119707    2.649984    1.174857
     31          6           0       -3.823045   -0.077694    0.071177
     32          6           0       -5.080648   -0.161482   -0.794500
     33          6           0       -5.850632   -1.467084   -0.593698
     34          1           0       -3.169046   -0.929595   -0.161078
     35          1           0       -4.105575   -0.179608    1.127934
     36          1           0       -4.795112   -0.059163   -1.849306
     37          1           0       -5.731448    0.691083   -0.561670
     38          1           0       -6.163746   -1.573048    0.450012
     39          1           0       -5.222091   -2.327557   -0.844940
     40          1           0       -6.745888   -1.505903   -1.222086
 ---------------------------------------------------------------------

 SCF Done:  E(RHF) =  -470.732550026     A.U. after   11 cycles
 E2 =    -0.1583841133D+01 EUMP2 =    -0.47231639115876D+03

 The electronic state is 1-A.
 Alpha  occ. eigenvalues --  -11.21615 -11.21609 -11.21602 -11.21503 -11.21420
 Alpha  occ. eigenvalues --  -11.21401 -11.21359 -11.21334 -11.21087 -11.21085
 Alpha  occ. eigenvalues --  -11.21075 -11.21069  -1.08469  -1.08400  -1.03605
 Alpha  occ. eigenvalues --   -1.03472  -0.96018  -0.95964  -0.87035  -0.86972
 Alpha  occ. eigenvalues --   -0.79630  -0.79574  -0.78302  -0.78199  -0.65212
 Alpha  occ. eigenvalues --   -0.64959  -0.61212  -0.60733  -0.59478  -0.59216
 Alpha  occ. eigenvalues --   -0.57667  -0.57525  -0.55346  -0.55199  -0.52754
 Alpha  occ. eigenvalues --   -0.52626  -0.52458  -0.52372  -0.49946  -0.49902
 Alpha  occ. eigenvalues --   -0.47933  -0.47885  -0.46784  -0.46490  -0.45859
 Alpha  occ. eigenvalues --   -0.45769  -0.45751  -0.45506  -0.43798  -0.43770
 Alpha virt. eigenvalues --    0.20966   0.22893   0.23726   0.24086   0.25910
 Alpha virt. eigenvalues --    0.26547   0.26883   0.27393   0.28311   0.29146
 Alpha virt. eigenvalues --    0.31196   0.31564   0.31707   0.31890   0.32275

 Mulliken charges:
               1
     1  C   -0.297572
     2  C   -0.306550
     3  C   -0.479523
     4  H    0.149724
     5  H    0.149559
     6  H    0.151610
     7  H    0.157771
     8  H    0.156384
     9  H    0.156300
    10  H    0.161563
    11  C   -0.298527
    12  C   -0.299664
    13  C   -0.475741
    14  H    0.149431
    15  H    0.150011
    16  H    0.151946
    17  H    0.151959
    18  H    0.155297
    19  H    0.155148
    20  H    0.160285
    21  C   -0.297457
    22  C   -0.311349
    23  C   -0.475800
    24  H    0.149332
    25  H    0.149280
    26  H    0.166260
    27  H    0.151396
    28  H    0.155377
    29  H    0.154984
    30  H    0.159169
    31  C   -0.299927
    32  C   -0.299639
    33  C   -0.475727
    34  H    0.149997
    35  H    0.149947
    36  H    0.151955
    37  H    0.152118
    38  H    0.155255
    39  H    0.155155
    40  H    0.160261
 Sum of Mulliken charges =  -0.00000

 Dipole moment (field-independent basis, Debye):
    X=              0.0120    Y=             -0.0114    Z=              0.0048  Tot=              0.0172
 Quadrupole moment (field-independent basis, Debye-Ang):
   XX=            -85.5122   YY=            -85.0995   ZZ=            -84.2304
   XY=             -1.3911   XZ=             -0.0511   YZ=              1.1583

 Normal termination of Gaussian 16 at Wed May  5 18:16:41 2021.
