 Gaussian 16, Revision A.03,
 Gaussian 16:  EM64L-G16RevA.03 25-Dec-2016

 -------------
 #p 6-31g* mp2
 -------------

 ------------------------------------------------------
 Input file generated by CHIRIPA (05-May-2021 14:57:23)
 ------------------------------------------------------
 Symbolic Z-matrix:
 Charge =  0 Multiplicity = 1

                         Standard orientation:
 ---------------------------------------------------------------------
 Center     Atomic      Atomic             Coordinates (Angstroms)
 Number     Number       Type             X           Y           Z
 ---------------------------------------------------------------------
      1          6           0       -1.838209   -0.987844    0.377418
      2          6           0       -2.876707   -1.545417    1.130514
      3          6           0       -4.196429   -1.124849    0.940765
      4          6           0       -4.442832   -0.140291   -0.014861
      5          6           0       -3.429753    0.434428   -0.780798
      6          6           0       -2.117554   -0.001440   -0.574157
      7          1           0       -0.815939   -1.320494    0.531380
      8          1           0       -2.662716   -2.311636    1.870218
      9          1           0       -5.019462   -1.539567    1.510014
     10          1           0       -3.674173    1.196498   -1.510815
     11          1           0       -1.313040    0.433354   -1.160465
     12          7           0       -5.835980    0.313045   -0.224681
     13          8           0       -6.026801    1.181906   -1.072800
     14          8           0       -6.710729   -0.209076    0.462953
     15          6           0        6.366838   -1.058996   -0.343437
     16          6           0        6.321806    0.027702    0.536098
     17          6           0        5.133995    0.740873    0.723290
     18          6           0        4.005020    0.338171    0.011576
     19          6           0        4.018117   -0.740138   -0.871807
     20          6           0        5.216876   -1.438778   -1.043349
     21          1           0        7.293810   -1.607359   -0.482773
     22          1           0        7.213331    0.324894    1.080988
     23          1           0        5.071101    1.586034    1.397949
     24          1           0        3.113067   -1.012698   -1.400971
     25          1           0        5.248910   -2.282315   -1.727062
     26          7           0        2.741744    1.085482    0.201464
     27          8           0        1.760905    0.710696   -0.437385
     28          8           0        2.756345    2.031859    0.985551
 ---------------------------------------------------------------------

 SCF Done:  E(RHF) =  -868.340053888     A.U. after   16 cycles
 E2 =    -0.2598420386D+01 EUMP2 =    -0.87093847427384D+03

 The electronic state is 1-A.
 Alpha  occ. eigenvalues --  -20.61909 -20.61831 -20.60026 -20.60017 -15.86908
 Alpha  occ. eigenvalues --  -15.85069 -11.32022 -11.30251 -11.28585 -11.28530
 Alpha  occ. eigenvalues --  -11.28233 -11.27517 -11.27487 -11.26833 -11.26722
 Alpha  occ. eigenvalues --  -11.26396 -11.25819 -11.25553  -1.60928  -1.59103
 Alpha  occ. eigenvalues --   -1.40493  -1.38662  -1.20165  -1.18381  -1.09601
 Alpha  occ. eigenvalues --   -1.07790  -1.05530  -1.03748  -0.96481  -0.94667
 Alpha  occ. eigenvalues --   -0.86939  -0.85135  -0.83326  -0.81506  -0.78405
 Alpha  occ. eigenvalues --   -0.76593  -0.73144  -0.72234  -0.71292  -0.71264
 Alpha  occ. eigenvalues --   -0.70424  -0.69452  -0.65822  -0.65524  -0.64017
 Alpha  occ. eigenvalues --   -0.63701  -0.62882  -0.61088  -0.56026  -0.54201
 Alpha  occ. eigenvalues --   -0.53871  -0.53616  -0.52100  -0.51810  -0.49900
 Alpha  occ. eigenvalues --   -0.49845  -0.48058  -0.48028  -0.45950  -0.44110
 Alpha  occ. eigenvalues --   -0.38124  -0.37123  -0.36330  -0.35355
 Alpha virt. eigenvalues --    0.04101   0.05917   0.10535   0.12308   0.15641
 Alpha virt. eigenvalues --    0.17479   0.20664   0.22494   0.26623   0.27406
 Alpha virt. eigenvalues --    0.28458   0.29218   0.30439   0.31774   0.32198

 Mulliken charges:
               1
     1  C   -0.170971
     2  C   -0.219219
     3  C   -0.172908
     4  C    0.158088
     5  C   -0.173198
     6  C   -0.220110
     7  H    0.228433
     8  H    0.218747
     9  H    0.271911
    10  H    0.273615
    11  H    0.240457
    12  N    0.488184
    13  O   -0.462063
    14  O   -0.463514
    15  C   -0.169860
    16  C   -0.218388
    17  C   -0.170232
    18  C    0.157561
    19  C   -0.171534
    20  C   -0.218301
    21  H    0.228408
    22  H    0.226237
    23  H    0.277349
    24  H    0.272359
    25  H    0.225405
    26  N    0.491854
    27  O   -0.474933
    28  O   -0.453378
 Sum of Mulliken charges =  -0.00000

 Dipole moment (field-independent basis, Debye):
    X=             10.0066    Y=             -4.1263    Z=              0.0605  Tot=             10.8242
 Quadrupole moment (field-independent basis, Debye-Ang):
   XX=           -112.2755   YY=           -103.2179   ZZ=           -101.1938
   XY=             -0.2974   XZ=             -5.2473   YZ=             -0.4091

 Normal termination of Gaussian 16 at Fri May  7 00:17:44 2021.
