 Gaussian 16, Revision A.03,
 Gaussian 16:  EM64L-G16RevA.03 25-Dec-2016

 -------------
 #p 6-31g* mp2
 -------------

 ------------------------------------------------------
 Input file generated by CHIRIPA (05-May-2021 14:51:14)
 ------------------------------------------------------
 Symbolic Z-matrix:
 Charge =  0 Multiplicity = 1

                         Standard orientation:
 ---------------------------------------------------------------------
 Center     Atomic      Atomic             Coordinates (Angstroms)
 Number     Number       Type             X           Y           Z
 ---------------------------------------------------------------------
      1          6           0       -3.878185   -0.346375    0.192906
      2          6           0       -2.970471    0.698550    0.842654
      3          6           0       -1.504025    0.267244    0.878773
      4          1           0       -3.786624   -1.294043    0.741074
      5          1           0       -3.527178   -0.541711   -0.829852
      6          1           0       -3.323916    0.892874    1.863404
      7          1           0       -3.064348    1.643894    0.292991
      8          1           0       -1.128867    0.092242   -0.134751
      9          1           0       -1.389909   -0.663045    1.444584
     10          1           0       -0.872968    1.028883    1.347317
     11          6           0       -5.347254    0.070360    0.149384
     12          6           0       -6.254968   -0.974566   -0.500364
     13          6           0       -7.721414   -0.543260   -0.536483
     14          1           0       -5.698261    0.265696    1.172142
     15          1           0       -5.438815    1.018027   -0.398784
     16          1           0       -6.161091   -1.919909    0.049298
     17          1           0       -5.901523   -1.168890   -1.521114
     18          1           0       -7.835529    0.387029   -1.102294
     19          1           0       -8.096572   -0.368257    0.477041
     20          1           0       -8.352470   -1.304899   -1.005027
     21          6           0        3.851318    0.154341   -0.229744
     22          6           0        3.283319    1.568050   -0.359316
     23          6           0        1.758851    1.584270   -0.475633
     24          1           0        3.542291   -0.439393   -1.100908
     25          1           0        3.410212   -0.331161    0.651794
     26          1           0        3.726409    2.051231   -1.239557
     27          1           0        3.593895    2.158542    0.512164
     28          1           0        1.300267    1.126617    0.406896
     29          1           0        1.433535    1.018696   -1.354778
     30          1           0        1.374046    2.604754   -0.567257
     31          6           0        5.374120    0.121675   -0.112546
     32          6           0        5.942120   -1.292034    0.017026
     33          6           0        7.466588   -1.308254    0.133342
     34          1           0        5.815226    0.607177   -0.994084
     35          1           0        5.683149    0.715408    0.758618
     36          1           0        5.631544   -1.882527   -0.854453
     37          1           0        5.499030   -1.775215    0.897266
     38          1           0        7.791904   -0.742680    1.012487
     39          1           0        7.925171   -0.850601   -0.749186
     40          1           0        7.851393   -2.328739    0.224967
 ---------------------------------------------------------------------

 SCF Done:  E(RHF) =  -470.732497108     A.U. after   11 cycles
 E2 =    -0.1582573602D+01 EUMP2 =    -0.47231507071031D+03

 The electronic state is 1-A.
 Alpha  occ. eigenvalues --  -11.21583 -11.21573 -11.21545 -11.21523 -11.21375
 Alpha  occ. eigenvalues --  -11.21361 -11.21315 -11.21300 -11.21057 -11.21049
 Alpha  occ. eigenvalues --  -11.20970 -11.20927  -1.08400  -1.08378  -1.03521
 Alpha  occ. eigenvalues --   -1.03450  -0.96020  -0.95856  -0.87095  -0.86822
 Alpha  occ. eigenvalues --   -0.79673  -0.79434  -0.78226  -0.78177  -0.65031
 Alpha  occ. eigenvalues --   -0.65012  -0.60926  -0.60866  -0.59337  -0.59294
 Alpha  occ. eigenvalues --   -0.57569  -0.57535  -0.55291  -0.55179  -0.52871
 Alpha  occ. eigenvalues --   -0.52588  -0.52375  -0.52165  -0.49921  -0.49791
 Alpha  occ. eigenvalues --   -0.47904  -0.47814  -0.46606  -0.46541  -0.45785
 Alpha  occ. eigenvalues --   -0.45721  -0.45670  -0.45635  -0.43760  -0.43665
 Alpha virt. eigenvalues --    0.22649   0.22955   0.23719   0.24702   0.26424
 Alpha virt. eigenvalues --    0.26554   0.26934   0.27541   0.27659   0.29127
 Alpha virt. eigenvalues --    0.29856   0.31236   0.31762   0.31960   0.32250

 Mulliken charges:
               1
     1  C   -0.298582
     2  C   -0.299808
     3  C   -0.478074
     4  H    0.149461
     5  H    0.149495
     6  H    0.151344
     7  H    0.152069
     8  H    0.158979
     9  H    0.153894
    10  H    0.161724
    11  C   -0.298250
    12  C   -0.299592
    13  C   -0.475678
    14  H    0.149437
    15  H    0.149618
    16  H    0.151874
    17  H    0.151880
    18  H    0.155155
    19  H    0.155141
    20  H    0.160177
    21  C   -0.298202
    22  C   -0.300079
    23  C   -0.478968
    24  H    0.149401
    25  H    0.149686
    26  H    0.151174
    27  H    0.151330
    28  H    0.163229
    29  H    0.153679
    30  H    0.158870
    31  C   -0.298193
    32  C   -0.299604
    33  C   -0.475673
    34  H    0.149411
    35  H    0.149511
    36  H    0.151867
    37  H    0.151902
    38  H    0.155122
    39  H    0.155122
    40  H    0.160149
 Sum of Mulliken charges =  -0.00000

 Dipole moment (field-independent basis, Debye):
    X=             -0.0157    Y=             -0.0043    Z=              0.0085  Tot=              0.0183
 Quadrupole moment (field-independent basis, Debye-Ang):
   XX=            -87.4752   YY=            -84.7229   ZZ=            -82.9279
   XY=              0.3808   XZ=             -0.3682   YZ=             -0.2792

 Normal termination of Gaussian 16 at Wed May  5 20:00:16 2021.
