 Gaussian 16, Revision A.03,
 Gaussian 16:  EM64L-G16RevA.03 25-Dec-2016

 -------------
 #p 6-31g* mp2
 -------------

 ------------------------------------------------------
 Input file generated by CHIRIPA (05-May-2021 14:51:12)
 ------------------------------------------------------
 Symbolic Z-matrix:
 Charge =  0 Multiplicity = 1

                         Standard orientation:
 ---------------------------------------------------------------------
 Center     Atomic      Atomic             Coordinates (Angstroms)
 Number     Number       Type             X           Y           Z
 ---------------------------------------------------------------------
      1          6           0       -1.988185   -0.160862   -0.734395
      2          6           0       -2.879612   -1.378159   -0.982452
      3          6           0       -2.194593   -2.449288   -1.831701
      4          1           0       -1.689854    0.270034   -1.699937
      5          1           0       -1.063446   -0.487219   -0.238670
      6          1           0       -3.802998   -1.049414   -1.476315
      7          1           0       -3.176012   -1.806093   -0.016204
      8          1           0       -1.283048   -2.805372   -1.340893
      9          1           0       -1.913596   -2.044394   -2.809301
     10          1           0       -2.849613   -3.310440   -1.996706
     11          6           0       -2.659046    0.918666    0.113126
     12          6           0       -1.767619    2.135963    0.361183
     13          6           0       -2.452638    3.207092    1.210432
     14          1           0       -3.583785    1.245022   -0.382599
     15          1           0       -2.957377    0.487770    1.078669
     16          1           0       -1.471219    2.563897   -0.605065
     17          1           0       -0.844233    1.807218    0.855046
     18          1           0       -2.733634    2.802198    2.188032
     19          1           0       -3.364183    3.563176    0.719625
     20          1           0       -1.797618    4.068244    1.375437
     21          6           0        1.992007   -1.059900    0.409173
     22          6           0        1.399169   -1.249244    1.805838
     23          6           0        0.739290   -2.616477    1.987571
     24          1           0        1.198329   -1.187999   -0.339566
     25          1           0        2.729890   -1.852098    0.221164
     26          1           0        0.663629   -0.456113    1.991693
     27          1           0        2.194312   -1.120489    2.551349
     28          1           0        1.466456   -3.419354    1.828771
     29          1           0       -0.072924   -2.751203    1.265935
     30          1           0        0.322193   -2.730489    2.993002
     31          6           0        2.655223    0.302096    0.212096
     32          6           0        3.248063    0.491440   -1.184570
     33          6           0        3.907942    1.858673   -1.366303
     34          1           0        1.917342    1.094295    0.400105
     35          1           0        3.448902    0.430196    0.960835
     36          1           0        2.452919    0.362685   -1.930080
     37          1           0        3.983602   -0.301690   -1.370424
     38          1           0        4.720155    1.993399   -0.644666
     39          1           0        3.180775    2.661551   -1.207503
     40          1           0        4.325039    1.972685   -2.371734
 ---------------------------------------------------------------------

 SCF Done:  E(RHF) =  -470.733000802     A.U. after   11 cycles
 E2 =    -0.1585046082D+01 EUMP2 =    -0.47231804688423D+03

 The electronic state is 1-A.
 Alpha  occ. eigenvalues --  -11.21687 -11.21668 -11.21656 -11.21582 -11.21461
 Alpha  occ. eigenvalues --  -11.21400 -11.21399 -11.21340 -11.21152 -11.21130
 Alpha  occ. eigenvalues --  -11.21126 -11.21054  -1.08536  -1.08415  -1.03605
 Alpha  occ. eigenvalues --   -1.03549  -0.96044  -0.95998  -0.87068  -0.87011
 Alpha  occ. eigenvalues --   -0.79676  -0.79607  -0.78360  -0.78227  -0.65487
 Alpha  occ. eigenvalues --   -0.64771  -0.61108  -0.60848  -0.59430  -0.59346
 Alpha  occ. eigenvalues --   -0.57674  -0.57592  -0.55384  -0.55243  -0.52733
 Alpha  occ. eigenvalues --   -0.52699  -0.52495  -0.52402  -0.50072  -0.49865
 Alpha  occ. eigenvalues --   -0.48075  -0.47897  -0.46839  -0.46591  -0.46238
 Alpha  occ. eigenvalues --   -0.45815  -0.45628  -0.45253  -0.43846  -0.43801
 Alpha virt. eigenvalues --    0.18810   0.21614   0.23507   0.24495   0.25377
 Alpha virt. eigenvalues --    0.26674   0.26879   0.27784   0.28338   0.30102
 Alpha virt. eigenvalues --    0.30958   0.31326   0.31601   0.31897   0.32365

 Mulliken charges:
               1
     1  C   -0.309010
     2  C   -0.299299
     3  C   -0.479614
     4  H    0.149137
     5  H    0.160565
     6  H    0.152356
     7  H    0.152272
     8  H    0.157653
     9  H    0.155409
    10  H    0.161010
    11  C   -0.297338
    12  C   -0.305073
    13  C   -0.475570
    14  H    0.149996
    15  H    0.149823
    16  H    0.152019
    17  H    0.155515
    18  H    0.155444
    19  H    0.155555
    20  H    0.160487
    21  C   -0.303914
    22  C   -0.303008
    23  C   -0.479375
    24  H    0.154429
    25  H    0.150149
    26  H    0.152963
    27  H    0.153035
    28  H    0.156043
    29  H    0.157309
    30  H    0.160608
    31  C   -0.301350
    32  C   -0.299626
    33  C   -0.475850
    34  H    0.152554
    35  H    0.149613
    36  H    0.152656
    37  H    0.151817
    38  H    0.155026
    39  H    0.155432
    40  H    0.160152
 Sum of Mulliken charges =  -0.00000

 Dipole moment (field-independent basis, Debye):
    X=             -0.0119    Y=             -0.0004    Z=             -0.0042  Tot=              0.0127
 Quadrupole moment (field-independent basis, Debye-Ang):
   XX=            -84.2177   YY=            -86.0461   ZZ=            -84.3776
   XY=             -0.7042   XZ=              0.9721   YZ=             -0.7499

 Normal termination of Gaussian 16 at Thu May  6 02:20:52 2021.
