 Gaussian 16, Revision A.03,
 Gaussian 16:  EM64L-G16RevA.03 25-Dec-2016

 -------------
 #p 6-31g* mp2
 -------------

 ------------------------------------------------------
 Input file generated by CHIRIPA (05-May-2021 14:51:13)
 ------------------------------------------------------
 Symbolic Z-matrix:
 Charge =  0 Multiplicity = 1

                         Standard orientation:
 ---------------------------------------------------------------------
 Center     Atomic      Atomic             Coordinates (Angstroms)
 Number     Number       Type             X           Y           Z
 ---------------------------------------------------------------------
      1          6           0        4.123540    0.397055   -0.302843
      2          6           0        5.496512    0.909420    0.133523
      3          6           0        6.191284    1.734652   -0.950026
      4          1           0        4.237533   -0.209920   -1.211431
      5          1           0        3.490425    1.252628   -0.575894
      6          1           0        6.126396    0.053220    0.406989
      7          1           0        5.379261    1.515088    1.041286
      8          1           0        5.586003    2.606836   -1.217478
      9          1           0        6.337383    1.136663   -1.855379
     10          1           0        7.171088    2.090898   -0.616961
     11          6           0        3.416497   -0.429672    0.769697
     12          6           0        2.043525   -0.942037    0.333331
     13          6           0        1.348753   -1.767269    1.416880
     14          1           0        4.049612   -1.285244    1.042748
     15          1           0        3.302504    0.177304    1.678285
     16          1           0        2.160776   -1.547705   -0.574432
     17          1           0        1.413641   -0.085837    0.059865
     18          1           0        1.202654   -1.169279    2.322234
     19          1           0        1.954034   -2.639453    1.684333
     20          1           0        0.368949   -2.123514    1.083815
     21          6           0       -4.325362    0.394395    0.129997
     22          6           0       -4.316914    1.898109   -0.147049
     23          6           0       -5.433785    2.640744    0.587041
     24          1           0       -5.298922   -0.020798   -0.164520
     25          1           0       -4.228654    0.227369    1.211729
     26          1           0       -4.412217    2.062217   -1.228068
     27          1           0       -3.343193    2.309738    0.147984
     28          1           0       -5.338962    2.506550    1.669446
     29          1           0       -6.414060    2.257623    0.285576
     30          1           0       -5.409142    3.714155    0.374814
     31          6           0       -3.214676   -0.361778   -0.596851
     32          6           0       -3.223123   -1.865493   -0.319805
     33          6           0       -2.106252   -2.608127   -1.053895
     34          1           0       -3.311383   -0.194752   -1.678584
     35          1           0       -2.241115    0.053415   -0.302334
     36          1           0       -4.196845   -2.277121   -0.614839
     37          1           0       -3.127820   -2.029600    0.761214
     38          1           0       -1.125976   -2.225006   -0.752430
     39          1           0       -2.201076   -2.473933   -2.136300
     40          1           0       -2.130895   -3.681539   -0.841668
 ---------------------------------------------------------------------

 SCF Done:  E(RHF) =  -470.733318548     A.U. after   11 cycles
 E2 =    -0.1582529645D+01 EUMP2 =    -0.47231584819360D+03

 The electronic state is 1-A.
 Alpha  occ. eigenvalues --  -11.21639 -11.21611 -11.21607 -11.21606 -11.21425
 Alpha  occ. eigenvalues --  -11.21407 -11.21364 -11.21348 -11.21082 -11.21077
 Alpha  occ. eigenvalues --  -11.21075 -11.21058  -1.08453  -1.08430  -1.03569
 Alpha  occ. eigenvalues --   -1.03518  -0.96032  -0.95952  -0.87050  -0.86966
 Alpha  occ. eigenvalues --   -0.79615  -0.79593  -0.78268  -0.78238  -0.65086
 Alpha  occ. eigenvalues --   -0.65064  -0.60991  -0.60944  -0.59395  -0.59326
 Alpha  occ. eigenvalues --   -0.57710  -0.57515  -0.55288  -0.55262  -0.52738
 Alpha  occ. eigenvalues --   -0.52666  -0.52491  -0.52301  -0.49936  -0.49899
 Alpha  occ. eigenvalues --   -0.47962  -0.47870  -0.46649  -0.46614  -0.45816
 Alpha  occ. eigenvalues --   -0.45776  -0.45736  -0.45693  -0.43794  -0.43788
 Alpha virt. eigenvalues --    0.20750   0.23082   0.23512   0.25053   0.26258
 Alpha virt. eigenvalues --    0.26592   0.27135   0.27443   0.27864   0.28936
 Alpha virt. eigenvalues --    0.30717   0.31266   0.31510   0.31733   0.32079

 Mulliken charges:
               1
     1  C   -0.298360
     2  C   -0.299688
     3  C   -0.475725
     4  H    0.149854
     5  H    0.149558
     6  H    0.151976
     7  H    0.151912
     8  H    0.155207
     9  H    0.155252
    10  H    0.160284
    11  C   -0.298319
    12  C   -0.300134
    13  C   -0.481944
    14  H    0.149788
    15  H    0.149662
    16  H    0.152722
    17  H    0.151505
    18  H    0.154964
    19  H    0.155731
    20  H    0.165595
    21  C   -0.298350
    22  C   -0.299620
    23  C   -0.475712
    24  H    0.149692
    25  H    0.149662
    26  H    0.151948
    27  H    0.151770
    28  H    0.155203
    29  H    0.155221
    30  H    0.160220
    31  C   -0.298546
    32  C   -0.300017
    33  C   -0.482101
    34  H    0.149609
    35  H    0.149758
    36  H    0.152163
    37  H    0.152164
    38  H    0.161405
    39  H    0.155485
    40  H    0.160210
 Sum of Mulliken charges =  -0.00000

 Dipole moment (field-independent basis, Debye):
    X=              0.0079    Y=             -0.0052    Z=             -0.0060  Tot=              0.0112
 Quadrupole moment (field-independent basis, Debye-Ang):
   XX=            -85.1328   YY=            -84.8776   ZZ=            -84.6969
   XY=             -0.1833   XZ=              1.1065   YZ=              0.5472

 Normal termination of Gaussian 16 at Wed May  5 21:35:17 2021.
