 Gaussian 16, Revision A.03,
 Gaussian 16:  EM64L-G16RevA.03 25-Dec-2016

 -------------
 #p 6-31g* mp2
 -------------

 ------------------------------------------------------
 Input file generated by CHIRIPA (05-May-2021 14:51:09)
 ------------------------------------------------------
 Symbolic Z-matrix:
 Charge =  0 Multiplicity = 1

                         Standard orientation:
 ---------------------------------------------------------------------
 Center     Atomic      Atomic             Coordinates (Angstroms)
 Number     Number       Type             X           Y           Z
 ---------------------------------------------------------------------
      1          6           0        2.942830   -0.681760    0.801641
      2          6           0        1.460110   -0.316132    0.725208
      3          6           0        0.635040   -0.956382    1.841959
      4          1           0        3.047303   -1.774452    0.756334
      5          1           0        3.340383   -0.369947    1.777407
      6          1           0        1.065808   -0.627296   -0.250660
      7          1           0        1.359167    0.775827    0.770510
      8          1           0        1.001067   -0.636824    2.823034
      9          1           0        0.706042   -2.047920    1.796062
     10          1           0       -0.421844   -0.681754    1.768229
     11          6           0        3.780744   -0.049275   -0.308129
     12          6           0        5.263465   -0.414902   -0.231697
     13          6           0        6.088535    0.225348   -1.348448
     14          1           0        3.383191   -0.361088   -1.283895
     15          1           0        3.676271    1.043418   -0.262823
     16          1           0        5.364408   -1.506861   -0.276998
     17          1           0        5.657767   -0.103738    0.744171
     18          1           0        6.017533    1.316885   -1.302551
     19          1           0        5.722507   -0.094210   -2.329522
     20          1           0        7.145418   -0.049280   -1.274718
     21          6           0       -2.742509    0.796917   -0.129194
     22          6           0       -3.052641    2.291551   -0.040467
     23          6           0       -1.803651    3.141503    0.194903
     24          1           0       -2.248110    0.475844    0.797859
     25          1           0       -2.023272    0.626416   -0.942227
     26          1           0       -3.772137    2.459015    0.771258
     27          1           0       -3.546532    2.609062   -0.967761
     28          1           0       -1.084935    3.003867   -0.619411
     29          1           0       -1.311822    2.852967    1.129489
     30          1           0       -2.048316    4.206576    0.255059
     31          6           0       -3.981065   -0.065883   -0.364318
     32          6           0       -3.670933   -1.560516   -0.453045
     33          6           0       -4.919924   -2.410469   -0.688414
     34          1           0       -4.700303    0.104618    0.448715
     35          1           0       -4.475464    0.255190   -1.291371
     36          1           0       -3.177043   -1.878028    0.474250
     37          1           0       -2.951437   -1.727981   -1.264770
     38          1           0       -5.411752   -2.121933   -1.623001
     39          1           0       -5.638639   -2.272832    0.125899
     40          1           0       -4.675258   -3.475541   -0.748569
 ---------------------------------------------------------------------

 SCF Done:  E(RHF) =  -470.733325716     A.U. after   11 cycles
 E2 =    -0.1583109732D+01 EUMP2 =    -0.47231643544842D+03

 The electronic state is 1-A.
 Alpha  occ. eigenvalues --  -11.21614 -11.21608 -11.21584 -11.21545 -11.21412
 Alpha  occ. eigenvalues --  -11.21376 -11.21353 -11.21316 -11.21081 -11.21075
 Alpha  occ. eigenvalues --  -11.21058 -11.21013  -1.08449  -1.08393  -1.03541
 Alpha  occ. eigenvalues --   -1.03492  -0.95999  -0.95940  -0.87015  -0.86958
 Alpha  occ. eigenvalues --   -0.79604  -0.79553  -0.78284  -0.78189  -0.65087
 Alpha  occ. eigenvalues --   -0.65026  -0.60944  -0.60884  -0.59405  -0.59289
 Alpha  occ. eigenvalues --   -0.57681  -0.57486  -0.55279  -0.55236  -0.52742
 Alpha  occ. eigenvalues --   -0.52643  -0.52461  -0.52293  -0.49928  -0.49889
 Alpha  occ. eigenvalues --   -0.47922  -0.47885  -0.46632  -0.46589  -0.45831
 Alpha  occ. eigenvalues --   -0.45743  -0.45689  -0.45638  -0.43800  -0.43709
 Alpha virt. eigenvalues --    0.20976   0.23142   0.23734   0.24308   0.25716
 Alpha virt. eigenvalues --    0.26224   0.26684   0.27596   0.28208   0.29294
 Alpha virt. eigenvalues --    0.31167   0.31435   0.31556   0.31806   0.32036

 Mulliken charges:
               1
     1  C   -0.298431
     2  C   -0.299604
     3  C   -0.482177
     4  H    0.149510
     5  H    0.149374
     6  H    0.152138
     7  H    0.153073
     8  H    0.154487
     9  H    0.155033
    10  H    0.165620
    11  C   -0.298228
    12  C   -0.299611
    13  C   -0.475692
    14  H    0.149268
    15  H    0.149755
    16  H    0.151883
    17  H    0.151921
    18  H    0.155194
    19  H    0.155078
    20  H    0.160194
    21  C   -0.305496
    22  C   -0.299185
    23  C   -0.476465
    24  H    0.156179
    25  H    0.150482
    26  H    0.151825
    27  H    0.152055
    28  H    0.155844
    29  H    0.155440
    30  H    0.160218
    31  C   -0.297907
    32  C   -0.300439
    33  C   -0.475686
    34  H    0.149406
    35  H    0.149732
    36  H    0.152718
    37  H    0.151747
    38  H    0.155196
    39  H    0.155243
    40  H    0.160308
 Sum of Mulliken charges =  -0.00000

 Dipole moment (field-independent basis, Debye):
    X=             -0.0228    Y=              0.0112    Z=             -0.0106  Tot=              0.0275
 Quadrupole moment (field-independent basis, Debye-Ang):
   XX=            -85.9759   YY=            -84.8256   ZZ=            -84.0110
   XY=             -0.7199   XZ=              0.3617   YZ=              0.5829

 Normal termination of Gaussian 16 at Wed May  5 21:21:04 2021.
