 Gaussian 16, Revision A.03,
 Gaussian 16:  EM64L-G16RevA.03 25-Dec-2016

 -------------
 #p 6-31g* mp2
 -------------

 ------------------------------------------------------
 Input file generated by CHIRIPA (05-May-2021 14:51:11)
 ------------------------------------------------------
 Symbolic Z-matrix:
 Charge =  0 Multiplicity = 1

                         Standard orientation:
 ---------------------------------------------------------------------
 Center     Atomic      Atomic             Coordinates (Angstroms)
 Number     Number       Type             X           Y           Z
 ---------------------------------------------------------------------
      1          6           0        2.905339    1.370750   -0.197826
      2          6           0        1.439265    1.480777    0.222300
      3          6           0        0.797416    2.799056   -0.211250
      4          1           0        3.467067    2.212077    0.230630
      5          1           0        2.975210    1.472011   -1.289732
      6          1           0        1.372038    1.377954    1.312953
      7          1           0        0.880999    0.638984   -0.207048
      8          1           0        0.835039    2.906066   -1.300164
      9          1           0        1.328867    3.649235    0.228473
     10          1           0       -0.250490    2.856611    0.099296
     11          6           0        3.560836    0.058369    0.228447
     12          6           0        5.026910   -0.051659   -0.191678
     13          6           0        5.668758   -1.369937    0.241871
     14          1           0        3.490964   -0.042893    1.320354
     15          1           0        2.999108   -0.782959   -0.200009
     16          1           0        5.585175    0.790134    0.237670
     17          1           0        5.094137    0.051164   -1.282331
     18          1           0        5.137308   -2.220117   -0.197852
     19          1           0        5.631136   -1.476948    1.330786
     20          1           0        6.716665   -1.427493   -0.068675
     21          6           0       -2.890759   -1.392841   -0.093899
     22          6           0       -1.364735   -1.311413   -0.042856
     23          6           0       -0.694271   -2.676369   -0.201494
     24          1           0       -3.242138   -2.069671    0.696910
     25          1           0       -3.195224   -1.843173   -1.048833
     26          1           0       -1.063289   -0.860099    0.911117
     27          1           0       -1.016961   -0.634549   -0.833756
     28          1           0       -0.966214   -3.130073   -1.160035
     29          1           0       -1.012806   -3.356905    0.594751
     30          1           0        0.396446   -2.594910   -0.162004
     31          6           0       -3.575416   -0.036277    0.063278
     32          6           0       -5.101440   -0.117705    0.012234
     33          6           0       -5.771903    1.247251    0.170873
     34          1           0       -3.270952    0.414054    1.018212
     35          1           0       -3.224037    0.640552   -0.727532
     36          1           0       -5.449214   -0.794570    0.803135
     37          1           0       -5.402885   -0.569020   -0.941738
     38          1           0       -5.453368    1.927787   -0.625373
     39          1           0       -5.499960    1.700955    1.129414
     40          1           0       -6.862621    1.165792    0.131383
 ---------------------------------------------------------------------

 SCF Done:  E(RHF) =  -470.732906914     A.U. after   11 cycles
 E2 =    -0.1583457739D+01 EUMP2 =    -0.47231636465296D+03

 The electronic state is 1-A.
 Alpha  occ. eigenvalues --  -11.21614 -11.21607 -11.21590 -11.21460 -11.21421
 Alpha  occ. eigenvalues --  -11.21381 -11.21362 -11.21307 -11.21109 -11.21080
 Alpha  occ. eigenvalues --  -11.21062 -11.21014  -1.08461  -1.08383  -1.03574
 Alpha  occ. eigenvalues --   -1.03466  -0.96001  -0.95943  -0.87020  -0.86954
 Alpha  occ. eigenvalues --   -0.79758  -0.79444  -0.78361  -0.78097  -0.65113
 Alpha  occ. eigenvalues --   -0.65002  -0.61010  -0.60845  -0.59448  -0.59235
 Alpha  occ. eigenvalues --   -0.57631  -0.57535  -0.55288  -0.55235  -0.52709
 Alpha  occ. eigenvalues --   -0.52623  -0.52432  -0.52356  -0.49959  -0.49883
 Alpha  occ. eigenvalues --   -0.48211  -0.47670  -0.46767  -0.46498  -0.45981
 Alpha  occ. eigenvalues --   -0.45771  -0.45657  -0.45354  -0.43799  -0.43739
 Alpha virt. eigenvalues --    0.21120   0.22932   0.23873   0.24057   0.25779
 Alpha virt. eigenvalues --    0.26361   0.26715   0.27183   0.28939   0.29061
 Alpha virt. eigenvalues --    0.30596   0.31136   0.31665   0.31775   0.32143

 Mulliken charges:
               1
     1  C   -0.297599
     2  C   -0.308376
     3  C   -0.476011
     4  H    0.149272
     5  H    0.148904
     6  H    0.150485
     7  H    0.163840
     8  H    0.154209
     9  H    0.154893
    10  H    0.160764
    11  C   -0.299585
    12  C   -0.299562
    13  C   -0.475711
    14  H    0.149489
    15  H    0.149980
    16  H    0.152075
    17  H    0.151895
    18  H    0.155097
    19  H    0.155160
    20  H    0.160246
    21  C   -0.297320
    22  C   -0.303416
    23  C   -0.478139
    24  H    0.149664
    25  H    0.149349
    26  H    0.154977
    27  H    0.153168
    28  H    0.155105
    29  H    0.155782
    30  H    0.161407
    31  C   -0.298685
    32  C   -0.299625
    33  C   -0.475755
    34  H    0.149475
    35  H    0.149800
    36  H    0.152004
    37  H    0.151971
    38  H    0.155278
    39  H    0.155171
    40  H    0.160321
 Sum of Mulliken charges =  -0.00000

 Dipole moment (field-independent basis, Debye):
    X=             -0.0347    Y=             -0.0214    Z=              0.0059  Tot=              0.0412
 Quadrupole moment (field-independent basis, Debye-Ang):
   XX=            -85.5621   YY=            -86.3288   ZZ=            -83.0187
   XY=              1.2208   XZ=              0.1357   YZ=              0.3660

 Normal termination of Gaussian 16 at Thu May  6 05:26:51 2021.
