 Gaussian 16, Revision A.03,
 Gaussian 16:  EM64L-G16RevA.03 25-Dec-2016

 -------------
 #p 6-31g* mp2
 -------------

 ------------------------------------------------------
 Input file generated by CHIRIPA (05-May-2021 14:57:25)
 ------------------------------------------------------
 Symbolic Z-matrix:
 Charge =  0 Multiplicity = 1

                         Standard orientation:
 ---------------------------------------------------------------------
 Center     Atomic      Atomic             Coordinates (Angstroms)
 Number     Number       Type             X           Y           Z
 ---------------------------------------------------------------------
      1          6           0        3.529473    2.348630    0.849140
      2          6           0        4.666237    1.564369    0.627274
      3          6           0        4.547290    0.274249    0.101928
      4          6           0        3.270467   -0.202124   -0.191467
      5          6           0        2.118887    0.554936    0.018331
      6          6           0        2.261661    1.842302    0.544497
      7          1           0        3.631129    3.349756    1.257560
      8          1           0        5.652101    1.954991    0.862927
      9          1           0        5.410576   -0.354357   -0.079763
     10          1           0        1.149453    0.138166   -0.226450
     11          1           0        1.377079    2.449120    0.715760
     12          7           0        3.131930   -1.566459   -0.748061
     13          8           0        1.995798   -1.963029   -0.998208
     14          8           0        4.162101   -2.213421   -0.923634
     15          6           0       -3.855799    2.204142   -0.944555
     16          6           0       -4.822523    1.195005   -0.884503
     17          6           0       -4.521977   -0.042753   -0.308155
     18          6           0       -3.238919   -0.238021    0.200691
     19          6           0       -2.254158    0.747634    0.155747
     20          6           0       -2.576956    1.977635   -0.425153
     21          1           0       -4.097914    3.162649   -1.394043
     22          1           0       -5.816514    1.368100   -1.287077
     23          1           0       -5.251331   -0.841442   -0.248530
     24          1           0       -1.271986    0.545451    0.565477
     25          1           0       -1.824188    2.759517   -0.470413
     26          7           0       -2.908965   -1.544274    0.813254
     27          8           0       -1.771254   -1.691288    1.254434
     28          8           0       -3.794304   -2.396368    0.840602
 ---------------------------------------------------------------------

 SCF Done:  E(RHF) =  -868.335645629     A.U. after   16 cycles
 E2 =    -0.2600696299D+01 EUMP2 =    -0.87093634192837D+03

 The electronic state is 1-A.
 Alpha  occ. eigenvalues --  -20.60787 -20.60764 -20.60581 -20.60538 -15.85838
 Alpha  occ. eigenvalues --  -15.85624 -11.31454 -11.31234 -11.28162 -11.27984
 Alpha  occ. eigenvalues --  -11.27905 -11.27819 -11.27802 -11.27654 -11.27197
 Alpha  occ. eigenvalues --  -11.27047 -11.27018 -11.26873  -1.59842  -1.59634
 Alpha  occ. eigenvalues --   -1.39393  -1.39179  -1.19639  -1.19443  -1.08977
 Alpha  occ. eigenvalues --   -1.08791  -1.05105  -1.04904  -0.95781  -0.95583
 Alpha  occ. eigenvalues --   -0.86483  -0.86281  -0.82628  -0.82427  -0.77668
 Alpha  occ. eigenvalues --   -0.77406  -0.72054  -0.71838  -0.71164  -0.70960
 Alpha  occ. eigenvalues --   -0.70791  -0.70523  -0.65297  -0.65163  -0.65093
 Alpha  occ. eigenvalues --   -0.64906  -0.62620  -0.62110  -0.55575  -0.55377
 Alpha  occ. eigenvalues --   -0.53382  -0.53272  -0.53182  -0.52957  -0.48828
 Alpha  occ. eigenvalues --   -0.48801  -0.48623  -0.48577  -0.44740  -0.44529
 Alpha  occ. eigenvalues --   -0.37596  -0.37422  -0.36703  -0.36506
 Alpha virt. eigenvalues --    0.04910   0.05130   0.10914   0.11147   0.16390
 Alpha virt. eigenvalues --    0.16554   0.18160   0.22250   0.24657   0.26427
 Alpha virt. eigenvalues --    0.28087   0.29079   0.30825   0.31603   0.32401

 Mulliken charges:
               1
     1  C   -0.170489
     2  C   -0.218531
     3  C   -0.169566
     4  C    0.160443
     5  C   -0.174033
     6  C   -0.218655
     7  H    0.224852
     8  H    0.224074
     9  H    0.276984
    10  H    0.278685
    11  H    0.213135
    12  N    0.487508
    13  O   -0.453747
    14  O   -0.461115
    15  C   -0.170628
    16  C   -0.217728
    17  C   -0.169470
    18  C    0.161554
    19  C   -0.175079
    20  C   -0.218084
    21  H    0.226063
    22  H    0.225097
    23  H    0.277839
    24  H    0.271759
    25  H    0.216753
    26  N    0.488101
    27  O   -0.457263
    28  O   -0.458458
 Sum of Mulliken charges =  -0.00000

 Dipole moment (field-independent basis, Debye):
    X=             -0.7539    Y=              9.1521    Z=             -0.2332  Tot=              9.1860
 Quadrupole moment (field-independent basis, Debye-Ang):
   XX=            -83.5542   YY=           -109.6912   ZZ=           -107.9292
   XY=              2.0806   XZ=             14.6220   YZ=              0.3778

 Normal termination of Gaussian 16 at Fri May  7 04:59:32 2021.
