 Gaussian 16, Revision A.03,
 Gaussian 16:  EM64L-G16RevA.03 25-Dec-2016

 -------------
 #p 6-31g* mp2
 -------------

 ------------------------------------------------------
 Input file generated by CHIRIPA (05-May-2021 14:51:14)
 ------------------------------------------------------
 Symbolic Z-matrix:
 Charge =  0 Multiplicity = 1

                         Standard orientation:
 ---------------------------------------------------------------------
 Center     Atomic      Atomic             Coordinates (Angstroms)
 Number     Number       Type             X           Y           Z
 ---------------------------------------------------------------------
      1          6           0       -2.898789    1.216985    0.351334
      2          6           0       -1.392068    1.318856    0.111752
      3          6           0       -0.747713    2.472077    0.881611
      4          1           0       -3.374506    2.164021    0.061920
      5          1           0       -3.084226    1.089936    1.426911
      6          1           0       -1.209460    1.444287   -0.963207
      7          1           0       -0.919906    0.371400    0.401590
      8          1           0       -0.900556    2.349197    1.958709
      9          1           0       -1.191755    3.428180    0.586157
     10          1           0        0.329501    2.526483    0.695840
     11          6           0       -3.557254    0.068858   -0.411527
     12          6           0       -5.063974   -0.033013   -0.171945
     13          6           0       -5.708330   -1.186234   -0.941804
     14          1           0       -3.371817    0.195907   -1.487105
     15          1           0       -3.081536   -0.878178   -0.122114
     16          1           0       -5.536136    0.914443   -0.461783
     17          1           0       -5.246583   -0.158444    0.903014
     18          1           0       -5.264287   -2.142337   -0.646351
     19          1           0       -5.555486   -1.063354   -2.018902
     20          1           0       -6.785543   -1.240640   -0.756034
     21          6           0        2.791128   -0.949913    0.576278
     22          6           0        1.502679   -1.576083    0.041682
     23          6           0        0.639256   -2.186068    1.146315
     24          1           0        3.367636   -1.715195    1.113797
     25          1           0        2.536048   -0.175771    1.313184
     26          1           0        1.760074   -2.347859   -0.695017
     27          1           0        0.929263   -0.809268   -0.494792
     28          1           0        0.353725   -1.423072    1.877691
     29          1           0        1.189257   -2.970404    1.676328
     30          1           0       -0.276721   -2.628059    0.741974
     31          6           0        3.664914   -0.335930   -0.516083
     32          6           0        4.953364    0.290241    0.018512
     33          6           0        5.816786    0.900225   -1.086122
     34          1           0        3.919995   -1.110072   -1.252991
     35          1           0        3.088406    0.429351   -1.053603
     36          1           0        5.526780   -0.476574    0.554986
     37          1           0        4.695969    1.062016    0.755210
     38          1           0        5.266784    1.684562   -1.616135
     39          1           0        6.102316    0.137229   -1.817498
     40          1           0        6.732762    1.342216   -0.681781
 ---------------------------------------------------------------------

 SCF Done:  E(RHF) =  -470.732958197     A.U. after   11 cycles
 E2 =    -0.1583643288D+01 EUMP2 =    -0.47231660148438D+03

 The electronic state is 1-A.
 Alpha  occ. eigenvalues --  -11.21605 -11.21602 -11.21586 -11.21562 -11.21413
 Alpha  occ. eigenvalues --  -11.21404 -11.21354 -11.21345 -11.21130 -11.21127
 Alpha  occ. eigenvalues --  -11.21074 -11.21071  -1.08468  -1.08408  -1.03600
 Alpha  occ. eigenvalues --   -1.03493  -0.96012  -0.95988  -0.87022  -0.87005
 Alpha  occ. eigenvalues --   -0.79679  -0.79547  -0.78310  -0.78191  -0.65234
 Alpha  occ. eigenvalues --   -0.64940  -0.61220  -0.60712  -0.59401  -0.59308
 Alpha  occ. eigenvalues --   -0.57621  -0.57586  -0.55359  -0.55226  -0.52710
 Alpha  occ. eigenvalues --   -0.52676  -0.52438  -0.52403  -0.49972  -0.49908
 Alpha  occ. eigenvalues --   -0.48087  -0.47801  -0.46721  -0.46553  -0.45937
 Alpha  occ. eigenvalues --   -0.45754  -0.45718  -0.45486  -0.43798  -0.43789
 Alpha virt. eigenvalues --    0.20329   0.22793   0.23854   0.24642   0.26047
 Alpha virt. eigenvalues --    0.26494   0.26800   0.27582   0.28560   0.29333
 Alpha virt. eigenvalues --    0.30612   0.31386   0.31616   0.31896   0.32163

 Mulliken charges:
               1
     1  C   -0.297240
     2  C   -0.310239
     3  C   -0.475997
     4  H    0.149509
     5  H    0.149438
     6  H    0.151117
     7  H    0.164519
     8  H    0.155061
     9  H    0.155681
    10  H    0.159437
    11  C   -0.299046
    12  C   -0.299658
    13  C   -0.475715
    14  H    0.149458
    15  H    0.150137
    16  H    0.151968
    17  H    0.152048
    18  H    0.155177
    19  H    0.155169
    20  H    0.160295
    21  C   -0.298425
    22  C   -0.305536
    23  C   -0.478365
    24  H    0.149599
    25  H    0.149732
    26  H    0.152221
    27  H    0.158122
    28  H    0.155042
    29  H    0.156259
    30  H    0.160276
    31  C   -0.298452
    32  C   -0.299664
    33  C   -0.475702
    34  H    0.149605
    35  H    0.149672
    36  H    0.151971
    37  H    0.151898
    38  H    0.155154
    39  H    0.155189
    40  H    0.160285
 Sum of Mulliken charges =  -0.00000

 Dipole moment (field-independent basis, Debye):
    X=             -0.0044    Y=             -0.0106    Z=             -0.0020  Tot=              0.0116
 Quadrupole moment (field-independent basis, Debye-Ang):
   XX=            -85.4659   YY=            -84.4928   ZZ=            -84.8647
   XY=             -1.3846   XZ=              0.2658   YZ=             -0.4599

 Normal termination of Gaussian 16 at Wed May  5 23:16:14 2021.
