 Gaussian 16, Revision A.03,
 Gaussian 16:  EM64L-G16RevA.03 25-Dec-2016

 -------------
 #p 6-31g* mp2
 -------------

 ------------------------------------------------------
 Input file generated by CHIRIPA (05-May-2021 14:57:24)
 ------------------------------------------------------
 Symbolic Z-matrix:
 Charge =  0 Multiplicity = 1

                         Standard orientation:
 ---------------------------------------------------------------------
 Center     Atomic      Atomic             Coordinates (Angstroms)
 Number     Number       Type             X           Y           Z
 ---------------------------------------------------------------------
      1          6           0        1.857827    2.082888    0.611652
      2          6           0        2.632879    2.028914   -0.551492
      3          6           0        3.431228    0.913462   -0.821591
      4          6           0        3.430567   -0.134822    0.097316
      5          6           0        2.669398   -0.110718    1.264933
      6          6           0        1.878523    1.014783    1.514560
      7          1           0        1.240553    2.953301    0.813519
      8          1           0        2.618773    2.856948   -1.254489
      9          1           0        4.040983    0.845495   -1.714338
     10          1           0        2.704199   -0.951635    1.946890
     11          1           0        1.277629    1.053956    2.418682
     12          7           0        4.271787   -1.321020   -0.177789
     13          8           0        4.253694   -2.231480    0.647663
     14          8           0        4.933299   -1.317841   -1.213660
     15          6           0       -1.995534    2.096227   -0.324471
     16          6           0       -1.341602    0.870581   -0.487822
     17          6           0       -2.049868   -0.330745   -0.389200
     18          6           0       -3.417253   -0.269200   -0.125080
     19          6           0       -4.097158    0.936162    0.042624
     20          6           0       -3.368804    2.125055   -0.060236
     21          1           0       -1.437533    3.024617   -0.402729
     22          1           0       -0.275180    0.845156   -0.693110
     23          1           0       -1.568654   -1.293524   -0.511290
     24          1           0       -5.161035    0.929518    0.246430
     25          1           0       -3.879280    3.075449    0.067083
     26          7           0       -4.177697   -1.534408   -0.018430
     27          8           0       -5.381676   -1.453181    0.214964
     28          8           0       -3.555353   -2.583348   -0.170252
 ---------------------------------------------------------------------

 SCF Done:  E(RHF) =  -868.336090983     A.U. after   16 cycles
 E2 =    -0.2602390125D+01 EUMP2 =    -0.87093848110752D+03

 The electronic state is 1-A.
 Alpha  occ. eigenvalues --  -20.61448 -20.61438 -20.61038 -20.61029 -15.86507
 Alpha  occ. eigenvalues --  -15.86087 -11.32138 -11.31564 -11.28736 -11.28667
 Alpha  occ. eigenvalues --  -11.28544 -11.28116 -11.28056 -11.27961 -11.27840
 Alpha  occ. eigenvalues --  -11.27735 -11.27229 -11.27020  -1.60517  -1.60109
 Alpha  occ. eigenvalues --   -1.40061  -1.39658  -1.20360  -1.19733  -1.09728
 Alpha  occ. eigenvalues --   -1.09131  -1.05757  -1.05127  -0.96498  -0.95950
 Alpha  occ. eigenvalues --   -0.87139  -0.86539  -0.83289  -0.82762  -0.78276
 Alpha  occ. eigenvalues --   -0.77778  -0.72715  -0.72305  -0.71848  -0.71508
 Alpha  occ. eigenvalues --   -0.71434  -0.70867  -0.65977  -0.65721  -0.65382
 Alpha  occ. eigenvalues --   -0.65161  -0.63055  -0.62492  -0.56334  -0.55706
 Alpha  occ. eigenvalues --   -0.54325  -0.53812  -0.53473  -0.52955  -0.49496
 Alpha  occ. eigenvalues --   -0.49456  -0.49069  -0.49054  -0.45407  -0.45039
 Alpha  occ. eigenvalues --   -0.38476  -0.37744  -0.37416  -0.36595
 Alpha virt. eigenvalues --    0.04176   0.04724   0.09993   0.11125   0.15540
 Alpha virt. eigenvalues --    0.16177   0.19453   0.21687   0.25481   0.26504
 Alpha virt. eigenvalues --    0.27242   0.29086   0.29965   0.31678   0.32162

 Mulliken charges:
               1
     1  C   -0.184794
     2  C   -0.222468
     3  C   -0.170664
     4  C    0.158831
     5  C   -0.172498
     6  C   -0.215603
     7  H    0.224319
     8  H    0.225431
     9  H    0.279377
    10  H    0.280705
    11  H    0.229690
    12  N    0.487898
    13  O   -0.456289
    14  O   -0.457776
    15  C   -0.178290
    16  C   -0.223012
    17  C   -0.174369
    18  C    0.159760
    19  C   -0.172089
    20  C   -0.217453
    21  H    0.215976
    22  H    0.235630
    23  H    0.278301
    24  H    0.276473
    25  H    0.223112
    26  N    0.487692
    27  O   -0.459768
    28  O   -0.458124
 Sum of Mulliken charges =  -0.00000

 Dipole moment (field-independent basis, Debye):
    X=             -0.0381    Y=              8.3953    Z=              0.6623  Tot=              8.4215
 Quadrupole moment (field-independent basis, Debye-Ang):
   XX=           -139.4107   YY=           -107.4136   ZZ=           -101.5541
   XY=             -2.9700   XZ=              1.7001   YZ=             -1.6958

 Normal termination of Gaussian 16 at Fri May  7 09:33:35 2021.
