 Gaussian 16, Revision A.03,
 Gaussian 16:  EM64L-G16RevA.03 25-Dec-2016

 -------------
 #p 6-31g* mp2
 -------------

 ------------------------------------------------------
 Input file generated by CHIRIPA (05-May-2021 14:51:08)
 ------------------------------------------------------
 Symbolic Z-matrix:
 Charge =  0 Multiplicity = 1

                         Standard orientation:
 ---------------------------------------------------------------------
 Center     Atomic      Atomic             Coordinates (Angstroms)
 Number     Number       Type             X           Y           Z
 ---------------------------------------------------------------------
      1          6           0       -2.370432   -0.526016    0.803591
      2          6           0       -1.987413   -1.961773    0.443200
      3          6           0       -1.305620   -2.698891    1.596287
      4          1           0       -1.468313    0.021850    1.108500
      5          1           0       -3.037623   -0.540030    1.676548
      6          1           0       -1.322250   -1.945137   -0.429668
      7          1           0       -2.890520   -2.506231    0.138930
      8          1           0       -1.966181   -2.745104    2.468138
      9          1           0       -0.389001   -2.180822    1.896310
     10          1           0       -1.040386   -3.723326    1.316924
     11          6           0       -3.052988    0.223876   -0.338997
     12          6           0       -3.436007    1.659633    0.021394
     13          6           0       -4.117800    2.396751   -1.131693
     14          1           0       -2.385797    0.237890   -1.211954
     15          1           0       -3.955107   -0.323990   -0.643906
     16          1           0       -2.532901    2.204091    0.325664
     17          1           0       -4.101171    1.642997    0.894262
     18          1           0       -5.034420    1.878682   -1.431716
     19          1           0       -3.457239    2.442964   -2.003544
     20          1           0       -4.383035    3.421186   -0.852330
     21          6           0        2.240570   -0.332618   -0.589374
     22          6           0        2.780027   -1.761459   -0.662760
     23          6           0        1.826238   -2.717335   -1.379964
     24          1           0        1.270289   -0.339810   -0.074158
     25          1           0        2.050853    0.033026   -1.608053
     26          1           0        2.969974   -2.123802    0.355691
     27          1           0        3.749227   -1.750840   -1.177692
     28          1           0        1.644978   -2.382511   -2.406433
     29          1           0        0.861297   -2.757592   -0.864338
     30          1           0        2.231584   -3.733144   -1.421043
     31          6           0        3.182851    0.634758    0.124780
     32          6           0        2.643394    2.063599    0.198166
     33          6           0        3.597182    3.019475    0.915370
     34          1           0        3.372568    0.269114    1.143459
     35          1           0        4.153132    0.641950   -0.390437
     36          1           0        1.674193    2.052980    0.713097
     37          1           0        2.453447    2.425942   -0.820286
     38          1           0        4.562123    3.059732    0.399744
     39          1           0        3.778442    2.684651    1.941838
     40          1           0        3.191836    4.035284    0.956449
 ---------------------------------------------------------------------

 SCF Done:  E(RHF) =  -470.733209112     A.U. after   11 cycles
 E2 =    -0.1583806747D+01 EUMP2 =    -0.47231701585876D+03

 The electronic state is 1-A.
 Alpha  occ. eigenvalues --  -11.21657 -11.21626 -11.21619 -11.21603 -11.21461
 Alpha  occ. eigenvalues --  -11.21429 -11.21401 -11.21361 -11.21135 -11.21108
 Alpha  occ. eigenvalues --  -11.21068 -11.21049  -1.08492  -1.08437  -1.03601
 Alpha  occ. eigenvalues --   -1.03521  -0.96045  -0.95975  -0.87035  -0.87016
 Alpha  occ. eigenvalues --   -0.79670  -0.79578  -0.78301  -0.78258  -0.65290
 Alpha  occ. eigenvalues --   -0.64927  -0.61207  -0.60735  -0.59401  -0.59352
 Alpha  occ. eigenvalues --   -0.57696  -0.57553  -0.55447  -0.55139  -0.52709
 Alpha  occ. eigenvalues --   -0.52691  -0.52437  -0.52428  -0.49970  -0.49942
 Alpha  occ. eigenvalues --   -0.48068  -0.47843  -0.46783  -0.46517  -0.46002
 Alpha  occ. eigenvalues --   -0.45798  -0.45685  -0.45547  -0.43824  -0.43803
 Alpha virt. eigenvalues --    0.19187   0.23013   0.23452   0.24840   0.25727
 Alpha virt. eigenvalues --    0.26429   0.26824   0.27749   0.28576   0.29950
 Alpha virt. eigenvalues --    0.30838   0.31079   0.31700   0.31775   0.32123

 Mulliken charges:
               1
     1  C   -0.299357
     2  C   -0.306599
     3  C   -0.477373
     4  H    0.149958
     5  H    0.149717
     6  H    0.157599
     7  H    0.152687
     8  H    0.155939
     9  H    0.154953
    10  H    0.161094
    11  C   -0.298529
    12  C   -0.299697
    13  C   -0.475734
    14  H    0.150515
    15  H    0.149713
    16  H    0.152030
    17  H    0.151804
    18  H    0.155145
    19  H    0.155374
    20  H    0.160248
    21  C   -0.302663
    22  C   -0.299011
    23  C   -0.484450
    24  H    0.152460
    25  H    0.149450
    26  H    0.152090
    27  H    0.152106
    28  H    0.154524
    29  H    0.165098
    30  H    0.160418
    31  C   -0.298207
    32  C   -0.299688
    33  C   -0.475734
    34  H    0.149659
    35  H    0.150118
    36  H    0.151195
    37  H    0.151996
    38  H    0.155376
    39  H    0.155370
    40  H    0.160407
 Sum of Mulliken charges =  -0.00000

 Dipole moment (field-independent basis, Debye):
    X=             -0.0067    Y=             -0.0087    Z=             -0.0045  Tot=              0.0118
 Quadrupole moment (field-independent basis, Debye-Ang):
   XX=            -84.2733   YY=            -85.6870   ZZ=            -84.6761
   XY=              0.3210   XZ=             -1.3469   YZ=             -0.2377

 Normal termination of Gaussian 16 at Wed May  5 15:03:52 2021.
