 Gaussian 16, Revision A.03,
 Gaussian 16:  EM64L-G16RevA.03 25-Dec-2016

 -------------
 #p 6-31g* mp2
 -------------

 ------------------------------------------------------
 Input file generated by CHIRIPA (05-May-2021 14:51:14)
 ------------------------------------------------------
 Symbolic Z-matrix:
 Charge =  0 Multiplicity = 1

                         Standard orientation:
 ---------------------------------------------------------------------
 Center     Atomic      Atomic             Coordinates (Angstroms)
 Number     Number       Type             X           Y           Z
 ---------------------------------------------------------------------
      1          6           0       -2.130540   -0.682284    0.181207
      2          6           0       -2.538576   -2.155845    0.170772
      3          6           0       -1.363556   -3.096529    0.439541
      4          1           0       -1.348707   -0.519538   -0.573243
      5          1           0       -1.681114   -0.440356    1.154286
      6          1           0       -2.988360   -2.394576   -0.801503
      7          1           0       -3.319665   -2.315064    0.925203
      8          1           0       -0.918122   -2.886897    1.417418
      9          1           0       -0.584934   -2.966860   -0.319099
     10          1           0       -1.677685   -4.144879    0.427543
     11          6           0       -3.294384    0.270506   -0.085975
     12          6           0       -2.886348    1.744067   -0.075539
     13          6           0       -4.061368    2.684751   -0.344308
     14          1           0       -3.743810    0.028578   -1.059053
     15          1           0       -4.076217    0.107759    0.668476
     16          1           0       -2.105259    1.903286   -0.829970
     17          1           0       -2.436565    1.982798    0.896736
     18          1           0       -4.839990    2.555082    0.414332
     19          1           0       -4.506802    2.475118   -1.322185
     20          1           0       -3.747239    3.733101   -0.332311
     21          6           0        3.010383   -0.485286   -0.177817
     22          6           0        1.971371   -1.606918   -0.158290
     23          6           0        2.582696   -2.983653   -0.420347
     24          1           0        3.519555   -0.482688   -1.151306
     25          1           0        3.780602   -0.695239    0.577218
     26          1           0        1.202599   -1.394206   -0.912186
     27          1           0        1.464480   -1.606724    0.815198
     28          1           0        3.335720   -3.221458    0.337944
     29          1           0        3.072351   -3.007733   -1.399255
     30          1           0        1.822337   -3.770656   -0.401897
     31          6           0        2.414541    0.897064    0.082584
     32          6           0        3.453553    2.018696    0.063057
     33          6           0        2.842228    3.395431    0.325115
     34          1           0        1.644323    1.107017   -0.672452
     35          1           0        1.905370    0.894466    1.056074
     36          1           0        3.960444    2.018502   -0.910431
     37          1           0        4.222325    1.805985    0.816953
     38          1           0        2.352574    3.419512    1.304022
     39          1           0        2.089204    3.633236   -0.433176
     40          1           0        3.602586    4.182435    0.306663
 ---------------------------------------------------------------------

 SCF Done:  E(RHF) =  -470.732032959     A.U. after   11 cycles
 E2 =    -0.1584518253D+01 EUMP2 =    -0.47231655121174D+03

 The electronic state is 1-A.
 Alpha  occ. eigenvalues --  -11.21582 -11.21580 -11.21556 -11.21527 -11.21370
 Alpha  occ. eigenvalues --  -11.21367 -11.21308 -11.21303 -11.21055 -11.21054
 Alpha  occ. eigenvalues --  -11.21018 -11.20954  -1.08438  -1.08358  -1.03578
 Alpha  occ. eigenvalues --   -1.03423  -0.96026  -0.95870  -0.86988  -0.86940
 Alpha  occ. eigenvalues --   -0.79739  -0.79430  -0.78391  -0.78002  -0.65127
 Alpha  occ. eigenvalues --   -0.64945  -0.61034  -0.60797  -0.59482  -0.59202
 Alpha  occ. eigenvalues --   -0.57853  -0.57280  -0.55284  -0.55163  -0.52707
 Alpha  occ. eigenvalues --   -0.52614  -0.52473  -0.52201  -0.49916  -0.49845
 Alpha  occ. eigenvalues --   -0.48124  -0.47659  -0.46797  -0.46436  -0.46127
 Alpha  occ. eigenvalues --   -0.45834  -0.45502  -0.45215  -0.43789  -0.43706
 Alpha virt. eigenvalues --    0.21280   0.23059   0.23425   0.24391   0.24917
 Alpha virt. eigenvalues --    0.26021   0.26638   0.27859   0.28861   0.29816
 Alpha virt. eigenvalues --    0.30145   0.30977   0.31421   0.31960   0.32013

 Mulliken charges:
               1
     1  C   -0.300290
     2  C   -0.299858
     3  C   -0.480718
     4  H    0.152400
     5  H    0.149206
     6  H    0.151248
     7  H    0.151427
     8  H    0.154434
     9  H    0.164427
    10  H    0.158833
    11  C   -0.298317
    12  C   -0.299276
    13  C   -0.475721
    14  H    0.149182
    15  H    0.149545
    16  H    0.151490
    17  H    0.152144
    18  H    0.155150
    19  H    0.155012
    20  H    0.160275
    21  C   -0.298033
    22  C   -0.302866
    23  C   -0.479763
    24  H    0.149042
    25  H    0.149263
    26  H    0.152039
    27  H    0.156134
    28  H    0.155355
    29  H    0.154602
    30  H    0.163813
    31  C   -0.298129
    32  C   -0.299688
    33  C   -0.475519
    34  H    0.149342
    35  H    0.149764
    36  H    0.151775
    37  H    0.151873
    38  H    0.155138
    39  H    0.155171
    40  H    0.160097
 Sum of Mulliken charges =  -0.00000

 Dipole moment (field-independent basis, Debye):
    X=              0.0138    Y=             -0.0074    Z=              0.0103  Tot=              0.0187
 Quadrupole moment (field-independent basis, Debye-Ang):
   XX=            -85.6033   YY=            -86.6322   ZZ=            -82.8036
   XY=              0.8016   XZ=             -0.0780   YZ=             -0.1019

 Normal termination of Gaussian 16 at Thu May  6 05:37:54 2021.
