 Gaussian 16, Revision A.03,
 Gaussian 16:  EM64L-G16RevA.03 25-Dec-2016

 -------------
 #p 6-31g* mp2
 -------------

 ------------------------------------------------------
 Input file generated by CHIRIPA (05-May-2021 14:51:13)
 ------------------------------------------------------
 Symbolic Z-matrix:
 Charge =  0 Multiplicity = 1

                         Standard orientation:
 ---------------------------------------------------------------------
 Center     Atomic      Atomic             Coordinates (Angstroms)
 Number     Number       Type             X           Y           Z
 ---------------------------------------------------------------------
      1          6           0        2.619431    0.458722   -0.071390
      2          6           0        3.937303    1.114883    0.341712
      3          6           0        3.848614    2.640548    0.389396
      4          1           0        2.319928    0.841002   -1.056837
      5          1           0        1.831576    0.759294    0.633121
      6          1           0        4.722735    0.812058   -0.362567
      7          1           0        4.233801    0.730854    1.326204
      8          1           0        3.084965    2.959834    1.105984
      9          1           0        3.576677    3.041500   -0.592383
     10          1           0        4.801642    3.088990    0.686880
     11          6           0        2.692224   -1.066302   -0.123646
     12          6           0        1.374353   -1.722462   -0.536748
     13          6           0        1.463042   -3.248128   -0.584432
     14          1           0        3.480079   -1.366873   -0.828157
     15          1           0        2.991727   -1.448581    0.861801
     16          1           0        1.077854   -1.338433   -1.521241
     17          1           0        0.588920   -1.419637    0.167531
     18          1           0        1.734979   -3.649079    0.397347
     19          1           0        2.226691   -3.567413   -1.301020
     20          1           0        0.510014   -3.696569   -0.881916
     21          6           0       -2.462664   -0.288895    0.538931
     22          6           0       -2.797425   -1.644126   -0.084983
     23          6           0       -2.405044   -2.820054    0.810017
     24          1           0       -1.385674   -0.246282    0.751582
     25          1           0       -2.976011   -0.201694    1.506540
     26          1           0       -2.284704   -1.728177   -1.051766
     27          1           0       -3.873712   -1.683445   -0.296349
     28          1           0       -2.926951   -2.763867    1.770776
     29          1           0       -1.328914   -2.808852    1.011067
     30          1           0       -2.653270   -3.779061    0.344667
     31          6           0       -2.848991    0.896474   -0.343894
     32          6           0       -2.514231    2.251706    0.280019
     33          6           0       -2.906611    3.427634   -0.614981
     34          1           0       -2.335645    0.809273   -1.311503
     35          1           0       -3.925982    0.853861   -0.556545
     36          1           0       -1.437943    2.291024    0.491385
     37          1           0       -3.026951    2.335757    1.246802
     38          1           0       -3.982742    3.416432   -0.816031
     39          1           0       -2.384705    3.371445   -1.575740
     40          1           0       -2.658386    4.386640   -0.149630
 ---------------------------------------------------------------------

 SCF Done:  E(RHF) =  -470.732737743     A.U. after   11 cycles
 E2 =    -0.1584421555D+01 EUMP2 =    -0.47231715929813D+03

 The electronic state is 1-A.
 Alpha  occ. eigenvalues --  -11.21653 -11.21650 -11.21581 -11.21574 -11.21473
 Alpha  occ. eigenvalues --  -11.21412 -11.21374 -11.21315 -11.21108 -11.21101
 Alpha  occ. eigenvalues --  -11.21052 -11.21027  -1.08511  -1.08392  -1.03621
 Alpha  occ. eigenvalues --   -1.03474  -0.96054  -0.95933  -0.87070  -0.86949
 Alpha  occ. eigenvalues --   -0.79667  -0.79564  -0.78370  -0.78174  -0.65293
 Alpha  occ. eigenvalues --   -0.64914  -0.61219  -0.60751  -0.59355  -0.59318
 Alpha  occ. eigenvalues --   -0.57644  -0.57558  -0.55406  -0.55145  -0.52735
 Alpha  occ. eigenvalues --   -0.52635  -0.52473  -0.52359  -0.50024  -0.49850
 Alpha  occ. eigenvalues --   -0.48048  -0.47829  -0.46890  -0.46495  -0.46154
 Alpha  occ. eigenvalues --   -0.45828  -0.45706  -0.45201  -0.43843  -0.43752
 Alpha virt. eigenvalues --    0.20179   0.22522   0.23459   0.24712   0.25399
 Alpha virt. eigenvalues --    0.26236   0.26909   0.27766   0.28959   0.29746
 Alpha virt. eigenvalues --    0.30319   0.31139   0.31536   0.31822   0.32172

 Mulliken charges:
               1
     1  C   -0.299314
     2  C   -0.299667
     3  C   -0.475808
     4  H    0.149596
     5  H    0.149303
     6  H    0.152242
     7  H    0.152197
     8  H    0.155263
     9  H    0.155227
    10  H    0.160507
    11  C   -0.297512
    12  C   -0.309804
    13  C   -0.477498
    14  H    0.149912
    15  H    0.149777
    16  H    0.151502
    17  H    0.160784
    18  H    0.155069
    19  H    0.155493
    20  H    0.163231
    21  C   -0.303595
    22  C   -0.300436
    23  C   -0.480814
    24  H    0.153880
    25  H    0.149262
    26  H    0.153203
    27  H    0.152141
    28  H    0.154749
    29  H    0.160980
    30  H    0.159770
    31  C   -0.297760
    32  C   -0.300164
    33  C   -0.475635
    34  H    0.149842
    35  H    0.149496
    36  H    0.152383
    37  H    0.151677
    38  H    0.155072
    39  H    0.155235
    40  H    0.160214
 Sum of Mulliken charges =  -0.00000

 Dipole moment (field-independent basis, Debye):
    X=              0.0301    Y=             -0.0090    Z=             -0.0065  Tot=              0.0321
 Quadrupole moment (field-independent basis, Debye-Ang):
   XX=            -83.9430   YY=            -86.9026   ZZ=            -83.9096
   XY=              0.0873   XZ=             -0.7828   YZ=              0.3890

 Normal termination of Gaussian 16 at Wed May  5 18:24:34 2021.
