 Gaussian 16, Revision A.03,
 Gaussian 16:  EM64L-G16RevA.03 25-Dec-2016

 -------------
 #p 6-31g* mp2
 -------------

 ------------------------------------------------------
 Input file generated by CHIRIPA (05-May-2021 14:51:10)
 ------------------------------------------------------
 Symbolic Z-matrix:
 Charge =  0 Multiplicity = 1

                         Standard orientation:
 ---------------------------------------------------------------------
 Center     Atomic      Atomic             Coordinates (Angstroms)
 Number     Number       Type             X           Y           Z
 ---------------------------------------------------------------------
      1          6           0       -3.360854    0.180740   -0.525127
      2          6           0       -3.619836   -1.166718    0.149611
      3          6           0       -4.387948   -2.138661   -0.746562
      4          1           0       -4.320985    0.628566   -0.815893
      5          1           0       -2.798794    0.015417   -1.454725
      6          1           0       -4.180040   -0.998779    1.078365
      7          1           0       -2.658988   -1.611300    0.438976
      8          1           0       -3.830556   -2.335521   -1.668061
      9          1           0       -5.360251   -1.719521   -1.025039
     10          1           0       -4.562190   -3.095441   -0.244494
     11          6           0       -2.593900    1.163145    0.358270
     12          6           0       -2.334917    2.510603   -0.316467
     13          6           0       -1.566806    3.482546    0.579705
     14          1           0       -3.155959    1.328468    1.287868
     15          1           0       -1.633769    0.715319    0.649036
     16          1           0       -3.295766    2.955185   -0.605833
     17          1           0       -1.774714    2.342664   -1.245222
     18          1           0       -0.594503    3.063406    0.858183
     19          1           0       -2.124198    3.679406    1.501204
     20          1           0       -1.392564    4.439326    0.077638
     21          6           0        2.484880   -0.965149    0.588313
     22          6           0        1.277756   -1.640106   -0.063815
     23          6           0        0.301558   -2.221795    0.959156
     24          1           0        3.007180   -1.695069    1.221846
     25          1           0        2.133222   -0.166626    1.256215
     26          1           0        1.631649   -2.436207   -0.731347
     27          1           0        0.758379   -0.908546   -0.696019
     28          1           0       -0.079513   -1.435281    1.618535
     29          1           0        0.798720   -2.971622    1.583007
     30          1           0       -0.553825   -2.699483    0.471308
     31          6           0        3.469874   -0.378736   -0.421456
     32          6           0        4.676998    0.296221    0.230672
     33          6           0        5.653196    0.877910   -0.792300
     34          1           0        3.821532   -1.177260   -1.089358
     35          1           0        2.947574    0.351184   -1.054989
     36          1           0        5.196375   -0.435340    0.862876
     37          1           0        4.323105    1.092322    0.898203
     38          1           0        5.156034    1.627738   -1.416151
     39          1           0        6.034267    0.091396   -1.451678
     40          1           0        6.508579    1.355598   -0.304451
 ---------------------------------------------------------------------

 SCF Done:  E(RHF) =  -470.732981713     A.U. after   11 cycles
 E2 =    -0.1583492092D+01 EUMP2 =    -0.47231647380549D+03

 The electronic state is 1-A.
 Alpha  occ. eigenvalues --  -11.21698 -11.21639 -11.21621 -11.21486 -11.21470
 Alpha  occ. eigenvalues --  -11.21407 -11.21395 -11.21328 -11.21153 -11.21107
 Alpha  occ. eigenvalues --  -11.21098 -11.21033  -1.08501  -1.08409  -1.03604
 Alpha  occ. eigenvalues --   -1.03508  -0.96050  -0.95970  -0.87077  -0.86977
 Alpha  occ. eigenvalues --   -0.79694  -0.79547  -0.78310  -0.78220  -0.65231
 Alpha  occ. eigenvalues --   -0.64966  -0.61022  -0.60928  -0.59463  -0.59280
 Alpha  occ. eigenvalues --   -0.57682  -0.57550  -0.55374  -0.55229  -0.52792
 Alpha  occ. eigenvalues --   -0.52648  -0.52483  -0.52372  -0.50009  -0.49903
 Alpha  occ. eigenvalues --   -0.48025  -0.47845  -0.46745  -0.46562  -0.45880
 Alpha  occ. eigenvalues --   -0.45790  -0.45735  -0.45605  -0.43816  -0.43753
 Alpha virt. eigenvalues --    0.19815   0.23139   0.23950   0.24285   0.26192
 Alpha virt. eigenvalues --    0.26734   0.27295   0.27427   0.27839   0.29635
 Alpha virt. eigenvalues --    0.30429   0.31632   0.31709   0.31870   0.32173

 Mulliken charges:
               1
     1  C   -0.297352
     2  C   -0.308873
     3  C   -0.475636
     4  H    0.149481
     5  H    0.148914
     6  H    0.151362
     7  H    0.162309
     8  H    0.154592
     9  H    0.155086
    10  H    0.159953
    11  C   -0.302413
    12  C   -0.299510
    13  C   -0.475532
    14  H    0.149592
    15  H    0.153033
    16  H    0.152258
    17  H    0.151526
    18  H    0.154231
    19  H    0.155409
    20  H    0.160369
    21  C   -0.298561
    22  C   -0.301004
    23  C   -0.481410
    24  H    0.150160
    25  H    0.149348
    26  H    0.152504
    27  H    0.152089
    28  H    0.157521
    29  H    0.156130
    30  H    0.163881
    31  C   -0.298359
    32  C   -0.299724
    33  C   -0.475758
    34  H    0.149706
    35  H    0.149588
    36  H    0.152067
    37  H    0.152078
    38  H    0.155278
    39  H    0.155219
    40  H    0.160445
 Sum of Mulliken charges =  -0.00000

 Dipole moment (field-independent basis, Debye):
    X=              0.0423    Y=             -0.0244    Z=              0.0197  Tot=              0.0526
 Quadrupole moment (field-independent basis, Debye-Ang):
   XX=            -84.7582   YY=            -84.7040   ZZ=            -85.3184
   XY=             -1.6518   XZ=             -0.1781   YZ=             -0.0231

 Normal termination of Gaussian 16 at Thu May  6 00:37:59 2021.
