 Gaussian 16, Revision A.03,
 Gaussian 16:  EM64L-G16RevA.03 25-Dec-2016

 -------------
 #p 6-31g* mp2
 -------------

 ------------------------------------------------------
 Input file generated by CHIRIPA (05-May-2021 14:57:22)
 ------------------------------------------------------
 Symbolic Z-matrix:
 Charge =  0 Multiplicity = 1

                         Standard orientation:
 ---------------------------------------------------------------------
 Center     Atomic      Atomic             Coordinates (Angstroms)
 Number     Number       Type             X           Y           Z
 ---------------------------------------------------------------------
      1          6           0       -4.057574    2.252699    0.706960
      2          6           0       -4.912179    1.145644    0.731438
      3          6           0       -4.495379   -0.084634    0.214481
      4          6           0       -3.211662   -0.172656   -0.321814
      5          6           0       -2.336991    0.912118   -0.360639
      6          6           0       -2.774969    2.132615    0.161960
      7          1           0       -4.389580    3.204609    1.110736
      8          1           0       -5.908806    1.235978    1.154072
      9          1           0       -5.136508   -0.957750    0.220692
     10          1           0       -1.349181    0.791251   -0.788473
     11          1           0       -2.109125    2.990684    0.141615
     12          7           0       -2.759204   -1.469918   -0.872079
     13          8           0       -1.623454   -1.521448   -1.339042
     14          8           0       -3.548885   -2.410619   -0.825995
     15          6           0        1.614998   -1.559308    1.357220
     16          6           0        1.234528   -0.274297    0.956581
     17          6           0        2.152170    0.575452    0.331754
     18          6           0        3.447801    0.105621    0.122256
     19          6           0        3.857169   -1.169296    0.509934
     20          6           0        2.922798   -2.001926    1.133012
     21          1           0        0.895654   -2.212764    1.841921
     22          1           0        0.219555    0.072113    1.129419
     23          1           0        1.884357    1.575003    0.011455
     24          1           0        4.876120   -1.486509    0.324107
     25          1           0        3.221078   -2.999386    1.443090
     26          7           0        4.428122    0.996151   -0.538294
     27          8           0        5.563517    0.558500   -0.711437
     28          8           0        4.042541    2.114936   -0.870385
 ---------------------------------------------------------------------

 SCF Done:  E(RHF) =  -868.337698601     A.U. after   16 cycles
 E2 =    -0.2600611136D+01 EUMP2 =    -0.87093830973640D+03

 The electronic state is 1-A.
 Alpha  occ. eigenvalues --  -20.61523 -20.61517 -20.60617 -20.60603 -15.86568
 Alpha  occ. eigenvalues --  -15.85666 -11.31992 -11.30947 -11.28558 -11.28497
 Alpha  occ. eigenvalues --  -11.28216 -11.27581 -11.27562 -11.27508 -11.27480
 Alpha  occ. eigenvalues --  -11.27167 -11.26519 -11.26446  -1.60603  -1.59689
 Alpha  occ. eigenvalues --   -1.40151  -1.39247  -1.20147  -1.19099  -1.09515
 Alpha  occ. eigenvalues --   -1.08489  -1.05552  -1.04517  -0.96348  -0.95350
 Alpha  occ. eigenvalues --   -0.86937  -0.85904  -0.83171  -0.82212  -0.78238
 Alpha  occ. eigenvalues --   -0.77281  -0.72772  -0.71946  -0.71885  -0.71219
 Alpha  occ. eigenvalues --   -0.71007  -0.70194  -0.65780  -0.65546  -0.64761
 Alpha  occ. eigenvalues --   -0.64536  -0.62910  -0.61857  -0.55997  -0.54966
 Alpha  occ. eigenvalues --   -0.53888  -0.53631  -0.52789  -0.52584  -0.49545
 Alpha  occ. eigenvalues --   -0.49536  -0.48651  -0.48633  -0.45541  -0.44673
 Alpha  occ. eigenvalues --   -0.38099  -0.37161  -0.36996  -0.36094
 Alpha virt. eigenvalues --    0.04253   0.05265   0.10370   0.11583   0.15776
 Alpha virt. eigenvalues --    0.16714   0.20206   0.21944   0.25728   0.27336
 Alpha virt. eigenvalues --    0.28218   0.29185   0.30353   0.31061   0.31876

 Mulliken charges:
               1
     1  C   -0.170369
     2  C   -0.217511
     3  C   -0.170981
     4  C    0.157324
     5  C   -0.181641
     6  C   -0.219837
     7  H    0.229108
     8  H    0.226494
     9  H    0.277447
    10  H    0.277104
    11  H    0.226435
    12  N    0.486667
    13  O   -0.459466
    14  O   -0.458432
    15  C   -0.165615
    16  C   -0.212767
    17  C   -0.173937
    18  C    0.159270
    19  C   -0.170419
    20  C   -0.217902
    21  H    0.228559
    22  H    0.218997
    23  H    0.267310
    24  H    0.275226
    25  H    0.224245
    26  N    0.488438
    27  O   -0.460012
    28  O   -0.463732
 Sum of Mulliken charges =  -0.00000

 Dipole moment (field-independent basis, Debye):
    X=             -5.2874    Y=              1.2865    Z=              4.2892  Tot=              6.9289
 Quadrupole moment (field-independent basis, Debye-Ang):
   XX=           -111.6069   YY=           -104.1406   ZZ=           -106.7724
   XY=            -27.3055   XZ=              0.8882   YZ=             -2.8440

 Normal termination of Gaussian 16 at Thu May  6 14:31:39 2021.
