 Gaussian 16, Revision A.03,
 Gaussian 16:  EM64L-G16RevA.03 25-Dec-2016

 -------------
 #p 6-31g* mp2
 -------------

 ------------------------------------------------------
 Input file generated by CHIRIPA (05-May-2021 14:53:13)
 ------------------------------------------------------
 Symbolic Z-matrix:
 Charge =  0 Multiplicity = 1

                         Standard orientation:
 ---------------------------------------------------------------------
 Center     Atomic      Atomic             Coordinates (Angstroms)
 Number     Number       Type             X           Y           Z
 ---------------------------------------------------------------------
      1          6           0        4.685503    0.549309    0.549493
      2          6           0        3.248268    0.703574    0.050953
      3          6           0        2.409545    1.622182    0.940052
      4          1           0        4.670852    0.155898    1.575143
      5          1           0        5.156511    1.540683    0.601682
      6          1           0        2.780554   -0.287939   -0.001598
      7          1           0        3.266347    1.096483   -0.973699
      8          1           0        2.850296    2.623390    0.983884
      9          1           0        2.361743    1.231102    1.961508
     10          1           0        1.385730    1.718314    0.565324
     11          6           0        5.536463   -0.366096   -0.328930
     12          6           0        6.973699   -0.520361    0.169610
     13          6           0        7.812421   -1.438969   -0.719489
     14          1           0        5.065456   -1.357471   -0.381119
     15          1           0        5.551115    0.027314   -1.354580
     16          1           0        6.955619   -0.913270    1.194262
     17          1           0        7.441413    0.471152    0.222161
     18          1           0        7.860223   -1.047890   -1.740945
     19          1           0        7.371670   -2.440177   -0.763321
     20          1           0        8.836236   -1.535102   -0.344760
     21          6           0       -1.751620    1.060319   -0.333483
     22          6           0       -2.925678    1.759536   -0.632153
     23          6           0       -4.173041    1.142415   -0.498753
     24          6           0       -4.209640   -0.180994   -0.062246
     25          6           0       -3.057648   -0.904159    0.243101
     26          6           0       -1.821229   -0.266957    0.102422
     27          1           0       -0.786889    1.547513   -0.439939
     28          1           0       -2.874647    2.790410   -0.970887
     29          1           0       -5.097620    1.660328   -0.723113
     30          1           0       -3.140439   -1.930799    0.578621
     31          1           0       -0.911082   -0.812431    0.335093
     32          7           0       -5.524374   -0.844941    0.082831
     33          8           0       -5.529667   -2.011700    0.469206
     34          8           0       -6.524674   -0.186014   -0.192580
 ---------------------------------------------------------------------

 SCF Done:  E(RHF) =  -669.535448213     A.U. after   15 cycles
 E2 =    -0.2090812995D+01 EUMP2 =    -0.67162626120789D+03

 The electronic state is 1-A.
 Alpha  occ. eigenvalues --  -20.60739 -20.60734 -15.85792 -11.31155 -11.27724
 Alpha  occ. eigenvalues --  -11.27720 -11.27453 -11.26739 -11.26728 -11.22619
 Alpha  occ. eigenvalues --  -11.22280 -11.22161 -11.22112 -11.21995 -11.21495
 Alpha  occ. eigenvalues --   -1.59814  -1.39368  -1.19327  -1.09174  -1.08722
 Alpha  occ. eigenvalues --   -1.04730  -1.04305  -0.96758  -0.95559  -0.87774
 Alpha  occ. eigenvalues --   -0.86126  -0.82393  -0.80375  -0.78943  -0.77438
 Alpha  occ. eigenvalues --   -0.72010  -0.71137  -0.70464  -0.65798  -0.64980
 Alpha  occ. eigenvalues --   -0.64738  -0.62080  -0.61688  -0.60203  -0.58372
 Alpha  occ. eigenvalues --   -0.56019  -0.55279  -0.53445  -0.53160  -0.53049
 Alpha  occ. eigenvalues --   -0.52821  -0.50677  -0.48774  -0.48765  -0.48681
 Alpha  occ. eigenvalues --   -0.47397  -0.46492  -0.46390  -0.44774  -0.44550
 Alpha  occ. eigenvalues --   -0.37303  -0.36334
 Alpha virt. eigenvalues --    0.05090   0.11317   0.16558   0.19230   0.22456
 Alpha virt. eigenvalues --    0.23881   0.25708   0.25901   0.26624   0.27323
 Alpha virt. eigenvalues --    0.28588   0.29892   0.30763   0.31450   0.32055

 Mulliken charges:
               1
     1  C   -0.298959
     2  C   -0.299933
     3  C   -0.479824
     4  H    0.151360
     5  H    0.151549
     6  H    0.148967
     7  H    0.153063
     8  H    0.160517
     9  H    0.160018
    10  H    0.149557
    11  C   -0.298799
    12  C   -0.300246
    13  C   -0.476102
    14  H    0.149843
    15  H    0.150442
    16  H    0.152803
    17  H    0.152757
    18  H    0.155721
    19  H    0.155755
    20  H    0.161878
    21  C   -0.175607
    22  C   -0.219499
    23  C   -0.170799
    24  C    0.158405
    25  C   -0.170967
    26  C   -0.220839
    27  H    0.233378
    28  H    0.223836
    29  H    0.275464
    30  H    0.275479
    31  H    0.223778
    32  N    0.488028
    33  O   -0.460545
    34  O   -0.460478
 Sum of Mulliken charges =  -0.00000

 Dipole moment (field-independent basis, Debye):
    X=              4.8759    Y=              2.3448    Z=             -0.4857  Tot=              5.4322
 Quadrupole moment (field-independent basis, Debye-Ang):
   XX=           -132.6682   YY=            -92.0064   ZZ=            -94.9686
   XY=            -12.2166   XZ=              3.0173   YZ=             -2.3400

 Normal termination of Gaussian 16 at Thu May  6 10:30:33 2021.
