 Gaussian 16, Revision A.03,
 Gaussian 16:  EM64L-G16RevA.03 25-Dec-2016

 -------------
 #p 6-31g* mp2
 -------------

 ------------------------------------------------------
 Input file generated by CHIRIPA (05-May-2021 14:55:23)
 ------------------------------------------------------
 Symbolic Z-matrix:
 Charge =  0 Multiplicity = 1

                         Standard orientation:
 ---------------------------------------------------------------------
 Center     Atomic      Atomic             Coordinates (Angstroms)
 Number     Number       Type             X           Y           Z
 ---------------------------------------------------------------------
      1          6           0       -3.846459   -2.282584    0.624628
      2          6           0       -2.460224   -2.228011    0.446037
      3          6           0       -1.847379   -1.052832    0.001152
      4          6           0       -2.654757    0.053920   -0.256784
      5          6           0       -4.038390    0.030841   -0.088507
      6          6           0       -4.629737   -1.154971    0.357258
      7          1           0       -4.314181   -3.199621    0.970567
      8          1           0       -1.849425   -3.102184    0.652898
      9          1           0       -0.776401   -0.982972   -0.145630
     10          1           0       -4.620972    0.918551   -0.302954
     11          1           0       -5.706536   -1.194458    0.495061
     12          7           0       -2.017345    1.303658   -0.728229
     13          8           0       -2.750845    2.264954   -0.948516
     14          8           0       -0.796312    1.298243   -0.868535
     15          6           0        3.763381   -0.530138    0.299003
     16          6           0        4.826049   -0.929364   -0.725369
     17          6           0        5.277731   -2.382143   -0.573007
     18          1           0        4.161117   -0.687754    1.310886
     19          1           0        2.896345   -1.197327    0.196522
     20          1           0        5.690257   -0.260742   -0.621914
     21          1           0        4.425805   -0.770600   -1.734931
     22          1           0        4.430333   -3.064092   -0.697363
     23          1           0        5.701969   -2.551336    0.421978
     24          1           0        6.037520   -2.646278   -1.315175
     25          6           0        3.301733    0.919391    0.159451
     26          6           0        2.239065    1.318618    1.183824
     27          6           0        1.787384    2.771396    1.031461
     28          1           0        4.168769    1.586580    0.261933
     29          1           0        2.903997    1.077006   -0.852432
     30          1           0        2.639309    1.159852    2.193386
     31          1           0        1.374857    0.649994    1.080369
     32          1           0        1.363145    2.940589    0.036477
     33          1           0        2.634781    3.453345    1.155817
     34          1           0        1.027595    3.035531    1.773629
 ---------------------------------------------------------------------

 SCF Done:  E(RHF) =  -669.536087478     A.U. after   15 cycles
 E2 =    -0.2092123265D+01 EUMP2 =    -0.67162821074286D+03

 The electronic state is 1-A.
 Alpha  occ. eigenvalues --  -20.61000 -20.60991 -15.86020 -11.31321 -11.27883
 Alpha  occ. eigenvalues --  -11.27875 -11.27610 -11.26883 -11.26873 -11.21289
 Alpha  occ. eigenvalues --  -11.21004 -11.20910 -11.20669 -11.20595 -11.19689
 Alpha  occ. eigenvalues --   -1.60051  -1.39610  -1.19486  -1.08894  -1.07831
 Alpha  occ. eigenvalues --   -1.04879  -1.02839  -0.95747  -0.95283  -0.86312
 Alpha  occ. eigenvalues --   -0.86273  -0.82578  -0.78973  -0.77668  -0.77574
 Alpha  occ. eigenvalues --   -0.72266  -0.71362  -0.70595  -0.65153  -0.64884
 Alpha  occ. eigenvalues --   -0.64440  -0.62230  -0.60192  -0.58735  -0.56904
 Alpha  occ. eigenvalues --   -0.55384  -0.54555  -0.53208  -0.52973  -0.51986
 Alpha  occ. eigenvalues --   -0.51718  -0.49377  -0.48997  -0.48859  -0.47272
 Alpha  occ. eigenvalues --   -0.45995  -0.45222  -0.45016  -0.44904  -0.43125
 Alpha  occ. eigenvalues --   -0.37461  -0.36477
 Alpha virt. eigenvalues --    0.04863   0.11151   0.16357   0.20476   0.22995
 Alpha virt. eigenvalues --    0.24648   0.25846   0.27482   0.27895   0.28654
 Alpha virt. eigenvalues --    0.29186   0.30893   0.31578   0.32246   0.32868

 Mulliken charges:
               1
     1  C   -0.170412
     2  C   -0.218919
     3  C   -0.172197
     4  C    0.157547
     5  C   -0.170466
     6  C   -0.218585
     7  H    0.226169
     8  H    0.224281
     9  H    0.277860
    10  H    0.275901
    11  H    0.223940
    12  N    0.490602
    13  O   -0.458416
    14  O   -0.462245
    15  C   -0.295695
    16  C   -0.299457
    17  C   -0.474898
    18  H    0.147606
    19  H    0.140739
    20  H    0.152510
    21  H    0.153127
    22  H    0.151632
    23  H    0.154284
    24  H    0.159754
    25  C   -0.299963
    26  C   -0.297072
    27  C   -0.478087
    28  H    0.147457
    29  H    0.157752
    30  H    0.143866
    31  H    0.151018
    32  H    0.179513
    33  H    0.146334
    34  H    0.154520
 Sum of Mulliken charges =  -0.00000

 Dipole moment (field-independent basis, Debye):
    X=             -2.5093    Y=             -4.2956    Z=              1.4964  Tot=              5.1950
 Quadrupole moment (field-independent basis, Debye-Ang):
   XX=            -78.9685   YY=            -95.7517   ZZ=            -96.3697
   XY=             10.3050   XZ=             -3.6670   YZ=              0.8593

 Normal termination of Gaussian 16 at Thu May  6 09:27:24 2021.
