 Gaussian 16, Revision A.03,
 Gaussian 16:  EM64L-G16RevA.03 25-Dec-2016

 -------------
 #p 6-31g* mp2
 -------------

 ------------------------------------------------------
 Input file generated by CHIRIPA (05-May-2021 14:51:12)
 ------------------------------------------------------
 Symbolic Z-matrix:
 Charge =  0 Multiplicity = 1

                         Standard orientation:
 ---------------------------------------------------------------------
 Center     Atomic      Atomic             Coordinates (Angstroms)
 Number     Number       Type             X           Y           Z
 ---------------------------------------------------------------------
      1          6           0       -2.521261    0.912319    0.232513
      2          6           0       -2.876525    2.360781   -0.104726
      3          6           0       -2.325939    3.357449    0.915716
      4          1           0       -2.909576    0.669182    1.231032
      5          1           0       -1.428352    0.813952    0.289683
      6          1           0       -3.968397    2.456079   -0.162605
      7          1           0       -2.487486    2.600439   -1.102638
      8          1           0       -1.234378    3.291622    0.968271
      9          1           0       -2.723704    3.146442    1.913644
     10          1           0       -2.591596    4.386748    0.655273
     11          6           0       -3.064691   -0.095857   -0.778423
     12          6           0       -2.709427   -1.544319   -0.441185
     13          6           0       -3.260013   -2.540986   -1.461627
     14          1           0       -4.157601    0.002511   -0.835593
     15          1           0       -2.676377    0.147281   -1.776943
     16          1           0       -3.098466   -1.783977    0.556727
     17          1           0       -1.617555   -1.639617   -0.383305
     18          1           0       -2.862249   -2.329979   -2.459555
     19          1           0       -4.351574   -2.475160   -1.514181
     20          1           0       -2.994356   -3.570285   -1.201184
     21          6           0        2.396136   -0.524685    0.915130
     22          6           0        1.414428   -1.692920    0.817854
     23          6           0        0.627943   -1.913366    2.110385
     24          1           0        3.093746   -0.708289    1.743727
     25          1           0        1.842782    0.389980    1.169259
     26          1           0        1.969288   -2.604843    0.562623
     27          1           0        0.719194   -1.506603   -0.010731
     28          1           0        0.049471   -1.019846    2.366498
     29          1           0        1.306669   -2.124325    2.943109
     30          1           0       -0.067830   -2.753217    2.018686
     31          6           0        3.189816   -0.291778   -0.369219
     32          6           0        4.171524    0.876457   -0.271943
     33          6           0        4.958009    1.096904   -1.564475
     34          1           0        3.743170   -1.206443   -0.623349
     35          1           0        2.492206   -0.108173   -1.197817
     36          1           0        4.866759    0.690142    0.556641
     37          1           0        3.616664    1.788380   -0.016713
     38          1           0        4.279284    1.307863   -2.397199
     39          1           0        5.536481    0.203383   -1.820587
     40          1           0        5.653783    1.936755   -1.472777
 ---------------------------------------------------------------------

 SCF Done:  E(RHF) =  -470.733241267     A.U. after   11 cycles
 E2 =    -0.1583628297D+01 EUMP2 =    -0.47231686956430D+03

 The electronic state is 1-A.
 Alpha  occ. eigenvalues --  -11.21646 -11.21630 -11.21615 -11.21572 -11.21447
 Alpha  occ. eigenvalues --  -11.21439 -11.21381 -11.21379 -11.21117 -11.21095
 Alpha  occ. eigenvalues --  -11.21070 -11.21032  -1.08486  -1.08435  -1.03580
 Alpha  occ. eigenvalues --   -1.03520  -0.96006  -0.95990  -0.87022  -0.87004
 Alpha  occ. eigenvalues --   -0.79661  -0.79571  -0.78316  -0.78237  -0.65257
 Alpha  occ. eigenvalues --   -0.64948  -0.61088  -0.60828  -0.59448  -0.59283
 Alpha  occ. eigenvalues --   -0.57678  -0.57535  -0.55299  -0.55276  -0.52705
 Alpha  occ. eigenvalues --   -0.52669  -0.52445  -0.52394  -0.49978  -0.49909
 Alpha  occ. eigenvalues --   -0.47990  -0.47909  -0.46880  -0.46472  -0.46000
 Alpha  occ. eigenvalues --   -0.45794  -0.45728  -0.45436  -0.43810  -0.43799
 Alpha virt. eigenvalues --    0.19900   0.23267   0.23706   0.24203   0.25927
 Alpha virt. eigenvalues --    0.26562   0.27140   0.27671   0.28042   0.29596
 Alpha virt. eigenvalues --    0.30359   0.31213   0.31636   0.31915   0.32349

 Mulliken charges:
               1
     1  C   -0.300547
     2  C   -0.299686
     3  C   -0.475647
     4  H    0.150184
     5  H    0.150353
     6  H    0.152353
     7  H    0.151887
     8  H    0.154565
     9  H    0.155414
    10  H    0.160530
    11  C   -0.297835
    12  C   -0.309245
    13  C   -0.475174
    14  H    0.149764
    15  H    0.149118
    16  H    0.152369
    17  H    0.161863
    18  H    0.154857
    19  H    0.155133
    20  H    0.160184
    21  C   -0.298459
    22  C   -0.305915
    23  C   -0.476877
    24  H    0.150085
    25  H    0.149399
    26  H    0.152176
    27  H    0.155970
    28  H    0.157366
    29  H    0.154818
    30  H    0.161095
    31  C   -0.298293
    32  C   -0.299639
    33  C   -0.475718
    34  H    0.149777
    35  H    0.149073
    36  H    0.152157
    37  H    0.151802
    38  H    0.155070
    39  H    0.155275
    40  H    0.160400
 Sum of Mulliken charges =  -0.00000

 Dipole moment (field-independent basis, Debye):
    X=             -0.0048    Y=             -0.0064    Z=              0.0132  Tot=              0.0155
 Quadrupole moment (field-independent basis, Debye-Ang):
   XX=            -83.9819   YY=            -85.1556   ZZ=            -85.5424
   XY=             -0.8868   XZ=              0.0806   YZ=             -0.5834

 Normal termination of Gaussian 16 at Wed May  5 16:48:42 2021.
