 Gaussian 16, Revision A.03,
 Gaussian 16:  EM64L-G16RevA.03 25-Dec-2016

 -------------
 #p 6-31g* mp2
 -------------

 ------------------------------------------------------
 Input file generated by CHIRIPA (05-May-2021 14:55:19)
 ------------------------------------------------------
 Symbolic Z-matrix:
 Charge =  0 Multiplicity = 1

                         Standard orientation:
 ---------------------------------------------------------------------
 Center     Atomic      Atomic             Coordinates (Angstroms)
 Number     Number       Type             X           Y           Z
 ---------------------------------------------------------------------
      1          6           0       -2.451011   -1.410545   -2.130434
      2          6           0       -3.349843   -1.805991   -1.134318
      3          6           0       -3.396222   -1.130671    0.088931
      4          6           0       -2.525549   -0.059454    0.283130
      5          6           0       -1.618832    0.358434   -0.689766
      6          6           0       -1.589893   -0.331497   -1.905375
      7          1           0       -2.421756   -1.940825   -3.077716
      8          1           0       -4.019775   -2.643636   -1.306324
      9          1           0       -4.082195   -1.415727    0.877349
     10          1           0       -0.963407    1.197208   -0.489032
     11          1           0       -0.890814   -0.022178   -2.677162
     12          7           0       -2.565417    0.663211    1.574085
     13          8           0       -1.787887    1.603773    1.720463
     14          8           0       -3.373440    0.275389    2.415114
     15          6           0        3.572176   -0.117495    0.495302
     16          6           0        4.081639   -1.518554    0.155496
     17          6           0        4.775230   -2.197972    1.336647
     18          1           0        4.415549    0.500724    0.832158
     19          1           0        2.875283   -0.183740    1.342266
     20          1           0        4.776301   -1.449856   -0.691464
     21          1           0        3.236987   -2.133454   -0.180772
     22          1           0        4.087543   -2.295787    2.182885
     23          1           0        5.635603   -1.608304    1.669291
     24          1           0        5.131566   -3.198310    1.071680
     25          6           0        2.876407    0.574605   -0.675436
     26          6           0        2.366944    1.975663   -0.335629
     27          6           0        1.673353    2.655080   -1.516780
     28          1           0        3.573300    0.640849   -1.522399
     29          1           0        2.033034   -0.043615   -1.012291
     30          1           0        3.211596    2.590563    0.000639
     31          1           0        1.672283    1.906965    0.511331
     32          1           0        0.812980    2.065414   -1.849424
     33          1           0        2.361040    2.752896   -2.363019
     34          1           0        1.317017    3.655419   -1.251813
 ---------------------------------------------------------------------

 SCF Done:  E(RHF) =  -669.535581425     A.U. after   15 cycles
 E2 =    -0.2092279733D+01 EUMP2 =    -0.67162786115821D+03

 The electronic state is 1-A.
 Alpha  occ. eigenvalues --  -20.60815 -20.60809 -15.85862 -11.31204 -11.27786
 Alpha  occ. eigenvalues --  -11.27747 -11.27526 -11.26797 -11.26784 -11.21824
 Alpha  occ. eigenvalues --  -11.21723 -11.21669 -11.21647 -11.21473 -11.21121
 Alpha  occ. eigenvalues --   -1.59886  -1.39440  -1.19384  -1.08783  -1.08641
 Alpha  occ. eigenvalues --   -1.04792  -1.03769  -0.96244  -0.95618  -0.87257
 Alpha  occ. eigenvalues --   -0.86183  -0.82458  -0.79817  -0.78434  -0.77507
 Alpha  occ. eigenvalues --   -0.72083  -0.71207  -0.70508  -0.65322  -0.65031
 Alpha  occ. eigenvalues --   -0.64777  -0.62265  -0.61048  -0.59589  -0.57826
 Alpha  occ. eigenvalues --   -0.55615  -0.55226  -0.53116  -0.52917  -0.52866
 Alpha  occ. eigenvalues --   -0.52656  -0.50198  -0.48838  -0.48836  -0.48133
 Alpha  occ. eigenvalues --   -0.46844  -0.45990  -0.45877  -0.44847  -0.43999
 Alpha  occ. eigenvalues --   -0.37366  -0.36383
 Alpha virt. eigenvalues --    0.05001   0.11254   0.16445   0.19301   0.22939
 Alpha virt. eigenvalues --    0.23843   0.25367   0.26706   0.27443   0.28099
 Alpha virt. eigenvalues --    0.29288   0.29790   0.31497   0.31564   0.32256

 Mulliken charges:
               1
     1  C   -0.170507
     2  C   -0.218974
     3  C   -0.170222
     4  C    0.158761
     5  C   -0.178451
     6  C   -0.223019
     7  H    0.225923
     8  H    0.223633
     9  H    0.275630
    10  H    0.285729
    11  H    0.225614
    12  N    0.488176
    13  O   -0.461490
    14  O   -0.460030
    15  C   -0.299223
    16  C   -0.299701
    17  C   -0.476022
    18  H    0.151155
    19  H    0.154707
    20  H    0.150810
    21  H    0.150600
    22  H    0.157275
    23  H    0.155915
    24  H    0.159734
    25  C   -0.298621
    26  C   -0.307435
    27  C   -0.478180
    28  H    0.148671
    29  H    0.143487
    30  H    0.156195
    31  H    0.164555
    32  H    0.139746
    33  H    0.157446
    34  H    0.168112
 Sum of Mulliken charges =  -0.00000

 Dipole moment (field-independent basis, Debye):
    X=              0.2185    Y=             -2.4885    Z=             -4.4228  Tot=              5.0795
 Quadrupole moment (field-independent basis, Debye-Ang):
   XX=            -92.3495   YY=            -93.0001   ZZ=            -98.0083
   XY=             10.0940   XZ=              9.9001   YZ=             -1.0452

 Normal termination of Gaussian 16 at Wed May  5 23:43:31 2021.
