 Gaussian 16, Revision A.03,
 Gaussian 16:  EM64L-G16RevA.03 25-Dec-2016

 -------------
 #p 6-31g* mp2
 -------------

 ------------------------------------------------------
 Input file generated by CHIRIPA (05-May-2021 14:53:18)
 ------------------------------------------------------
 Symbolic Z-matrix:
 Charge =  0 Multiplicity = 1

                         Standard orientation:
 ---------------------------------------------------------------------
 Center     Atomic      Atomic             Coordinates (Angstroms)
 Number     Number       Type             X           Y           Z
 ---------------------------------------------------------------------
      1          6           0        3.376354    0.803689   -0.480011
      2          6           0        3.876210    2.086442    0.185327
      3          6           0        3.392847    3.349469   -0.528058
      4          1           0        3.711034    0.786427   -1.526260
      5          1           0        2.277847    0.815081   -0.503385
      6          1           0        4.973416    2.071999    0.208683
      7          1           0        3.540463    2.100561    1.230167
      8          1           0        2.298882    3.390978   -0.539008
      9          1           0        3.739978    3.362254   -1.566295
     10          1           0        3.761788    4.254696   -0.035812
     11          6           0        3.851236   -0.467457    0.221704
     12          6           0        3.351381   -1.750210   -0.443634
     13          6           0        3.834744   -3.013237    0.269750
     14          1           0        4.949744   -0.478849    0.245077
     15          1           0        3.516556   -0.450195    1.267952
     16          1           0        3.687128   -1.764329   -1.488474
     17          1           0        2.254175   -1.735767   -0.466991
     18          1           0        3.487613   -3.026022    1.307988
     19          1           0        4.928708   -3.054746    0.280700
     20          1           0        3.465802   -3.918464   -0.222496
     21          6           0       -5.225837    0.419558   -0.437748
     22          6           0       -4.676170    0.809299    0.788012
     23          6           0       -3.346106    0.509431    1.097135
     24          6           0       -2.591007   -0.184599    0.152976
     25          6           0       -3.109996   -0.586486   -1.076831
     26          6           0       -4.442376   -0.275864   -1.364624
     27          1           0       -6.259962    0.656680   -0.669598
     28          1           0       -5.282259    1.349481    1.509750
     29          1           0       -2.895286    0.799175    2.038532
     30          1           0       -2.480984   -1.123832   -1.776132
     31          1           0       -4.866605   -0.579798   -2.317357
     32          7           0       -1.181702   -0.507749    0.468940
     33          8           0       -0.537425   -1.120147   -0.379889
     34          8           0       -0.748051   -0.142514    1.559439
 ---------------------------------------------------------------------

 SCF Done:  E(RHF) =  -669.536836566     A.U. after   15 cycles
 E2 =    -0.2091489845D+01 EUMP2 =    -0.67162832641079D+03

 The electronic state is 1-A.
 Alpha  occ. eigenvalues --  -20.61155 -20.61123 -15.86151 -11.31402 -11.27954
 Alpha  occ. eigenvalues --  -11.27950 -11.27679 -11.26944 -11.26934 -11.20526
 Alpha  occ. eigenvalues --  -11.20249 -11.20006 -11.19889 -11.19797 -11.19685
 Alpha  occ. eigenvalues --   -1.60187  -1.39744  -1.19561  -1.08980  -1.07036
 Alpha  occ. eigenvalues --   -1.04945  -1.02224  -0.95831  -0.94727  -0.86349
 Alpha  occ. eigenvalues --   -0.85753  -0.82667  -0.78300  -0.77728  -0.76811
 Alpha  occ. eigenvalues --   -0.72365  -0.71492  -0.70668  -0.65217  -0.64949
 Alpha  occ. eigenvalues --   -0.63645  -0.62292  -0.59608  -0.58119  -0.56326
 Alpha  occ. eigenvalues --   -0.55453  -0.54017  -0.53281  -0.53036  -0.51471
 Alpha  occ. eigenvalues --   -0.51159  -0.49200  -0.49121  -0.48653  -0.46620
 Alpha  occ. eigenvalues --   -0.45286  -0.45175  -0.44388  -0.44125  -0.42462
 Alpha  occ. eigenvalues --   -0.37536  -0.36542
 Alpha virt. eigenvalues --    0.04787   0.11114   0.16302   0.21250   0.24231
 Alpha virt. eigenvalues --    0.25559   0.27181   0.27910   0.28231   0.28916
 Alpha virt. eigenvalues --    0.29214   0.30862   0.32335   0.32608   0.32989

 Mulliken charges:
               1
     1  C   -0.299819
     2  C   -0.299042
     3  C   -0.474579
     4  H    0.143570
     5  H    0.160459
     6  H    0.148018
     7  H    0.153645
     8  H    0.153823
     9  H    0.152432
    10  H    0.156292
    11  C   -0.295994
    12  C   -0.313279
    13  C   -0.474408
    14  H    0.141532
    15  H    0.153650
    16  H    0.142736
    17  H    0.184404
    18  H    0.155757
    19  H    0.148252
    20  H    0.155842
    21  C   -0.170289
    22  C   -0.218628
    23  C   -0.170362
    24  C    0.157429
    25  C   -0.170597
    26  C   -0.218571
    27  H    0.226438
    28  H    0.224215
    29  H    0.276023
    30  H    0.276210
    31  H    0.224279
    32  N    0.490270
    33  O   -0.460710
    34  O   -0.458997
 Sum of Mulliken charges =  -0.00000

 Dipole moment (field-independent basis, Debye):
    X=             -5.4615    Y=              1.0988    Z=             -1.0457  Tot=              5.6683
 Quadrupole moment (field-independent basis, Debye-Ang):
   XX=            -70.5524   YY=            -96.7262   ZZ=            -91.1772
   XY=             -2.0601   XZ=              1.3984   YZ=              3.2318

 Normal termination of Gaussian 16 at Thu May  6 10:44:21 2021.
