 Gaussian 16, Revision A.03,
 Gaussian 16:  EM64L-G16RevA.03 25-Dec-2016

 -------------
 #p 6-31g* mp2
 -------------

 ------------------------------------------------------
 Input file generated by CHIRIPA (05-May-2021 14:53:14)
 ------------------------------------------------------
 Symbolic Z-matrix:
 Charge =  0 Multiplicity = 1

                         Standard orientation:
 ---------------------------------------------------------------------
 Center     Atomic      Atomic             Coordinates (Angstroms)
 Number     Number       Type             X           Y           Z
 ---------------------------------------------------------------------
      1          6           0       -3.626443    0.055434   -0.694741
      2          6           0       -4.077643   -1.207898    0.039014
      3          6           0       -4.925287   -2.129990   -0.837935
      4          1           0       -4.511113    0.599284   -1.053253
      5          1           0       -3.053432   -0.232141   -1.587128
      6          1           0       -4.648454   -0.918008    0.930504
      7          1           0       -3.191802   -1.748705    0.395987
      8          1           0       -4.361154   -2.447760   -1.720759
      9          1           0       -5.826082   -1.612343   -1.183205
     10          1           0       -5.236997   -3.026855   -0.293574
     11          6           0       -2.778141    0.987275    0.168847
     12          6           0       -2.326941    2.250607   -0.564908
     13          6           0       -1.479297    3.172699    0.312041
     14          1           0       -3.351151    1.274850    1.061234
     15          1           0       -1.893471    0.443425    0.527359
     16          1           0       -3.212782    2.791414   -0.921881
     17          1           0       -1.756130    1.960717   -1.456398
     18          1           0       -0.578502    2.655052    0.657311
     19          1           0       -2.043430    3.490469    1.194864
     20          1           0       -1.167587    4.069564   -0.232320
     21          6           0        0.489171   -1.100915    1.559752
     22          6           0        1.201913   -2.055066    0.826189
     23          6           0        2.318605   -1.682111    0.072232
     24          6           0        2.696363   -0.340253    0.074496
     25          6           0        2.006820    0.633783    0.794965
     26          6           0        0.893187    0.238103    1.541830
     27          1           0       -0.377114   -1.399462    2.142689
     28          1           0        0.890440   -3.095685    0.838246
     29          1           0        2.888545   -2.400144   -0.504842
     30          1           0        2.341453    1.663558    0.763338
     31          1           0        0.341565    0.981272    2.110563
     32          7           0        3.876936    0.066607   -0.719930
     33          8           0        4.189358    1.255172   -0.701381
     34          8           0        4.467492   -0.810765   -1.346108
 ---------------------------------------------------------------------

 SCF Done:  E(RHF) =  -669.534571196     A.U. after   15 cycles
 E2 =    -0.2093916308D+01 EUMP2 =    -0.67162848750346D+03

 The electronic state is 1-A.
 Alpha  occ. eigenvalues --  -20.60830 -20.60824 -15.85884 -11.31289 -11.27854
 Alpha  occ. eigenvalues --  -11.27842 -11.27586 -11.26877 -11.26838 -11.22286
 Alpha  occ. eigenvalues --  -11.22123 -11.21970 -11.21908 -11.21719 -11.21623
 Alpha  occ. eigenvalues --   -1.59904  -1.39457  -1.19467  -1.09039  -1.08840
 Alpha  occ. eigenvalues --   -1.04879  -1.04126  -0.96582  -0.95678  -0.87602
 Alpha  occ. eigenvalues --   -0.86269  -0.82513  -0.80204  -0.78873  -0.77546
 Alpha  occ. eigenvalues --   -0.72101  -0.71228  -0.70560  -0.65701  -0.65118
 Alpha  occ. eigenvalues --   -0.64846  -0.62286  -0.61469  -0.59935  -0.58200
 Alpha  occ. eigenvalues --   -0.55895  -0.55339  -0.53289  -0.53202  -0.53116
 Alpha  occ. eigenvalues --   -0.52857  -0.50527  -0.48870  -0.48854  -0.48506
 Alpha  occ. eigenvalues --   -0.47224  -0.46400  -0.46300  -0.44854  -0.44367
 Alpha  occ. eigenvalues --   -0.37384  -0.36421
 Alpha virt. eigenvalues --    0.04918   0.11065   0.16216   0.20248   0.22648
 Alpha virt. eigenvalues --    0.23448   0.25760   0.26033   0.26528   0.28426
 Alpha virt. eigenvalues --    0.29414   0.30497   0.31208   0.31439   0.31868

 Mulliken charges:
               1
     1  C   -0.297964
     2  C   -0.299111
     3  C   -0.476025
     4  H    0.151854
     5  H    0.152506
     6  H    0.151779
     7  H    0.144306
     8  H    0.156724
     9  H    0.157611
    10  H    0.160111
    11  C   -0.306636
    12  C   -0.298505
    13  C   -0.480051
    14  H    0.146788
    15  H    0.151199
    16  H    0.154267
    17  H    0.156401
    18  H    0.148457
    19  H    0.154102
    20  H    0.165801
    21  C   -0.172572
    22  C   -0.219507
    23  C   -0.170864
    24  C    0.158255
    25  C   -0.171990
    26  C   -0.217876
    27  H    0.228246
    28  H    0.224066
    29  H    0.276058
    30  H    0.276675
    31  H    0.227842
    32  N    0.488078
    33  O   -0.459836
    34  O   -0.460187
 Sum of Mulliken charges =  -0.00000

 Dipole moment (field-independent basis, Debye):
    X=             -4.1613    Y=             -1.4401    Z=              2.7044  Tot=              5.1676
 Quadrupole moment (field-independent basis, Debye-Ang):
   XX=           -117.3109   YY=            -89.6092   ZZ=            -94.6994
   XY=             -4.0918   XZ=              6.8067   YZ=              0.1536

 Normal termination of Gaussian 16 at Thu May  6 15:27:54 2021.
