 Gaussian 16, Revision A.03,
 Gaussian 16:  EM64L-G16RevA.03 25-Dec-2016

 -------------
 #p 6-31g* mp2
 -------------

 ------------------------------------------------------
 Input file generated by CHIRIPA (05-May-2021 14:57:26)
 ------------------------------------------------------
 Symbolic Z-matrix:
 Charge =  0 Multiplicity = 1

                         Standard orientation:
 ---------------------------------------------------------------------
 Center     Atomic      Atomic             Coordinates (Angstroms)
 Number     Number       Type             X           Y           Z
 ---------------------------------------------------------------------
      1          6           0       -4.018224   -1.661111   -0.029081
      2          6           0       -4.410490   -0.348070    0.251222
      3          6           0       -3.531185    0.717126    0.035054
      4          6           0       -2.261444    0.431815   -0.464592
      5          6           0       -1.841205   -0.865543   -0.753644
      6          6           0       -2.737092   -1.915209   -0.529736
      7          1           0       -4.707730   -2.482549    0.141850
      8          1           0       -5.404816   -0.147761    0.640115
      9          1           0       -3.808909    1.743219    0.243427
     10          1           0       -0.843499   -1.033892   -1.140502
     11          1           0       -2.429733   -2.933931   -0.748328
     12          7           0       -1.321785    1.551270   -0.697536
     13          8           0       -0.208641    1.273461   -1.138408
     14          8           0       -1.716219    2.685310   -0.434835
     15          6           0        1.007350    0.009035    2.503467
     16          6           0        1.043069   -1.215625    1.828597
     17          6           0        1.820233   -1.369097    0.676638
     18          6           0        2.552523   -0.272098    0.225377
     19          6           0        2.537637    0.960844    0.875701
     20          6           0        1.753432    1.091454    2.025708
     21          1           0        0.400896    0.119377    3.397578
     22          1           0        0.464674   -2.057962    2.197343
     23          1           0        1.866150   -2.305911    0.134706
     24          1           0        3.124977    1.782440    0.484003
     25          1           0        1.727607    2.043724    2.547779
     26          7           0        3.378999   -0.422470   -0.993116
     27          8           0        4.015056    0.559255   -1.370319
     28          8           0        3.375084   -1.519211   -1.547897
 ---------------------------------------------------------------------

 SCF Done:  E(RHF) =  -868.337644735     A.U. after   16 cycles
 E2 =    -0.2603265644D+01 EUMP2 =    -0.87094091037873D+03

 The electronic state is 1-A.
 Alpha  occ. eigenvalues --  -20.61092 -20.61042 -20.60192 -20.60138 -15.86103
 Alpha  occ. eigenvalues --  -15.85219 -11.31476 -11.30572 -11.28086 -11.28030
 Alpha  occ. eigenvalues --  -11.27833 -11.27288 -11.27087 -11.27074 -11.27065
 Alpha  occ. eigenvalues --  -11.26988 -11.26355 -11.26139  -1.60131  -1.59230
 Alpha  occ. eigenvalues --   -1.39688  -1.38791  -1.19671  -1.18772  -1.09064
 Alpha  occ. eigenvalues --   -1.08186  -1.05080  -1.04209  -0.95898  -0.95021
 Alpha  occ. eigenvalues --   -0.86470  -0.85616  -0.82737  -0.81869  -0.77776
 Alpha  occ. eigenvalues --   -0.76898  -0.72363  -0.71463  -0.71459  -0.70780
 Alpha  occ. eigenvalues --   -0.70502  -0.69949  -0.65326  -0.65082  -0.64463
 Alpha  occ. eigenvalues --   -0.64250  -0.62426  -0.61575  -0.55586  -0.54755
 Alpha  occ. eigenvalues --   -0.53432  -0.53195  -0.52465  -0.52330  -0.49105
 Alpha  occ. eigenvalues --   -0.49083  -0.48223  -0.48193  -0.45045  -0.44204
 Alpha  occ. eigenvalues --   -0.37734  -0.36868  -0.36650  -0.35584
 Alpha virt. eigenvalues --    0.04649   0.05750   0.10946   0.11799   0.16182
 Alpha virt. eigenvalues --    0.17182   0.21010   0.21894   0.26695   0.27681
 Alpha virt. eigenvalues --    0.28129   0.28894   0.30464   0.31287   0.32161

 Mulliken charges:
               1
     1  C   -0.171034
     2  C   -0.219661
     3  C   -0.171959
     4  C    0.156954
     5  C   -0.168153
     6  C   -0.223128
     7  H    0.225959
     8  H    0.223610
     9  H    0.275289
    10  H    0.279195
    11  H    0.223383
    12  N    0.489853
    13  O   -0.458656
    14  O   -0.462767
    15  C   -0.175331
    16  C   -0.218287
    17  C   -0.182039
    18  C    0.172689
    19  C   -0.153973
    20  C   -0.217287
    21  H    0.222490
    22  H    0.217122
    23  H    0.268391
    24  H    0.278174
    25  H    0.224806
    26  N    0.488588
    27  O   -0.456333
    28  O   -0.467895
 Sum of Mulliken charges =  -0.00000

 Dipole moment (field-independent basis, Debye):
    X=             -6.1000    Y=             -3.0744    Z=              4.9891  Tot=              8.4589
 Quadrupole moment (field-independent basis, Debye-Ang):
   XX=           -102.7812   YY=           -102.5945   ZZ=           -104.8337
   XY=              9.5576   XZ=              8.8167   YZ=              2.9871

 Normal termination of Gaussian 16 at Wed May  5 19:34:08 2021.
