 Gaussian 16, Revision A.03,
 Gaussian 16:  EM64L-G16RevA.03 25-Dec-2016

 -------------
 #p 6-31g* mp2
 -------------

 ------------------------------------------------------
 Input file generated by CHIRIPA (05-May-2021 14:53:14)
 ------------------------------------------------------
 Symbolic Z-matrix:
 Charge =  0 Multiplicity = 1

                         Standard orientation:
 ---------------------------------------------------------------------
 Center     Atomic      Atomic             Coordinates (Angstroms)
 Number     Number       Type             X           Y           Z
 ---------------------------------------------------------------------
      1          6           0        4.387813   -0.604107   -0.020698
      2          6           0        2.925339   -0.159420    0.016816
      3          6           0        1.951581   -1.335715    0.093759
      4          1           0        4.541150   -1.265970   -0.884047
      5          1           0        4.604788   -1.202960    0.874675
      6          1           0        2.711559    0.439576   -0.877677
      7          1           0        2.775510    0.501613    0.880066
      8          1           0        2.136307   -1.930480    0.994166
      9          1           0        2.071993   -1.992870   -0.773564
     10          1           0        0.911785   -0.995102    0.119568
     11          6           0        5.373368    0.560576   -0.097661
     12          6           0        6.835842    0.115889   -0.135175
     13          6           0        7.809600    1.292184   -0.212118
     14          1           0        5.156393    1.159428   -0.993034
     15          1           0        5.220031    1.222438    0.765688
     16          1           0        6.985671   -0.545145   -0.998425
     17          1           0        7.049622   -0.483108    0.759318
     18          1           0        7.689188    1.949338    0.655205
     19          1           0        7.624873    1.886948   -1.112525
     20          1           0        8.849396    0.951570   -0.237927
     21          6           0       -5.173510    2.130421   -0.173543
     22          6           0       -5.622361    0.944397   -0.763799
     23          6           0       -4.876689   -0.232558   -0.648476
     24          6           0       -3.681428   -0.187313    0.067481
     25          6           0       -3.207673    0.978687    0.666891
     26          6           0       -3.969721    2.143757    0.538662
     27          1           0       -5.759127    3.040092   -0.268141
     28          1           0       -6.556860    0.931084   -1.317495
     29          1           0       -5.200743   -1.164560   -1.095441
     30          1           0       -2.272119    0.960813    1.212634
     31          1           0       -3.618681    3.063390    0.998109
     32          7           0       -2.883351   -1.427011    0.196399
     33          8           0       -1.833702   -1.360856    0.832400
     34          8           0       -3.322578   -2.441369   -0.340998
 ---------------------------------------------------------------------

 SCF Done:  E(RHF) =  -669.536012089     A.U. after   15 cycles
 E2 =    -0.2090667059D+01 EUMP2 =    -0.67162667914892D+03

 The electronic state is 1-A.
 Alpha  occ. eigenvalues --  -20.60916 -20.60905 -15.85944 -11.31275 -11.27841
 Alpha  occ. eigenvalues --  -11.27837 -11.27579 -11.26850 -11.26840 -11.21250
 Alpha  occ. eigenvalues --  -11.20955 -11.20854 -11.20803 -11.20766 -11.19802
 Alpha  occ. eigenvalues --   -1.59972  -1.39529  -1.19445  -1.08847  -1.07891
 Alpha  occ. eigenvalues --   -1.04843  -1.02912  -0.95690  -0.95323  -0.86331
 Alpha  occ. eigenvalues --   -0.86242  -0.82521  -0.78993  -0.77699  -0.77572
 Alpha  occ. eigenvalues --   -0.72168  -0.71286  -0.70555  -0.65101  -0.64846
 Alpha  occ. eigenvalues --   -0.64532  -0.62191  -0.60321  -0.58723  -0.56933
 Alpha  occ. eigenvalues --   -0.55347  -0.54626  -0.53175  -0.52935  -0.51959
 Alpha  occ. eigenvalues --   -0.51751  -0.49283  -0.48928  -0.48914  -0.47298
 Alpha  occ. eigenvalues --   -0.46060  -0.45231  -0.45167  -0.44936  -0.43106
 Alpha  occ. eigenvalues --   -0.37424  -0.36445
 Alpha virt. eigenvalues --    0.04921   0.11209   0.16388   0.21305   0.23361
 Alpha virt. eigenvalues --    0.24949   0.27141   0.27217   0.27901   0.28063
 Alpha virt. eigenvalues --    0.28872   0.30758   0.31995   0.32045   0.32295

 Mulliken charges:
               1
     1  C   -0.297328
     2  C   -0.300173
     3  C   -0.480904
     4  H    0.149235
     5  H    0.149386
     6  H    0.147281
     7  H    0.147493
     8  H    0.154884
     9  H    0.152119
    10  H    0.178889
    11  C   -0.297462
    12  C   -0.299226
    13  C   -0.475336
    14  H    0.147814
    15  H    0.147871
    16  H    0.151798
    17  H    0.151843
    18  H    0.154255
    19  H    0.154279
    20  H    0.159374
    21  C   -0.170651
    22  C   -0.218550
    23  C   -0.170801
    24  C    0.158067
    25  C   -0.170844
    26  C   -0.218498
    27  H    0.225939
    28  H    0.223760
    29  H    0.275846
    30  H    0.275662
    31  H    0.223847
    32  N    0.490073
    33  O   -0.461305
    34  O   -0.458637
 Sum of Mulliken charges =  -0.00000

 Dipole moment (field-independent basis, Debye):
    X=             -3.0967    Y=              4.3052    Z=             -0.4367  Tot=              5.3211
 Quadrupole moment (field-independent basis, Debye-Ang):
   XX=            -73.5665   YY=            -96.1500   ZZ=            -93.0190
   XY=            -14.6486   XZ=              3.8653   YZ=              2.0132

 Normal termination of Gaussian 16 at Wed May  5 15:34:23 2021.
