 Gaussian 16, Revision A.03,
 Gaussian 16:  EM64L-G16RevA.03 25-Dec-2016

 -------------
 #p 6-31g* mp2
 -------------

 ------------------------------------------------------
 Input file generated by CHIRIPA (05-May-2021 14:51:07)
 ------------------------------------------------------
 Symbolic Z-matrix:
 Charge =  0 Multiplicity = 1

                         Standard orientation:
 ---------------------------------------------------------------------
 Center     Atomic      Atomic             Coordinates (Angstroms)
 Number     Number       Type             X           Y           Z
 ---------------------------------------------------------------------
      1          6           0        4.251194   -0.130712   -0.294267
      2          6           0        5.320372   -0.744252    0.610393
      3          6           0        6.050972   -1.915000   -0.047914
      4          1           0        3.525886   -0.907416   -0.572843
      5          1           0        4.721071    0.207573   -1.228170
      6          1           0        4.848851   -1.080026    1.542884
      7          1           0        6.043112    0.034047    0.887003
      8          1           0        6.547321   -1.590828   -0.968322
      9          1           0        5.346274   -2.711231   -0.308714
     10          1           0        6.810831   -2.338561    0.616218
     11          6           0        3.512071    1.040831    0.349871
     12          6           0        2.442893    1.654371   -0.554789
     13          6           0        1.712293    2.825119    0.103518
     14          1           0        3.042194    0.702546    1.283773
     15          1           0        4.237379    1.817535    0.628447
     16          1           0        1.720152    0.876072   -0.831399
     17          1           0        2.914414    1.990145   -1.487280
     18          1           0        2.416991    3.621350    0.364318
     19          1           0        1.215944    2.500947    1.023926
     20          1           0        0.952434    3.248680   -0.560614
     21          6           0       -4.454637    0.050013   -0.027609
     22          6           0       -5.825811   -0.588657    0.195922
     23          6           0       -6.961977    0.434532    0.193683
     24          1           0       -4.275215    0.801003    0.753907
     25          1           0       -4.461053    0.590094   -0.984513
     26          1           0       -5.816377   -1.128530    1.151466
     27          1           0       -6.001907   -1.338351   -0.586105
     28          1           0       -7.000081    0.965796   -0.762825
     29          1           0       -6.813496    1.176809    0.984619
     30          1           0       -7.933154   -0.043602    0.355119
     31          6           0       -3.308628   -0.960131   -0.027996
     32          6           0       -1.937453   -0.321462   -0.251527
     33          6           0       -0.801288   -1.344652   -0.249286
     34          1           0       -3.302211   -1.500213    0.928909
     35          1           0       -3.488049   -1.711122   -0.809510
     36          1           0       -1.761357    0.428232    0.530500
     37          1           0       -1.946888    0.218412   -1.207071
     38          1           0       -0.949769   -2.086928   -1.040222
     39          1           0       -0.763184   -1.875916    0.707221
     40          1           0        0.169889   -0.866517   -0.410722
 ---------------------------------------------------------------------

 SCF Done:  E(RHF) =  -470.733368072     A.U. after   11 cycles
 E2 =    -0.1582661175D+01 EUMP2 =    -0.47231602924753D+03

 The electronic state is 1-A.
 Alpha  occ. eigenvalues --  -11.21631 -11.21612 -11.21596 -11.21589 -11.21423
 Alpha  occ. eigenvalues --  -11.21398 -11.21363 -11.21339 -11.21115 -11.21078
 Alpha  occ. eigenvalues --  -11.21066 -11.21055  -1.08453  -1.08422  -1.03565
 Alpha  occ. eigenvalues --   -1.03511  -0.96009  -0.95965  -0.87033  -0.86976
 Alpha  occ. eigenvalues --   -0.79633  -0.79569  -0.78259  -0.78239  -0.65086
 Alpha  occ. eigenvalues --   -0.65067  -0.60980  -0.60937  -0.59428  -0.59268
 Alpha  occ. eigenvalues --   -0.57646  -0.57542  -0.55290  -0.55251  -0.52747
 Alpha  occ. eigenvalues --   -0.52644  -0.52451  -0.52376  -0.49946  -0.49906
 Alpha  occ. eigenvalues --   -0.48008  -0.47842  -0.46650  -0.46598  -0.45807
 Alpha  occ. eigenvalues --   -0.45771  -0.45726  -0.45693  -0.43797  -0.43754
 Alpha virt. eigenvalues --    0.20515   0.23036   0.23745   0.25102   0.25887
 Alpha virt. eigenvalues --    0.26524   0.27092   0.27371   0.28125   0.28798
 Alpha virt. eigenvalues --    0.30872   0.31219   0.31693   0.31838   0.32059

 Mulliken charges:
               1
     1  C   -0.299063
     2  C   -0.299616
     3  C   -0.475770
     4  H    0.150052
     5  H    0.149554
     6  H    0.152064
     7  H    0.151889
     8  H    0.155105
     9  H    0.155446
    10  H    0.160193
    11  C   -0.298038
    12  C   -0.307232
    13  C   -0.475320
    14  H    0.149664
    15  H    0.149749
    16  H    0.158387
    17  H    0.152212
    18  H    0.155155
    19  H    0.155093
    20  H    0.160566
    21  C   -0.298305
    22  C   -0.299680
    23  C   -0.475725
    24  H    0.149785
    25  H    0.149609
    26  H    0.151921
    27  H    0.151953
    28  H    0.155219
    29  H    0.155235
    30  H    0.160282
    31  C   -0.298344
    32  C   -0.299281
    33  C   -0.483429
    34  H    0.149519
    35  H    0.149730
    36  H    0.152408
    37  H    0.152144
    38  H    0.155584
    39  H    0.155212
    40  H    0.166073
 Sum of Mulliken charges =  -0.00000

 Dipole moment (field-independent basis, Debye):
    X=             -0.0093    Y=              0.0043    Z=             -0.0023  Tot=              0.0105
 Quadrupole moment (field-independent basis, Debye-Ang):
   XX=            -85.5207   YY=            -85.4870   ZZ=            -83.7161
   XY=              1.5606   XZ=              0.0797   YZ=             -0.4318

 Normal termination of Gaussian 16 at Thu May  6 03:39:41 2021.
