 Gaussian 16, Revision A.03,
 Gaussian 16:  EM64L-G16RevA.03 25-Dec-2016

 -------------
 #p 6-31g* mp2
 -------------

 ------------------------------------------------------
 Input file generated by CHIRIPA (05-May-2021 14:51:12)
 ------------------------------------------------------
 Symbolic Z-matrix:
 Charge =  0 Multiplicity = 1

                         Standard orientation:
 ---------------------------------------------------------------------
 Center     Atomic      Atomic             Coordinates (Angstroms)
 Number     Number       Type             X           Y           Z
 ---------------------------------------------------------------------
      1          6           0        2.393771   -0.390832   -0.225934
      2          6           0        3.834353   -0.016934    0.124648
      3          6           0        4.188520    1.414611   -0.279131
      4          1           0        2.241624   -0.264869   -1.306642
      5          1           0        1.709092    0.311056    0.270014
      6          1           0        4.516058   -0.720160   -0.370698
      7          1           0        3.983143   -0.143984    1.204619
      8          1           0        3.532112    2.130830    0.225607
      9          1           0        4.068055    1.551381   -1.358661
     10          1           0        5.222797    1.660811   -0.019293
     11          6           0        2.024687   -1.818948    0.171545
     12          6           0        0.584104   -2.192845   -0.179037
     13          6           0        0.229938   -3.624391    0.224743
     14          1           0        2.709366   -2.520835   -0.324402
     15          1           0        2.176834   -1.944910    1.252253
     16          1           0        0.435315   -2.065795   -1.259007
     17          1           0       -0.097600   -1.489619    0.316310
     18          1           0        0.350402   -3.761161    1.304272
     19          1           0        0.886345   -4.340610   -0.279995
     20          1           0       -0.804339   -3.870590   -0.035096
     21          6           0       -2.713946    0.682624   -0.360600
     22          6           0       -3.247014   -0.508671    0.436041
     23          6           0       -4.255710   -1.343821   -0.353166
     24          1           0       -3.556766    1.316890   -0.667693
     25          1           0       -2.245223    0.316694   -1.284608
     26          1           0       -3.713366   -0.140706    1.358935
     27          1           0       -2.402808   -1.140073    0.741436
     28          1           0       -3.798437   -1.738578   -1.266221
     29          1           0       -5.116441   -0.733533   -0.645214
     30          1           0       -4.623858   -2.190118    0.235145
     31          6           0       -1.704512    1.527155    0.414989
     32          6           0       -1.171444    2.718451   -0.381653
     33          6           0       -0.162747    3.553601    0.407554
     34          1           0       -2.173235    1.893086    1.338996
     35          1           0       -0.861691    0.892890    0.722081
     36          1           0       -2.015649    3.349853   -0.687048
     37          1           0       -0.705091    2.350485   -1.304546
     38          1           0        0.697983    2.943313    0.699602
     39          1           0       -0.620020    3.948357    1.320609
     40          1           0        0.205401    4.399897   -0.180757
 ---------------------------------------------------------------------

 SCF Done:  E(RHF) =  -470.732731150     A.U. after   11 cycles
 E2 =    -0.1585209054D+01 EUMP2 =    -0.47231794020379D+03

 The electronic state is 1-A.
 Alpha  occ. eigenvalues --  -11.21659 -11.21652 -11.21587 -11.21567 -11.21479
 Alpha  occ. eigenvalues --  -11.21419 -11.21388 -11.21327 -11.21132 -11.21102
 Alpha  occ. eigenvalues --  -11.21083 -11.21061  -1.08528  -1.08397  -1.03609
 Alpha  occ. eigenvalues --   -1.03504  -0.96040  -0.95971  -0.87057  -0.86986
 Alpha  occ. eigenvalues --   -0.79695  -0.79557  -0.78435  -0.78140  -0.65396
 Alpha  occ. eigenvalues --   -0.64820  -0.61168  -0.60788  -0.59418  -0.59306
 Alpha  occ. eigenvalues --   -0.57662  -0.57566  -0.55358  -0.55233  -0.52731
 Alpha  occ. eigenvalues --   -0.52664  -0.52462  -0.52399  -0.50031  -0.49867
 Alpha  occ. eigenvalues --   -0.48082  -0.47829  -0.46914  -0.46608  -0.46266
 Alpha  occ. eigenvalues --   -0.45856  -0.45700  -0.44981  -0.43841  -0.43770
 Alpha virt. eigenvalues --    0.19597   0.21313   0.23716   0.24716   0.25329
 Alpha virt. eigenvalues --    0.26208   0.26480   0.27757   0.28349   0.29710
 Alpha virt. eigenvalues --    0.31119   0.31437   0.31746   0.32106   0.32367

 Mulliken charges:
               1
     1  C   -0.305080
     2  C   -0.299507
     3  C   -0.477853
     4  H    0.149652
     5  H    0.154961
     6  H    0.152314
     7  H    0.152090
     8  H    0.157295
     9  H    0.155325
    10  H    0.160594
    11  C   -0.297307
    12  C   -0.310013
    13  C   -0.476323
    14  H    0.149992
    15  H    0.149684
    16  H    0.151599
    17  H    0.161192
    18  H    0.155337
    19  H    0.155690
    20  H    0.161173
    21  C   -0.298148
    22  C   -0.305556
    23  C   -0.475585
    24  H    0.149769
    25  H    0.150646
    26  H    0.151662
    27  H    0.157607
    28  H    0.155181
    29  H    0.155199
    30  H    0.160055
    31  C   -0.305600
    32  C   -0.299024
    33  C   -0.479579
    34  H    0.149334
    35  H    0.154972
    36  H    0.152011
    37  H    0.152970
    38  H    0.157378
    39  H    0.155095
    40  H    0.160799
 Sum of Mulliken charges =  -0.00000

 Dipole moment (field-independent basis, Debye):
    X=              0.0210    Y=             -0.0137    Z=             -0.0075  Tot=              0.0262
 Quadrupole moment (field-independent basis, Debye-Ang):
   XX=            -84.8348   YY=            -85.8268   ZZ=            -84.0497
   XY=             -1.4792   XZ=             -0.7740   YZ=              0.4095

 Normal termination of Gaussian 16 at Wed May  5 21:32:46 2021.
