 Gaussian 16, Revision A.03,
 Gaussian 16:  EM64L-G16RevA.03 25-Dec-2016

 -------------
 #p 6-31g* mp2
 -------------

 ------------------------------------------------------
 Input file generated by CHIRIPA (05-May-2021 14:55:20)
 ------------------------------------------------------
 Symbolic Z-matrix:
 Charge =  0 Multiplicity = 1

                         Standard orientation:
 ---------------------------------------------------------------------
 Center     Atomic      Atomic             Coordinates (Angstroms)
 Number     Number       Type             X           Y           Z
 ---------------------------------------------------------------------
      1          6           0       -3.719977   -1.857074   -0.374994
      2          6           0       -4.361884   -0.893054    0.409315
      3          6           0       -3.817557    0.387255    0.547393
      4          6           0       -2.624589    0.670619   -0.115799
      5          6           0       -1.961303   -0.268299   -0.904326
      6          6           0       -2.523844   -1.542175   -1.028160
      7          1           0       -4.149898   -2.849150   -0.476723
      8          1           0       -5.290931   -1.134799    0.917722
      9          1           0       -4.293554    1.152591    1.148313
     10          1           0       -1.036383    0.002290   -1.399021
     11          1           0       -2.023135   -2.288852   -1.637921
     12          7           0       -2.038693    2.022620    0.022838
     13          8           0       -0.986675    2.247269   -0.571660
     14          8           0       -2.642581    2.832068    0.723373
     15          6           0        4.055176   -0.144449    0.446406
     16          6           0        4.951652    0.428484   -0.651803
     17          6           0        6.091583    1.283896   -0.098069
     18          1           0        3.640554    0.681437    1.040499
     19          1           0        4.666862   -0.746626    1.132422
     20          1           0        4.338219    1.028268   -1.336327
     21          1           0        5.364036   -0.398854   -1.243470
     22          1           0        6.727634    0.693066    0.568984
     23          1           0        5.695988    2.128297    0.475598
     24          1           0        6.719947    1.683373   -0.900215
     25          6           0        2.910974   -1.001900   -0.091467
     26          6           0        2.014497   -1.574833    1.006743
     27          6           0        0.874567   -2.430246    0.453008
     28          1           0        2.299288   -0.399724   -0.777482
     29          1           0        3.325595   -1.827787   -0.685559
     30          1           0        1.602113   -0.747497    1.598410
     31          1           0        2.627930   -2.174618    1.691266
     32          1           0        1.270161   -3.274646   -0.120659
     33          1           0        0.238515   -1.839415   -0.214044
     34          1           0        0.246202   -2.829723    1.255154
 ---------------------------------------------------------------------

 SCF Done:  E(RHF) =  -669.534375604     A.U. after   15 cycles
 E2 =    -0.2092753559D+01 EUMP2 =    -0.67162712916334D+03

 The electronic state is 1-A.
 Alpha  occ. eigenvalues --  -20.60828 -20.60820 -15.85879 -11.31230 -11.27790
 Alpha  occ. eigenvalues --  -11.27779 -11.27512 -11.26802 -11.26781 -11.21636
 Alpha  occ. eigenvalues --  -11.21361 -11.21342 -11.21316 -11.21169 -11.20806
 Alpha  occ. eigenvalues --   -1.59901  -1.39456  -1.19402  -1.08793  -1.08330
 Alpha  occ. eigenvalues --   -1.04818  -1.03465  -0.95944  -0.95631  -0.86968
 Alpha  occ. eigenvalues --   -0.86198  -0.82476  -0.79547  -0.78134  -0.77517
 Alpha  occ. eigenvalues --   -0.72099  -0.71225  -0.70514  -0.65080  -0.64945
 Alpha  occ. eigenvalues --   -0.64795  -0.62205  -0.60843  -0.59310  -0.57542
 Alpha  occ. eigenvalues --   -0.55350  -0.55238  -0.53185  -0.52902  -0.52598
 Alpha  occ. eigenvalues --   -0.52330  -0.49864  -0.48854  -0.48852  -0.47862
 Alpha  occ. eigenvalues --   -0.46559  -0.45683  -0.45572  -0.44862  -0.43709
 Alpha  occ. eigenvalues --   -0.37375  -0.36303
 Alpha virt. eigenvalues --    0.04985   0.11193   0.16409   0.20648   0.22936
 Alpha virt. eigenvalues --    0.24257   0.25857   0.26998   0.27532   0.28285
 Alpha virt. eigenvalues --    0.29173   0.30593   0.31513   0.31694   0.32203

 Mulliken charges:
               1
     1  C   -0.171884
     2  C   -0.218346
     3  C   -0.171595
     4  C    0.157200
     5  C   -0.171686
     6  C   -0.213741
     7  H    0.225926
     8  H    0.223584
     9  H    0.275599
    10  H    0.275763
    11  H    0.225340
    12  N    0.488099
    13  O   -0.461282
    14  O   -0.460029
    15  C   -0.298846
    16  C   -0.300320
    17  C   -0.476014
    18  H    0.154947
    19  H    0.148163
    20  H    0.155325
    21  H    0.149609
    22  H    0.153802
    23  H    0.157777
    24  H    0.159964
    25  C   -0.299079
    26  C   -0.299942
    27  C   -0.478183
    28  H    0.150793
    29  H    0.147146
    30  H    0.156824
    31  H    0.151994
    32  H    0.151867
    33  H    0.150965
    34  H    0.160260
 Sum of Mulliken charges =  -0.00000

 Dipole moment (field-independent basis, Debye):
    X=             -2.1001    Y=             -4.6837    Z=             -0.4462  Tot=              5.1523
 Quadrupole moment (field-independent basis, Debye-Ang):
   XX=            -81.6061   YY=           -101.3505   ZZ=            -93.5005
   XY=              9.4672   XZ=             -1.1813   YZ=              0.9804

 Normal termination of Gaussian 16 at Thu May  6 19:05:13 2021.
