 Gaussian 16, Revision A.03,
 Gaussian 16:  EM64L-G16RevA.03 25-Dec-2016

 -------------
 #p 6-31g* mp2
 -------------

 ------------------------------------------------------
 Input file generated by CHIRIPA (05-May-2021 14:55:23)
 ------------------------------------------------------
 Symbolic Z-matrix:
 Charge =  0 Multiplicity = 1

                         Standard orientation:
 ---------------------------------------------------------------------
 Center     Atomic      Atomic             Coordinates (Angstroms)
 Number     Number       Type             X           Y           Z
 ---------------------------------------------------------------------
      1          6           0       -0.647374    0.233840    1.370995
      2          6           0       -1.858459    0.287173    2.068812
      3          6           0       -3.069963    0.069021    1.406078
      4          6           0       -3.033336   -0.201143    0.038979
      5          6           0       -1.842962   -0.260968   -0.684016
      6          6           0       -0.643498   -0.039578   -0.000774
      7          1           0        0.289075    0.404563    1.893788
      8          1           0       -1.864500    0.499305    3.134180
      9          1           0       -4.021892    0.104408    1.921826
     10          1           0       -1.868872   -0.474625   -1.745664
     11          1           0        0.295543   -0.081616   -0.545274
     12          7           0       -4.309528   -0.433805   -0.673484
     13          8           0       -4.250300   -0.669969   -1.878206
     14          8           0       -5.344870   -0.375596   -0.013699
     15          6           0        3.860095   -0.369902    0.233609
     16          6           0        4.365506   -1.563594   -0.577343
     17          6           0        4.855565   -2.712461    0.304554
     18          1           0        4.665887   -0.012676    0.889378
     19          1           0        3.045155   -0.701399    0.891922
     20          1           0        5.178323   -1.229653   -1.234935
     21          1           0        3.558476   -1.917900   -1.231398
     22          1           0        4.048753   -3.073382    0.950612
     23          1           0        5.677804   -2.381225    0.947054
     24          1           0        5.212354   -3.555278   -0.295630
     25          6           0        3.366795    0.786664   -0.633996
     26          6           0        2.861385    1.980356    0.176956
     27          6           0        2.371324    3.129223   -0.704941
     28          1           0        4.181736    1.118161   -1.292309
     29          1           0        2.561003    0.429438   -1.289766
     30          1           0        3.668414    2.334662    0.831010
     31          1           0        2.048568    1.646415    0.834547
     32          1           0        1.549086    2.797987   -1.347442
     33          1           0        3.178137    3.490144   -1.350999
     34          1           0        2.014535    3.972040   -0.104757
 ---------------------------------------------------------------------

 SCF Done:  E(RHF) =  -669.534824061     A.U. after   15 cycles
 E2 =    -0.2093046195D+01 EUMP2 =    -0.67162787025576D+03

 The electronic state is 1-A.
 Alpha  occ. eigenvalues --  -20.60761 -20.60756 -15.85814 -11.31186 -11.27754
 Alpha  occ. eigenvalues --  -11.27750 -11.27479 -11.26765 -11.26743 -11.22765
 Alpha  occ. eigenvalues --  -11.22573 -11.22490 -11.22431 -11.21950 -11.21769
 Alpha  occ. eigenvalues --   -1.59836  -1.39389  -1.19358  -1.09517  -1.08749
 Alpha  occ. eigenvalues --   -1.04765  -1.04475  -0.96907  -0.95589  -0.87919
 Alpha  occ. eigenvalues --   -0.86161  -0.82427  -0.80559  -0.79329  -0.77469
 Alpha  occ. eigenvalues --   -0.72034  -0.71159  -0.70505  -0.66332  -0.65004
 Alpha  occ. eigenvalues --   -0.64652  -0.62189  -0.61754  -0.60279  -0.58520
 Alpha  occ. eigenvalues --   -0.56218  -0.55292  -0.53554  -0.53324  -0.53079
 Alpha  occ. eigenvalues --   -0.52850  -0.50846  -0.48850  -0.48796  -0.48785
 Alpha  occ. eigenvalues --   -0.47606  -0.46826  -0.46791  -0.44794  -0.44764
 Alpha  occ. eigenvalues --   -0.37326  -0.36361
 Alpha virt. eigenvalues --    0.05051   0.11208   0.16495   0.18105   0.22832
 Alpha virt. eigenvalues --    0.23554   0.24335   0.25160   0.26964   0.28475
 Alpha virt. eigenvalues --    0.29835   0.30396   0.31034   0.31481   0.31730

 Mulliken charges:
               1
     1  C   -0.176405
     2  C   -0.218667
     3  C   -0.170911
     4  C    0.158835
     5  C   -0.172942
     6  C   -0.224461
     7  H    0.229443
     8  H    0.223651
     9  H    0.275596
    10  H    0.275931
    11  H    0.232983
    12  N    0.488046
    13  O   -0.460401
    14  O   -0.460428
    15  C   -0.299627
    16  C   -0.299845
    17  C   -0.476398
    18  H    0.153965
    19  H    0.142400
    20  H    0.155314
    21  H    0.151223
    22  H    0.155392
    23  H    0.156569
    24  H    0.163707
    25  C   -0.303244
    26  C   -0.304794
    27  C   -0.475328
    28  H    0.157291
    29  H    0.143853
    30  H    0.156880
    31  H    0.144018
    32  H    0.155608
    33  H    0.159006
    34  H    0.163739
 Sum of Mulliken charges =  -0.00000

 Dipole moment (field-independent basis, Debye):
    X=              4.7216    Y=              0.8660    Z=              2.4702  Tot=              5.3986
 Quadrupole moment (field-independent basis, Debye-Ang):
   XX=           -119.4211   YY=            -96.0122   ZZ=            -91.2997
   XY=             -3.0023   XZ=            -10.3454   YZ=              0.6005

 Normal termination of Gaussian 16 at Thu May  6 07:51:25 2021.
