 Gaussian 16, Revision A.03,
 Gaussian 16:  EM64L-G16RevA.03 25-Dec-2016

 -------------
 #p 6-31g* mp2
 -------------

 ------------------------------------------------------
 Input file generated by CHIRIPA (05-May-2021 14:57:22)
 ------------------------------------------------------
 Symbolic Z-matrix:
 Charge =  0 Multiplicity = 1

                         Standard orientation:
 ---------------------------------------------------------------------
 Center     Atomic      Atomic             Coordinates (Angstroms)
 Number     Number       Type             X           Y           Z
 ---------------------------------------------------------------------
      1          6           0       -4.091397    2.084986    1.067741
      2          6           0       -4.876431    0.942421    0.881227
      3          6           0       -4.356789   -0.176455    0.223475
      4          6           0       -3.042290   -0.118078   -0.236933
      5          6           0       -2.235094    1.005604   -0.066458
      6          6           0       -2.775554    2.112882    0.594138
      7          1           0       -4.503153    2.949651    1.579803
      8          1           0       -5.898655    0.917927    1.247973
      9          1           0       -4.942434   -1.073948    0.065535
     10          1           0       -1.219493    1.000214   -0.443212
     11          1           0       -2.163570    2.998855    0.737567
     12          7           0       -2.481149   -1.296443   -0.934770
     13          8           0       -1.320202   -1.219848   -1.330966
     14          8           0       -3.212899   -2.274327   -1.072326
     15          6           0        3.917617    1.868203   -1.282590
     16          6           0        4.414313    1.696210    0.013648
     17          6           0        3.987626    0.622525    0.800850
     18          6           0        3.059091   -0.264101    0.257704
     19          6           0        2.545702   -0.119639   -1.030261
     20          6           0        2.986538    0.961327   -1.799496
     21          1           0        4.254573    2.705094   -1.887128
     22          1           0        5.137483    2.398936    0.417686
     23          1           0        4.355812    0.465639    1.807449
     24          1           0        1.825665   -0.836637   -1.405602
     25          1           0        2.599083    1.092412   -2.805847
     26          7           0        2.599886   -1.404617    1.081569
     27          8           0        1.781124   -2.171819    0.579904
     28          8           0        3.067419   -1.509758    2.213379
 ---------------------------------------------------------------------

 SCF Done:  E(RHF) =  -868.337898496     A.U. after   16 cycles
 E2 =    -0.2599775059D+01 EUMP2 =    -0.87093767355563D+03

 The electronic state is 1-A.
 Alpha  occ. eigenvalues --  -20.60619 -20.60613 -20.60250 -20.60179 -15.85676
 Alpha  occ. eigenvalues --  -15.85271 -11.31077 -11.30790 -11.27679 -11.27635
 Alpha  occ. eigenvalues --  -11.27448 -11.27410 -11.27247 -11.27217 -11.26700
 Alpha  occ. eigenvalues --  -11.26668 -11.26497 -11.26409  -1.59669  -1.59303
 Alpha  occ. eigenvalues --   -1.39231  -1.38841  -1.19252  -1.19001  -1.08639
 Alpha  occ. eigenvalues --   -1.08380  -1.04670  -1.04409  -0.95472  -0.95171
 Alpha  occ. eigenvalues --   -0.86067  -0.85797  -0.82315  -0.81985  -0.77362
 Alpha  occ. eigenvalues --   -0.76981  -0.71917  -0.71472  -0.70975  -0.70642
 Alpha  occ. eigenvalues --   -0.70375  -0.70083  -0.64918  -0.64683  -0.64638
 Alpha  occ. eigenvalues --   -0.64399  -0.62027  -0.61706  -0.55175  -0.54930
 Alpha  occ. eigenvalues --   -0.52986  -0.52806  -0.52736  -0.52476  -0.48659
 Alpha  occ. eigenvalues --   -0.48634  -0.48278  -0.48212  -0.44633  -0.44193
 Alpha  occ. eigenvalues --   -0.37231  -0.37033  -0.36272  -0.36038
 Alpha virt. eigenvalues --    0.05195   0.05509   0.11379   0.11588   0.16677
 Alpha virt. eigenvalues --    0.16949   0.21350   0.21852   0.27166   0.27613
 Alpha virt. eigenvalues --    0.28168   0.28949   0.30869   0.31363   0.32269

 Mulliken charges:
               1
     1  C   -0.170772
     2  C   -0.218324
     3  C   -0.170287
     4  C    0.160395
     5  C   -0.169630
     6  C   -0.218288
     7  H    0.225007
     8  H    0.223467
     9  H    0.276285
    10  H    0.271336
    11  H    0.221786
    12  N    0.493062
    13  O   -0.465737
    14  O   -0.457914
    15  C   -0.172164
    16  C   -0.219929
    17  C   -0.172138
    18  C    0.154612
    19  C   -0.178281
    20  C   -0.223360
    21  H    0.223346
    22  H    0.221152
    23  H    0.274146
    24  H    0.296728
    25  H    0.224666
    26  N    0.486024
    27  O   -0.449482
    28  O   -0.465704
 Sum of Mulliken charges =  -0.00000

 Dipole moment (field-independent basis, Debye):
    X=             -0.5714    Y=              7.9279    Z=             -0.5156  Tot=              7.9652
 Quadrupole moment (field-independent basis, Debye-Ang):
   XX=            -78.5967   YY=           -107.4330   ZZ=           -105.9064
   XY=              2.7437   XZ=            -14.0664   YZ=              1.7292

 Normal termination of Gaussian 16 at Fri May  7 01:43:25 2021.
