 Gaussian 16, Revision A.03,
 Gaussian 16:  EM64L-G16RevA.03 25-Dec-2016

 -------------
 #p 6-31g* mp2
 -------------

 ------------------------------------------------------
 Input file generated by CHIRIPA (05-May-2021 14:55:18)
 ------------------------------------------------------
 Symbolic Z-matrix:
 Charge =  0 Multiplicity = 1

                         Standard orientation:
 ---------------------------------------------------------------------
 Center     Atomic      Atomic             Coordinates (Angstroms)
 Number     Number       Type             X           Y           Z
 ---------------------------------------------------------------------
      1          6           0       -0.021102   -1.792836    1.196724
      2          6           0       -0.761349   -0.853636    1.922299
      3          6           0       -1.870454   -0.226131    1.347260
      4          6           0       -2.212661   -0.563161    0.038599
      5          6           0       -1.495126   -1.494808   -0.710044
      6          6           0       -0.389703   -2.109866   -0.114820
      7          1           0        0.839048   -2.275463    1.651268
      8          1           0       -0.477404   -0.605470    2.941040
      9          1           0       -2.461168    0.504585    1.886268
     10          1           0       -1.802579   -1.721565   -1.723687
     11          1           0        0.183334   -2.838881   -0.680691
     12          7           0       -3.384872    0.094562   -0.580854
     13          8           0       -3.665755   -0.219777   -1.735381
     14          8           0       -4.000573    0.911971    0.099876
     15          6           0        2.444099    1.609197   -0.138798
     16          6           0        0.966392    1.937591    0.076901
     17          6           0        0.700589    3.441142    0.157391
     18          1           0        3.033109    2.043784    0.680436
     19          1           0        2.789053    2.093456   -1.062863
     20          1           0        0.623970    1.451719    0.999556
     21          1           0        0.380810    1.502008   -0.742841
     22          1           0        1.015138    3.937939   -0.766108
     23          1           0        1.259680    3.887365    0.986188
     24          1           0       -0.361961    3.653290    0.311798
     25          6           0        2.725736    0.110000   -0.221373
     26          6           0        4.203442   -0.218394   -0.437072
     27          6           0        4.469246   -1.721945   -0.517562
     28          1           0        2.380782   -0.374258    0.702692
     29          1           0        2.136726   -0.324587   -1.040608
     30          1           0        4.789025    0.217189    0.382669
     31          1           0        4.545864    0.267478   -1.359727
     32          1           0        3.910155   -2.168167   -1.346359
     33          1           0        4.154697   -2.218743    0.405938
     34          1           0        5.531795   -1.934094   -0.671969
 ---------------------------------------------------------------------

 SCF Done:  E(RHF) =  -669.532802446     A.U. after   15 cycles
 E2 =    -0.2096467980D+01 EUMP2 =    -0.67162927042671D+03

 The electronic state is 1-A.
 Alpha  occ. eigenvalues --  -20.60800 -20.60794 -15.85856 -11.31217 -11.27811
 Alpha  occ. eigenvalues --  -11.27793 -11.27524 -11.26796 -11.26774 -11.22118
 Alpha  occ. eigenvalues --  -11.21824 -11.21803 -11.21641 -11.21563 -11.21066
 Alpha  occ. eigenvalues --   -1.59877  -1.39430  -1.19412  -1.08887  -1.08701
 Alpha  occ. eigenvalues --   -1.04826  -1.03861  -0.96345  -0.95633  -0.87355
 Alpha  occ. eigenvalues --   -0.86214  -0.82476  -0.79947  -0.78610  -0.77510
 Alpha  occ. eigenvalues --   -0.72074  -0.71200  -0.70534  -0.65437  -0.65063
 Alpha  occ. eigenvalues --   -0.64819  -0.62163  -0.61281  -0.59733  -0.57951
 Alpha  occ. eigenvalues --   -0.55679  -0.55302  -0.53453  -0.52909  -0.52828
 Alpha  occ. eigenvalues --   -0.52772  -0.50302  -0.48833  -0.48828  -0.48277
 Alpha  occ. eigenvalues --   -0.47000  -0.46106  -0.45963  -0.44835  -0.44099
 Alpha  occ. eigenvalues --   -0.37235  -0.36301
 Alpha virt. eigenvalues --    0.04992   0.11106   0.16343   0.20138   0.23052
 Alpha virt. eigenvalues --    0.23671   0.25482   0.26729   0.27377   0.27940
 Alpha virt. eigenvalues --    0.29149   0.29719   0.31327   0.31944   0.32095

 Mulliken charges:
               1
     1  C   -0.165355
     2  C   -0.221909
     3  C   -0.167307
     4  C    0.161002
     5  C   -0.173237
     6  C   -0.215359
     7  H    0.226001
     8  H    0.223337
     9  H    0.275706
    10  H    0.275648
    11  H    0.224126
    12  N    0.487702
    13  O   -0.460562
    14  O   -0.460581
    15  C   -0.298430
    16  C   -0.303533
    17  C   -0.476787
    18  H    0.147805
    19  H    0.150585
    20  H    0.153213
    21  H    0.153401
    22  H    0.156271
    23  H    0.152488
    24  H    0.163960
    25  C   -0.296867
    26  C   -0.299484
    27  C   -0.475084
    28  H    0.142486
    29  H    0.149441
    30  H    0.152407
    31  H    0.154634
    32  H    0.152747
    33  H    0.147623
    34  H    0.163910
 Sum of Mulliken charges =  -0.00000

 Dipole moment (field-independent basis, Debye):
    X=              4.0560    Y=             -2.3239    Z=              2.1602  Tot=              5.1495
 Quadrupole moment (field-independent basis, Debye-Ang):
   XX=           -114.0142   YY=            -92.5624   ZZ=            -90.2368
   XY=              2.7332   XZ=             -5.4211   YZ=              1.0077

 Normal termination of Gaussian 16 at Wed May  5 18:51:18 2021.
