 Gaussian 16, Revision A.03,
 Gaussian 16:  EM64L-G16RevA.03 25-Dec-2016

 -------------
 #p 6-31g* mp2
 -------------

 ------------------------------------------------------
 Input file generated by CHIRIPA (05-May-2021 14:53:17)
 ------------------------------------------------------
 Symbolic Z-matrix:
 Charge =  0 Multiplicity = 1

                         Standard orientation:
 ---------------------------------------------------------------------
 Center     Atomic      Atomic             Coordinates (Angstroms)
 Number     Number       Type             X           Y           Z
 ---------------------------------------------------------------------
      1          6           0       -3.470127    0.523981   -0.398894
      2          6           0       -3.588718    1.930318    0.189440
      3          6           0       -3.976029    2.977426   -0.855238
      4          1           0       -2.724336    0.532555   -1.205533
      5          1           0       -4.427310    0.245527   -0.861126
      6          1           0       -2.632022    2.205492    0.651639
      7          1           0       -4.334175    1.918354    0.994901
      8          1           0       -4.940944    2.729913   -1.309416
      9          1           0       -3.229120    3.018683   -1.654628
     10          1           0       -4.055225    3.975471   -0.413091
     11          6           0       -3.083540   -0.533867    0.633209
     12          6           0       -2.964949   -1.940204    0.044876
     13          6           0       -2.577639   -2.987311    1.089553
     14          1           0       -2.126357   -0.255413    1.095442
     15          1           0       -3.829331   -0.542440    1.439849
     16          1           0       -2.219493   -1.928240   -0.760585
     17          1           0       -3.921645   -2.215377   -0.417324
     18          1           0       -3.324548   -3.028568    1.888944
     19          1           0       -1.612724   -2.739799    1.543732
     20          1           0       -2.498442   -3.985357    0.647407
     21          6           0        3.621396    2.170108    0.647927
     22          6           0        2.229753    2.070743    0.548048
     23          6           0        1.630791    0.875428    0.139370
     24          6           0        2.457417   -0.205563   -0.163018
     25          6           0        3.846892   -0.137784   -0.073267
     26          6           0        4.424109    1.067472    0.337498
     27          1           0        4.078238    3.102517    0.966208
     28          1           0        1.603871    2.925437    0.788493
     29          1           0        0.556027    0.770954    0.053434
     30          1           0        4.444622   -1.006931   -0.319680
     31          1           0        5.505150    1.141752    0.414162
     32          7           0        1.834833   -1.476251   -0.596772
     33          8           0        2.585194   -2.414131   -0.857497
     34          8           0        0.608280   -1.510275   -0.667809
 ---------------------------------------------------------------------

 SCF Done:  E(RHF) =  -669.536201916     A.U. after   15 cycles
 E2 =    -0.2091925357D+01 EUMP2 =    -0.67162812727327D+03

 The electronic state is 1-A.
 Alpha  occ. eigenvalues --  -20.60986 -20.60973 -15.86019 -11.31319 -11.27882
 Alpha  occ. eigenvalues --  -11.27875 -11.27610 -11.26882 -11.26872 -11.21585
 Alpha  occ. eigenvalues --  -11.21101 -11.21027 -11.20775 -11.20429 -11.19945
 Alpha  occ. eigenvalues --   -1.60042  -1.39600  -1.19485  -1.08892  -1.07935
 Alpha  occ. eigenvalues --   -1.04878  -1.02949  -0.95739  -0.95433  -0.86463
 Alpha  occ. eigenvalues --   -0.86280  -0.82576  -0.79103  -0.77664  -0.77618
 Alpha  occ. eigenvalues --   -0.72257  -0.71355  -0.70594  -0.65154  -0.64890
 Alpha  occ. eigenvalues --   -0.64546  -0.62223  -0.60309  -0.58881  -0.57014
 Alpha  occ. eigenvalues --   -0.55382  -0.54720  -0.53210  -0.52968  -0.52149
 Alpha  occ. eigenvalues --   -0.51853  -0.49419  -0.48994  -0.48986  -0.47395
 Alpha  occ. eigenvalues --   -0.46153  -0.45238  -0.45084  -0.44918  -0.43229
 Alpha  occ. eigenvalues --   -0.37462  -0.36479
 Alpha virt. eigenvalues --    0.04883   0.11167   0.16383   0.19504   0.22736
 Alpha virt. eigenvalues --    0.24817   0.25807   0.27443   0.28031   0.28383
 Alpha virt. eigenvalues --    0.29450   0.31219   0.31929   0.32130   0.32667

 Mulliken charges:
               1
     1  C   -0.300197
     2  C   -0.297315
     3  C   -0.475317
     4  H    0.151820
     5  H    0.150302
     6  H    0.141148
     7  H    0.152951
     8  H    0.157333
     9  H    0.153659
    10  H    0.157778
    11  C   -0.297182
    12  C   -0.304293
    13  C   -0.473640
    14  H    0.145443
    15  H    0.145934
    16  H    0.176203
    17  H    0.145131
    18  H    0.146538
    19  H    0.159619
    20  H    0.161254
    21  C   -0.170397
    22  C   -0.219135
    23  C   -0.173722
    24  C    0.157212
    25  C   -0.170281
    26  C   -0.218670
    27  H    0.226191
    28  H    0.224364
    29  H    0.278934
    30  H    0.275897
    31  H    0.223939
    32  N    0.494631
    33  O   -0.458342
    34  O   -0.467788
 Sum of Mulliken charges =  -0.00000

 Dipole moment (field-independent basis, Debye):
    X=              2.4069    Y=              4.3454    Z=              1.4045  Tot=              5.1622
 Quadrupole moment (field-independent basis, Debye-Ang):
   XX=            -79.3710   YY=            -97.1087   ZZ=            -96.6177
   XY=              9.0559   XZ=              3.0391   YZ=             -0.0330

 Normal termination of Gaussian 16 at Wed May  5 15:44:19 2021.
