 Gaussian 16, Revision A.03,
 Gaussian 16:  EM64L-G16RevA.03 25-Dec-2016

 -------------
 #p 6-31g* mp2
 -------------

 ------------------------------------------------------
 Input file generated by CHIRIPA (05-May-2021 14:53:15)
 ------------------------------------------------------
 Symbolic Z-matrix:
 Charge =  0 Multiplicity = 1

                         Standard orientation:
 ---------------------------------------------------------------------
 Center     Atomic      Atomic             Coordinates (Angstroms)
 Number     Number       Type             X           Y           Z
 ---------------------------------------------------------------------
      1          6           0       -3.078112   -0.120622   -0.017758
      2          6           0       -4.408414   -0.813384   -0.315020
      3          6           0       -4.259939   -2.323840   -0.500140
      4          1           0       -2.375094   -0.323693   -0.837192
      5          1           0       -2.637977   -0.560455    0.887904
      6          1           0       -4.846576   -0.371429   -1.219069
      7          1           0       -5.108408   -0.608482    0.505126
      8          1           0       -3.845718   -2.783762    0.402908
      9          1           0       -3.582398   -2.545361   -1.331084
     10          1           0       -5.222935   -2.798962   -0.711701
     11          6           0       -3.210219    1.389704    0.169830
     12          6           0       -1.879918    2.082465    0.467092
     13          6           0       -2.028392    3.592922    0.652212
     14          1           0       -3.650355    1.829536   -0.735832
     15          1           0       -3.913237    1.592774    0.989265
     16          1           0       -1.179923    1.877564   -0.353054
     17          1           0       -1.441756    1.640510    1.371142
     18          1           0       -2.705933    3.814443    1.483157
     19          1           0       -2.442613    4.052843   -0.250835
     20          1           0       -1.065396    4.068044    0.863774
     21          6           0        0.688453   -2.226371    0.435831
     22          6           0        1.808484   -2.112470    1.265939
     23          6           0        2.794304   -1.157180    1.001124
     24          6           0        2.627296   -0.328424   -0.107281
     25          6           0        1.522749   -0.417431   -0.953060
     26          6           0        0.549405   -1.379980   -0.669071
     27          1           0       -0.072510   -2.971283    0.648993
     28          1           0        1.919103   -2.768446    2.124720
     29          1           0        3.671424   -1.047408    1.627244
     30          1           0        1.440225    0.250632   -1.801765
     31          1           0       -0.319374   -1.466173   -1.315475
     32          7           0        3.664336    0.686742   -0.397778
     33          8           0        3.493775    1.404927   -1.380507
     34          8           0        4.628090    0.745020    0.362760
 ---------------------------------------------------------------------

 SCF Done:  E(RHF) =  -669.535227422     A.U. after   15 cycles
 E2 =    -0.2092541677D+01 EUMP2 =    -0.67162776909918D+03

 The electronic state is 1-A.
 Alpha  occ. eigenvalues --  -20.60746 -20.60741 -15.85800 -11.31160 -11.27722
 Alpha  occ. eigenvalues --  -11.27718 -11.27447 -11.26745 -11.26710 -11.22342
 Alpha  occ. eigenvalues --  -11.22161 -11.21997 -11.21927 -11.21859 -11.21226
 Alpha  occ. eigenvalues --   -1.59822  -1.39376  -1.19327  -1.09043  -1.08717
 Alpha  occ. eigenvalues --   -1.04731  -1.04078  -0.96548  -0.95557  -0.87563
 Alpha  occ. eigenvalues --   -0.86130  -0.82396  -0.80162  -0.78853  -0.77434
 Alpha  occ. eigenvalues --   -0.72018  -0.71144  -0.70427  -0.65709  -0.64978
 Alpha  occ. eigenvalues --   -0.64726  -0.62090  -0.61471  -0.59927  -0.58143
 Alpha  occ. eigenvalues --   -0.55861  -0.55221  -0.53249  -0.53056  -0.52997
 Alpha  occ. eigenvalues --   -0.52779  -0.50496  -0.48786  -0.48774  -0.48461
 Alpha  occ. eigenvalues --   -0.47201  -0.46360  -0.46274  -0.44783  -0.44339
 Alpha  occ. eigenvalues --   -0.37286  -0.36295
 Alpha virt. eigenvalues --    0.05062   0.11259   0.16477   0.19624   0.22868
 Alpha virt. eigenvalues --    0.23606   0.24632   0.26329   0.27233   0.28590
 Alpha virt. eigenvalues --    0.29300   0.29682   0.31203   0.31689   0.31798

 Mulliken charges:
               1
     1  C   -0.299178
     2  C   -0.299765
     3  C   -0.476205
     4  H    0.142013
     5  H    0.148979
     6  H    0.154532
     7  H    0.155205
     8  H    0.151835
     9  H    0.149509
    10  H    0.165081
    11  C   -0.298933
    12  C   -0.299384
    13  C   -0.476597
    14  H    0.150759
    15  H    0.151484
    16  H    0.150098
    17  H    0.153430
    18  H    0.154989
    19  H    0.155705
    20  H    0.164994
    21  C   -0.172565
    22  C   -0.218679
    23  C   -0.171212
    24  C    0.158617
    25  C   -0.172213
    26  C   -0.214663
    27  H    0.226332
    28  H    0.223178
    29  H    0.275384
    30  H    0.274844
    31  H    0.225529
    32  N    0.488098
    33  O   -0.460644
    34  O   -0.460555
 Sum of Mulliken charges =  -0.00000

 Dipole moment (field-independent basis, Debye):
    X=             -3.7520    Y=             -3.4874    Z=              1.0839  Tot=              5.2358
 Quadrupole moment (field-independent basis, Debye-Ang):
   XX=           -112.7953   YY=            -93.6099   ZZ=            -91.1345
   XY=             -9.2871   XZ=              5.2853   YZ=             -1.6878

 Normal termination of Gaussian 16 at Thu May  6 07:27:36 2021.
