 Gaussian 16, Revision A.03,
 Gaussian 16:  EM64L-G16RevA.03 25-Dec-2016

 -------------
 #p 6-31g* mp2
 -------------

 ------------------------------------------------------
 Input file generated by CHIRIPA (05-May-2021 14:53:17)
 ------------------------------------------------------
 Symbolic Z-matrix:
 Charge =  0 Multiplicity = 1

                         Standard orientation:
 ---------------------------------------------------------------------
 Center     Atomic      Atomic             Coordinates (Angstroms)
 Number     Number       Type             X           Y           Z
 ---------------------------------------------------------------------
      1          6           0        3.300033   -0.432980   -0.069547
      2          6           0        3.904751    0.664035   -0.946393
      3          6           0        4.753916    0.106505   -2.089141
      4          1           0        4.108824   -1.052667    0.341294
      5          1           0        2.685530   -1.095413   -0.694819
      6          1           0        4.516815    1.325009   -0.319410
      7          1           0        3.094437    1.281299   -1.355041
      8          1           0        4.151365   -0.536892   -2.738428
      9          1           0        5.581825   -0.492933   -1.696914
     10          1           0        5.176447    0.907851   -2.703284
     11          6           0        2.448423    0.108682    1.077227
     12          6           0        1.843705   -0.988334    1.954072
     13          6           0        0.994540   -0.430803    3.096820
     14          1           0        3.062926    0.771114    1.702499
     15          1           0        1.639632    0.728368    0.666385
     16          1           0        2.654019   -1.605598    2.362720
     17          1           0        1.231641   -1.649308    1.327090
     18          1           0        0.166631    0.168635    2.704593
     19          1           0        1.597091    0.212593    3.746108
     20          1           0        0.572009   -1.232150    3.710963
     21          6           0       -1.907508    2.589747    0.036478
     22          6           0       -0.826906    1.792908   -0.355783
     23          6           0       -1.002540    0.427035   -0.596801
     24          6           0       -2.278166   -0.111441   -0.435206
     25          6           0       -3.374557    0.656259   -0.045524
     26          6           0       -3.175649    2.019884    0.190085
     27          1           0       -1.762032    3.649917    0.221606
     28          1           0        0.159072    2.232763   -0.475866
     29          1           0       -0.183410   -0.212977   -0.901480
     30          1           0       -4.345593    0.189242    0.065845
     31          1           0       -4.016687    2.636295    0.494615
     32          7           0       -2.476421   -1.556240   -0.687498
     33          8           0       -3.610242   -2.006536   -0.538094
     34          8           0       -1.494238   -2.211020   -1.029871
 ---------------------------------------------------------------------

 SCF Done:  E(RHF) =  -669.534830395     A.U. after   15 cycles
 E2 =    -0.2094252107D+01 EUMP2 =    -0.67162908250278D+03

 The electronic state is 1-A.
 Alpha  occ. eigenvalues --  -20.60860 -20.60853 -15.85906 -11.31270 -11.27841
 Alpha  occ. eigenvalues --  -11.27834 -11.27574 -11.26848 -11.26837 -11.22127
 Alpha  occ. eigenvalues --  -11.21812 -11.21745 -11.21683 -11.21396 -11.21129
 Alpha  occ. eigenvalues --   -1.59928  -1.39482  -1.19451  -1.08846  -1.08803
 Alpha  occ. eigenvalues --   -1.04863  -1.03808  -0.96263  -0.95674  -0.87277
 Alpha  occ. eigenvalues --   -0.86247  -0.82525  -0.79885  -0.78641  -0.77551
 Alpha  occ. eigenvalues --   -0.72126  -0.71248  -0.70562  -0.65563  -0.65062
 Alpha  occ. eigenvalues --   -0.64857  -0.62186  -0.61191  -0.59627  -0.57864
 Alpha  occ. eigenvalues --   -0.55581  -0.55307  -0.53187  -0.52988  -0.52902
 Alpha  occ. eigenvalues --   -0.52658  -0.50212  -0.48884  -0.48882  -0.48188
 Alpha  occ. eigenvalues --   -0.46929  -0.46156  -0.46057  -0.44879  -0.44090
 Alpha  occ. eigenvalues --   -0.37420  -0.36390
 Alpha virt. eigenvalues --    0.04937   0.11140   0.16313   0.19041   0.22913
 Alpha virt. eigenvalues --    0.23855   0.25015   0.25712   0.27307   0.28337
 Alpha virt. eigenvalues --    0.30467   0.31016   0.31408   0.31666   0.32306

 Mulliken charges:
               1
     1  C   -0.302630
     2  C   -0.298689
     3  C   -0.476069
     4  H    0.154352
     5  H    0.153675
     6  H    0.153028
     7  H    0.141794
     8  H    0.158069
     9  H    0.157810
    10  H    0.160454
    11  C   -0.305178
    12  C   -0.303480
    13  C   -0.478369
    14  H    0.150337
    15  H    0.142339
    16  H    0.154184
    17  H    0.161694
    18  H    0.155771
    19  H    0.152840
    20  H    0.163620
    21  C   -0.171637
    22  C   -0.221379
    23  C   -0.170826
    24  C    0.157208
    25  C   -0.170537
    26  C   -0.218636
    27  H    0.226482
    28  H    0.226733
    29  H    0.279698
    30  H    0.275967
    31  H    0.223952
    32  N    0.488348
    33  O   -0.459527
    34  O   -0.461399
 Sum of Mulliken charges =  -0.00000

 Dipole moment (field-independent basis, Debye):
    X=              0.6923    Y=              4.9777    Z=              0.8957  Tot=              5.1048
 Quadrupole moment (field-independent basis, Debye-Ang):
   XX=            -92.4237   YY=            -96.3820   ZZ=            -96.4746
   XY=            -12.5496   XZ=             -2.6369   YZ=             -2.4558

 Normal termination of Gaussian 16 at Thu May  6 17:19:43 2021.
