 Gaussian 16, Revision A.03,
 Gaussian 16:  EM64L-G16RevA.03 25-Dec-2016

 -------------
 #p 6-31g* mp2
 -------------

 ------------------------------------------------------
 Input file generated by CHIRIPA (05-May-2021 14:57:22)
 ------------------------------------------------------
 Symbolic Z-matrix:
 Charge =  0 Multiplicity = 1

                         Standard orientation:
 ---------------------------------------------------------------------
 Center     Atomic      Atomic             Coordinates (Angstroms)
 Number     Number       Type             X           Y           Z
 ---------------------------------------------------------------------
      1          6           0       -2.914710    2.595018   -0.299019
      2          6           0       -3.868088    1.795367   -0.937885
      3          6           0       -3.844090    0.405518   -0.788584
      4          6           0       -2.848183   -0.153805    0.010552
      5          6           0       -1.884446    0.616083    0.659992
      6          6           0       -1.927672    2.003866    0.496478
      7          1           0       -2.940821    3.673884   -0.420520
      8          1           0       -4.635791    2.251721   -1.556285
      9          1           0       -4.569931   -0.237214   -1.271769
     10          1           0       -1.131340    0.132264    1.270049
     11          1           0       -1.185984    2.622405    0.993824
     12          7           0       -2.812600   -1.624083    0.176134
     13          8           0       -1.924923   -2.092445    0.885572
     14          8           0       -3.673060   -2.280284   -0.406657
     15          6           0        2.289164    0.093467    2.469025
     16          6           0        1.670624   -0.880811    1.678638
     17          6           0        1.975936   -0.990798    0.318771
     18          6           0        2.908659   -0.106108   -0.220340
     19          6           0        3.541821    0.875088    0.541008
     20          6           0        3.221145    0.966767    1.898694
     21          1           0        2.046023    0.171796    3.524555
     22          1           0        0.946449   -1.560378    2.118871
     23          1           0        1.511992   -1.735787   -0.316182
     24          1           0        4.259653    1.538286    0.073777
     25          1           0        3.703074    1.724375    2.510101
     26          7           0        3.240011   -0.212855   -1.658815
     27          8           0        4.065170    0.578571   -2.109809
     28          8           0        2.668293   -1.085928   -2.308060
 ---------------------------------------------------------------------

 SCF Done:  E(RHF) =  -868.339457121     A.U. after   16 cycles
 E2 =    -0.2600591417D+01 EUMP2 =    -0.87094004853735D+03

 The electronic state is 1-A.
 Alpha  occ. eigenvalues --  -20.61327 -20.61252 -20.60787 -20.60768 -15.86331
 Alpha  occ. eigenvalues --  -15.85832 -11.31463 -11.31243 -11.28004 -11.27998
 Alpha  occ. eigenvalues --  -11.27870 -11.27724 -11.27717 -11.27600 -11.26995
 Alpha  occ. eigenvalues --  -11.26969 -11.26902 -11.26681  -1.60348  -1.59856
 Alpha  occ. eigenvalues --   -1.39917  -1.39406  -1.19623  -1.19435  -1.09060
 Alpha  occ. eigenvalues --   -1.08829  -1.05003  -1.04803  -0.95933  -0.95644
 Alpha  occ. eigenvalues --   -0.86417  -0.86200  -0.82786  -0.82441  -0.77882
 Alpha  occ. eigenvalues --   -0.77453  -0.72568  -0.72046  -0.71653  -0.71184
 Alpha  occ. eigenvalues --   -0.70744  -0.70523  -0.65289  -0.65069  -0.65027
 Alpha  occ. eigenvalues --   -0.64735  -0.62401  -0.62059  -0.55520  -0.55329
 Alpha  occ. eigenvalues --   -0.53393  -0.53284  -0.52957  -0.52810  -0.49326
 Alpha  occ. eigenvalues --   -0.49274  -0.48812  -0.48795  -0.45372  -0.44799
 Alpha  occ. eigenvalues --   -0.37593  -0.37470  -0.36681  -0.36321
 Alpha virt. eigenvalues --    0.04621   0.05053   0.10999   0.11135   0.16200
 Alpha virt. eigenvalues --    0.16424   0.20902   0.21745   0.26553   0.27357
 Alpha virt. eigenvalues --    0.28329   0.28621   0.30580   0.31312   0.32191

 Mulliken charges:
               1
     1  C   -0.169303
     2  C   -0.218471
     3  C   -0.169113
     4  C    0.157323
     5  C   -0.171724
     6  C   -0.220673
     7  H    0.226844
     8  H    0.225028
     9  H    0.276602
    10  H    0.274625
    11  H    0.223328
    12  N    0.490780
    13  O   -0.473942
    14  O   -0.454736
    15  C   -0.176501
    16  C   -0.234449
    17  C   -0.172232
    18  C    0.158209
    19  C   -0.172161
    20  C   -0.220289
    21  H    0.225932
    22  H    0.243770
    23  H    0.285112
    24  H    0.275069
    25  H    0.222298
    26  N    0.487838
    27  O   -0.461995
    28  O   -0.457172
 Sum of Mulliken charges =  -0.00000

 Dipole moment (field-independent basis, Debye):
    X=             -1.4246    Y=              5.4642    Z=              4.3423  Tot=              7.1233
 Quadrupole moment (field-independent basis, Debye-Ang):
   XX=           -106.0690   YY=           -104.1827   ZZ=           -106.5336
   XY=            -10.8498   XZ=             20.1060   YZ=              0.1021

 Normal termination of Gaussian 16 at Wed May  5 16:17:22 2021.
