 Gaussian 16, Revision A.03,
 Gaussian 16:  EM64L-G16RevA.03 25-Dec-2016

 -------------
 #p 6-31g* mp2
 -------------

 ------------------------------------------------------
 Input file generated by CHIRIPA (05-May-2021 14:51:08)
 ------------------------------------------------------
 Symbolic Z-matrix:
 Charge =  0 Multiplicity = 1

                         Standard orientation:
 ---------------------------------------------------------------------
 Center     Atomic      Atomic             Coordinates (Angstroms)
 Number     Number       Type             X           Y           Z
 ---------------------------------------------------------------------
      1          6           0        2.695703   -0.532320   -0.149392
      2          6           0        2.816763   -1.710712    0.817418
      3          6           0        2.065047   -2.951394    0.334275
      4          1           0        1.633661   -0.288200   -0.288737
      5          1           0        3.078870   -0.834046   -1.134044
      6          1           0        2.434758   -1.406421    1.800319
      7          1           0        3.878649   -1.951932    0.954626
      8          1           0        2.450841   -3.282289   -0.635402
      9          1           0        0.998746   -2.733678    0.215096
     10          1           0        2.164938   -3.781639    1.040372
     11          6           0        3.441906    0.715381    0.319810
     12          6           0        3.320846    1.893773   -0.646999
     13          6           0        4.072562    3.134454   -0.163857
     14          1           0        3.058739    1.017107    1.304462
     15          1           0        4.503948    0.471261    0.459156
     16          1           0        2.258960    2.134992   -0.784208
     17          1           0        3.702851    1.589481   -1.629901
     18          1           0        5.138863    2.916738   -0.044678
     19          1           0        3.686768    3.465349    0.805820
     20          1           0        3.972671    3.964700   -0.869954
     21          6           0       -3.098265    0.664434   -0.190480
     22          6           0       -4.285386    1.328144    0.508246
     23          6           0       -4.330670    2.840553    0.288334
     24          1           0       -2.166218    1.117488    0.174179
     25          1           0       -3.149252    0.877975   -1.267140
     26          1           0       -4.232934    1.112257    1.583075
     27          1           0       -5.214706    0.873325    0.142022
     28          1           0       -4.407197    3.072542   -0.778870
     29          1           0       -3.419846    3.312833    0.670371
     30          1           0       -5.187067    3.294665    0.796493
     31          6           0       -3.039344   -0.847495    0.020062
     32          6           0       -1.852223   -1.511204   -0.678664
     33          6           0       -1.806939   -3.023613   -0.458752
     34          1           0       -2.988357   -1.061035    1.096722
     35          1           0       -3.971391   -1.300548   -0.344597
     36          1           0       -0.922903   -1.056385   -0.312440
     37          1           0       -1.904675   -1.295318   -1.753494
     38          1           0       -2.717763   -3.495893   -0.840788
     39          1           0       -1.730413   -3.255603    0.608453
     40          1           0       -0.950542   -3.477725   -0.966912
 ---------------------------------------------------------------------

 SCF Done:  E(RHF) =  -470.732600497     A.U. after   11 cycles
 E2 =    -0.1583715477D+01 EUMP2 =    -0.47231631597408D+03

 The electronic state is 1-A.
 Alpha  occ. eigenvalues --  -11.21657 -11.21637 -11.21599 -11.21575 -11.21452
 Alpha  occ. eigenvalues --  -11.21401 -11.21393 -11.21342 -11.21100 -11.21070
 Alpha  occ. eigenvalues --  -11.21069 -11.20957  -1.08485  -1.08416  -1.03604
 Alpha  occ. eigenvalues --   -1.03484  -0.96069  -0.95914  -0.87095  -0.86918
 Alpha  occ. eigenvalues --   -0.79637  -0.79577  -0.78325  -0.78204  -0.65216
 Alpha  occ. eigenvalues --   -0.64973  -0.61189  -0.60749  -0.59447  -0.59284
 Alpha  occ. eigenvalues --   -0.57764  -0.57449  -0.55474  -0.55079  -0.52813
 Alpha  occ. eigenvalues --   -0.52631  -0.52520  -0.52211  -0.50065  -0.49762
 Alpha  occ. eigenvalues --   -0.47956  -0.47866  -0.46753  -0.46563  -0.46001
 Alpha  occ. eigenvalues --   -0.45783  -0.45740  -0.45446  -0.43825  -0.43758
 Alpha virt. eigenvalues --    0.20740   0.23258   0.23450   0.24901   0.25358
 Alpha virt. eigenvalues --    0.26864   0.27092   0.27122   0.28800   0.29208
 Alpha virt. eigenvalues --    0.30651   0.31241   0.31536   0.31773   0.32335

 Mulliken charges:
               1
     1  C   -0.303346
     2  C   -0.298931
     3  C   -0.485871
     4  H    0.153536
     5  H    0.149718
     6  H    0.150980
     7  H    0.151750
     8  H    0.154110
     9  H    0.168780
    10  H    0.159782
    11  C   -0.297972
    12  C   -0.299678
    13  C   -0.475689
    14  H    0.149120
    15  H    0.149826
    16  H    0.151946
    17  H    0.152042
    18  H    0.155197
    19  H    0.155039
    20  H    0.160316
    21  C   -0.298219
    22  C   -0.299696
    23  C   -0.475732
    24  H    0.148825
    25  H    0.149819
    26  H    0.151957
    27  H    0.152148
    28  H    0.155302
    29  H    0.155089
    30  H    0.160407
    31  C   -0.297696
    32  C   -0.308004
    33  C   -0.480556
    34  H    0.149496
    35  H    0.150151
    36  H    0.157181
    37  H    0.152812
    38  H    0.156820
    39  H    0.155440
    40  H    0.163804
 Sum of Mulliken charges =  -0.00000

 Dipole moment (field-independent basis, Debye):
    X=             -0.0399    Y=             -0.0139    Z=             -0.0199  Tot=              0.0467
 Quadrupole moment (field-independent basis, Debye-Ang):
   XX=            -84.0649   YY=            -86.7987   ZZ=            -83.8863
   XY=             -0.4150   XZ=             -0.0666   YZ=              0.1738

 Normal termination of Gaussian 16 at Thu May  6 06:52:47 2021.
