 Gaussian 16, Revision A.03,
 Gaussian 16:  EM64L-G16RevA.03 25-Dec-2016

 -------------
 #p 6-31g* mp2
 -------------

 ------------------------------------------------------
 Input file generated by CHIRIPA (05-May-2021 14:53:14)
 ------------------------------------------------------
 Symbolic Z-matrix:
 Charge =  0 Multiplicity = 1

                         Standard orientation:
 ---------------------------------------------------------------------
 Center     Atomic      Atomic             Coordinates (Angstroms)
 Number     Number       Type             X           Y           Z
 ---------------------------------------------------------------------
      1          6           0       -3.774041   -0.441851   -0.495143
      2          6           0       -4.543762   -1.629057    0.084561
      3          6           0       -4.419408   -2.889370   -0.772142
      4          1           0       -4.141334   -0.235022   -1.509669
      5          1           0       -2.714435   -0.714751   -0.595919
      6          1           0       -5.601357   -1.353525    0.185505
      7          1           0       -4.174725   -1.832963    1.097897
      8          1           0       -3.371056   -3.191540   -0.862986
      9          1           0       -4.805794   -2.709377   -1.780562
     10          1           0       -4.977242   -3.725654   -0.339348
     11          6           0       -3.888714    0.825478    0.350111
     12          6           0       -3.118993    2.012683   -0.229593
     13          6           0       -3.243347    3.272997    0.627110
     14          1           0       -4.948320    1.098377    0.450887
     15          1           0       -3.521421    0.618648    1.364636
     16          1           0       -3.488030    2.216589   -1.242929
     17          1           0       -2.061398    1.737151   -0.330537
     18          1           0       -2.856961    3.093004    1.635529
     19          1           0       -4.291699    3.575166    0.717953
     20          1           0       -2.685513    4.109280    0.194316
     21          6           0        0.532183   -0.441931    0.529617
     22          6           0        1.465525   -1.297963    1.123420
     23          6           0        2.831656   -1.145414    0.868543
     24          6           0        3.231192   -0.121617    0.010929
     25          6           0        2.325606    0.747290   -0.595869
     26          6           0        0.964440    0.576168   -0.326622
     27          1           0       -0.527132   -0.567648    0.733195
     28          1           0        1.132708   -2.089506    1.788807
     29          1           0        3.575682   -1.793990    1.314852
     30          1           0        2.687715    1.527140   -1.254754
     31          1           0        0.241844    1.242457   -0.789181
     32          7           0        4.674825    0.049711   -0.266505
     33          8           0        5.001202    0.959443   -1.025783
     34          8           0        5.452633   -0.728979    0.280573
 ---------------------------------------------------------------------

 SCF Done:  E(RHF) =  -669.535157746     A.U. after   15 cycles
 E2 =    -0.2092249050D+01 EUMP2 =    -0.67162740679652D+03

 The electronic state is 1-A.
 Alpha  occ. eigenvalues --  -20.60750 -20.60744 -15.85803 -11.31172 -11.27740
 Alpha  occ. eigenvalues --  -11.27732 -11.27470 -11.26760 -11.26730 -11.22818
 Alpha  occ. eigenvalues --  -11.22576 -11.22528 -11.22479 -11.22000 -11.21874
 Alpha  occ. eigenvalues --   -1.59825  -1.39378  -1.19343  -1.09539  -1.08738
 Alpha  occ. eigenvalues --   -1.04748  -1.04539  -0.96962  -0.95574  -0.87971
 Alpha  occ. eigenvalues --   -0.86151  -0.82407  -0.80619  -0.79357  -0.77451
 Alpha  occ. eigenvalues --   -0.72021  -0.71148  -0.70484  -0.66222  -0.64993
 Alpha  occ. eigenvalues --   -0.64740  -0.62188  -0.61854  -0.60326  -0.58579
 Alpha  occ. eigenvalues --   -0.56296  -0.55212  -0.53626  -0.53369  -0.53073
 Alpha  occ. eigenvalues --   -0.52853  -0.50899  -0.48930  -0.48776  -0.48762
 Alpha  occ. eigenvalues --   -0.47657  -0.46861  -0.46819  -0.44813  -0.44783
 Alpha  occ. eigenvalues --   -0.37323  -0.36348
 Alpha virt. eigenvalues --    0.05070   0.11281   0.16514   0.18060   0.22399
 Alpha virt. eigenvalues --    0.23470   0.24980   0.25566   0.26599   0.27762
 Alpha virt. eigenvalues --    0.29478   0.30717   0.31036   0.31280   0.32246

 Mulliken charges:
               1
     1  C   -0.302371
     2  C   -0.300260
     3  C   -0.476117
     4  H    0.154910
     5  H    0.142167
     6  H    0.155961
     7  H    0.149757
     8  H    0.154057
     9  H    0.157978
    10  H    0.163280
    11  C   -0.299775
    12  C   -0.305153
    13  C   -0.475856
    14  H    0.155527
    15  H    0.147647
    16  H    0.156742
    17  H    0.143366
    18  H    0.156747
    19  H    0.159310
    20  H    0.162652
    21  C   -0.176855
    22  C   -0.219194
    23  C   -0.170953
    24  C    0.158817
    25  C   -0.171031
    26  C   -0.224856
    27  H    0.231257
    28  H    0.223486
    29  H    0.275528
    30  H    0.275944
    31  H    0.230178
    32  N    0.487895
    33  O   -0.460354
    34  O   -0.460430
 Sum of Mulliken charges =  -0.00000

 Dipole moment (field-independent basis, Debye):
    X=             -5.3549    Y=             -0.5599    Z=              0.9569  Tot=              5.4685
 Quadrupole moment (field-independent basis, Debye-Ang):
   XX=           -126.0619   YY=            -92.3731   ZZ=            -93.4270
   XY=             -2.6487   XZ=              4.3927   YZ=             -3.4358

 Normal termination of Gaussian 16 at Wed May  5 20:12:55 2021.
