 Gaussian 16, Revision A.03,
 Gaussian 16:  EM64L-G16RevA.03 25-Dec-2016

 -------------
 #p 6-31g* mp2
 -------------

 ------------------------------------------------------
 Input file generated by CHIRIPA (05-May-2021 14:53:13)
 ------------------------------------------------------
 Symbolic Z-matrix:
 Charge =  0 Multiplicity = 1

                         Standard orientation:
 ---------------------------------------------------------------------
 Center     Atomic      Atomic             Coordinates (Angstroms)
 Number     Number       Type             X           Y           Z
 ---------------------------------------------------------------------
      1          6           0        3.471628    0.775944    0.239945
      2          6           0        2.899529    1.855212   -0.679766
      3          6           0        3.387467    3.258663   -0.319162
      4          1           0        3.197462    1.005362    1.278764
      5          1           0        4.568956    0.807201    0.192091
      6          1           0        1.803585    1.821014   -0.631249
      7          1           0        3.174927    1.623094   -1.716537
      8          1           0        4.478722    3.316121   -0.385954
      9          1           0        3.099589    3.515165    0.705501
     10          1           0        2.966287    4.014634   -0.989218
     11          6           0        2.993040   -0.632481   -0.107937
     12          6           0        3.565139   -1.711748    0.811774
     13          6           0        3.077201   -3.115200    0.451170
     14          1           0        1.895712   -0.663738   -0.060083
     15          1           0        3.267206   -0.861899   -1.146757
     16          1           0        3.289741   -1.479631    1.848544
     17          1           0        4.661083   -1.677551    0.763256
     18          1           0        3.365079   -3.371702   -0.573493
     19          1           0        1.985946   -3.172658    0.517961
     20          1           0        3.498381   -3.871171    1.121225
     21          6           0       -2.013348   -2.460853   -0.617910
     22          6           0       -3.302604   -2.095278   -0.217043
     23          6           0       -3.597616   -0.765795    0.099176
     24          6           0       -2.574751    0.176448    0.003187
     25          6           0       -1.280416   -0.156591   -0.393138
     26          6           0       -1.008141   -1.492051   -0.704525
     27          1           0       -1.793008   -3.495948   -0.861679
     28          1           0       -4.085237   -2.845535   -0.148880
     29          1           0       -4.587052   -0.455256    0.412223
     30          1           0       -0.521059    0.613715   -0.451641
     31          1           0       -0.005980   -1.773077   -1.015560
     32          7           0       -2.875031    1.587075    0.335396
     33          8           0       -1.956317    2.398271    0.242855
     34          8           0       -4.023418    1.854818    0.682032
 ---------------------------------------------------------------------

 SCF Done:  E(RHF) =  -669.535278587     A.U. after   15 cycles
 E2 =    -0.2092936742D+01 EUMP2 =    -0.67162821532860D+03

 The electronic state is 1-A.
 Alpha  occ. eigenvalues --  -20.60769 -20.60764 -15.85821 -11.31175 -11.27747
 Alpha  occ. eigenvalues --  -11.27730 -11.27474 -11.26757 -11.26696 -11.22256
 Alpha  occ. eigenvalues --  -11.22146 -11.21916 -11.21872 -11.21791 -11.21083
 Alpha  occ. eigenvalues --   -1.59844  -1.39398  -1.19346  -1.08984  -1.08739
 Alpha  occ. eigenvalues --   -1.04748  -1.03991  -0.96452  -0.95579  -0.87465
 Alpha  occ. eigenvalues --   -0.86144  -0.82422  -0.80091  -0.78833  -0.77441
 Alpha  occ. eigenvalues --   -0.72040  -0.71166  -0.70459  -0.65647  -0.64989
 Alpha  occ. eigenvalues --   -0.64757  -0.62088  -0.61369  -0.59837  -0.58058
 Alpha  occ. eigenvalues --   -0.55749  -0.55247  -0.53105  -0.53076  -0.52934
 Alpha  occ. eigenvalues --   -0.52799  -0.50391  -0.48801  -0.48797  -0.48377
 Alpha  occ. eigenvalues --   -0.47115  -0.46312  -0.46217  -0.44806  -0.44264
 Alpha  occ. eigenvalues --   -0.37324  -0.36335
 Alpha virt. eigenvalues --    0.05050   0.11245   0.16449   0.19444   0.22488
 Alpha virt. eigenvalues --    0.23140   0.24778   0.26545   0.26691   0.28415
 Alpha virt. eigenvalues --    0.29203   0.30625   0.31188   0.31467   0.32170

 Mulliken charges:
               1
     1  C   -0.298619
     2  C   -0.306261
     3  C   -0.475328
     4  H    0.153878
     5  H    0.152017
     6  H    0.154973
     7  H    0.151310
     8  H    0.154244
     9  H    0.159646
    10  H    0.164760
    11  C   -0.305518
    12  C   -0.299004
    13  C   -0.478740
    14  H    0.143797
    15  H    0.149369
    16  H    0.155892
    17  H    0.155593
    18  H    0.154705
    19  H    0.149700
    20  H    0.164511
    21  C   -0.171423
    22  C   -0.218941
    23  C   -0.170075
    24  C    0.157416
    25  C   -0.178912
    26  C   -0.226756
    27  H    0.226045
    28  H    0.223441
    29  H    0.275583
    30  H    0.285835
    31  H    0.231122
    32  N    0.487251
    33  O   -0.461267
    34  O   -0.460246
 Sum of Mulliken charges =  -0.00000

 Dipole moment (field-independent basis, Debye):
    X=              1.2129    Y=             -4.8672    Z=             -1.1017  Tot=              5.1356
 Quadrupole moment (field-independent basis, Debye-Ang):
   XX=            -94.5142   YY=            -97.5161   ZZ=            -94.9723
   XY=             14.3420   XZ=              1.6648   YZ=             -0.6104

 Normal termination of Gaussian 16 at Thu May  6 04:09:59 2021.
