 Gaussian 16, Revision A.03,
 Gaussian 16:  EM64L-G16RevA.03 25-Dec-2016

 -------------
 #p 6-31g* mp2
 -------------

 ------------------------------------------------------
 Input file generated by CHIRIPA (05-May-2021 14:51:14)
 ------------------------------------------------------
 Symbolic Z-matrix:
 Charge =  0 Multiplicity = 1

                         Standard orientation:
 ---------------------------------------------------------------------
 Center     Atomic      Atomic             Coordinates (Angstroms)
 Number     Number       Type             X           Y           Z
 ---------------------------------------------------------------------
      1          6           0       -3.297146    0.921660   -0.129050
      2          6           0       -2.276194    2.021992   -0.420444
      3          6           0       -2.732176    3.396475    0.070140
      4          1           0       -4.253456    1.182868   -0.602534
      5          1           0       -3.484556    0.882209    0.952946
      6          1           0       -2.089728    2.058431   -1.501424
      7          1           0       -1.322149    1.758041    0.053629
      8          1           0       -2.899781    3.383286    1.151960
      9          1           0       -3.671721    3.685383   -0.411928
     10          1           0       -1.987437    4.168137   -0.148404
     11          6           0       -2.855589   -0.458200   -0.613551
     12          6           0       -3.876541   -1.558533   -0.322158
     13          6           0       -3.420559   -2.933016   -0.812741
     14          1           0       -2.668179   -0.418749   -1.695548
     15          1           0       -1.899280   -0.719409   -0.140067
     16          1           0       -4.830586   -1.294582   -0.796230
     17          1           0       -4.063007   -1.594971    0.758823
     18          1           0       -2.481015   -3.221923   -0.330673
     19          1           0       -3.252954   -2.919827   -1.894561
     20          1           0       -4.165298   -3.704677   -0.594197
     21          6           0        2.535148   -0.694476    0.647669
     22          6           0        1.523919    0.022150    1.543130
     23          6           0        0.447440   -0.916842    2.088364
     24          1           0        2.003314   -1.169437   -0.188100
     25          1           0        3.009186   -1.505451    1.217759
     26          1           0        1.052929    0.832413    0.971941
     27          1           0        2.058245    0.495621    2.376758
     28          1           0        0.899747   -1.718387    2.681277
     29          1           0       -0.111280   -1.379680    1.268478
     30          1           0       -0.264833   -0.383819    2.725870
     31          6           0        3.617587    0.231017    0.094932
     32          6           0        4.628816   -0.485609   -0.800528
     33          6           0        5.705295    0.453383   -1.345763
     34          1           0        3.143550    1.041992   -0.475157
     35          1           0        4.149422    0.705977    0.930700
     36          1           0        4.094491   -0.959080   -1.634158
     37          1           0        5.099806   -1.295874   -0.229340
     38          1           0        6.264015    0.916220   -0.525877
     39          1           0        5.252987    1.254927   -1.938676
     40          1           0        6.417569   -0.079641   -1.983268
 ---------------------------------------------------------------------

 SCF Done:  E(RHF) =  -470.733177629     A.U. after   11 cycles
 E2 =    -0.1583534846D+01 EUMP2 =    -0.47231671247530D+03

 The electronic state is 1-A.
 Alpha  occ. eigenvalues --  -11.21669 -11.21614 -11.21612 -11.21586 -11.21435
 Alpha  occ. eigenvalues --  -11.21387 -11.21374 -11.21321 -11.21157 -11.21079
 Alpha  occ. eigenvalues --  -11.21079 -11.21071  -1.08474  -1.08416  -1.03576
 Alpha  occ. eigenvalues --   -1.03528  -0.96034  -0.95967  -0.87053  -0.86983
 Alpha  occ. eigenvalues --   -0.79674  -0.79557  -0.78276  -0.78246  -0.65241
 Alpha  occ. eigenvalues --   -0.64937  -0.60973  -0.60932  -0.59404  -0.59333
 Alpha  occ. eigenvalues --   -0.57648  -0.57576  -0.55433  -0.55163  -0.52721
 Alpha  occ. eigenvalues --   -0.52671  -0.52474  -0.52386  -0.50104  -0.49812
 Alpha  occ. eigenvalues --   -0.47982  -0.47927  -0.46856  -0.46439  -0.45941
 Alpha  occ. eigenvalues --   -0.45744  -0.45704  -0.45514  -0.43825  -0.43778
 Alpha virt. eigenvalues --    0.19855   0.23090   0.23466   0.24266   0.25934
 Alpha virt. eigenvalues --    0.26768   0.27128   0.27612   0.27863   0.29630
 Alpha virt. eigenvalues --    0.29771   0.31617   0.31673   0.31957   0.32349

 Mulliken charges:
               1
     1  C   -0.297234
     2  C   -0.305505
     3  C   -0.475405
     4  H    0.149661
     5  H    0.149593
     6  H    0.151662
     7  H    0.156795
     8  H    0.155247
     9  H    0.155289
    10  H    0.160117
    11  C   -0.306389
    12  C   -0.299175
    13  C   -0.476203
    14  H    0.148909
    15  H    0.157748
    16  H    0.151881
    17  H    0.152293
    18  H    0.155033
    19  H    0.155017
    20  H    0.160456
    21  C   -0.298216
    22  C   -0.304830
    23  C   -0.480444
    24  H    0.150053
    25  H    0.149685
    26  H    0.155918
    27  H    0.152585
    28  H    0.156063
    29  H    0.159007
    30  H    0.159968
    31  C   -0.298474
    32  C   -0.299730
    33  C   -0.475747
    34  H    0.149857
    35  H    0.149660
    36  H    0.152155
    37  H    0.151932
    38  H    0.155170
    39  H    0.155275
    40  H    0.160322
 Sum of Mulliken charges =  -0.00000

 Dipole moment (field-independent basis, Debye):
    X=              0.0212    Y=             -0.0045    Z=              0.0114  Tot=              0.0245
 Quadrupole moment (field-independent basis, Debye-Ang):
   XX=            -84.9747   YY=            -86.1645   ZZ=            -83.6074
   XY=             -0.4581   XZ=              1.3172   YZ=             -0.3828

 Normal termination of Gaussian 16 at Wed May  5 23:15:38 2021.
