 Gaussian 16, Revision A.03,
 Gaussian 16:  EM64L-G16RevA.03 25-Dec-2016

 -------------
 #p 6-31g* mp2
 -------------

 ------------------------------------------------------
 Input file generated by CHIRIPA (05-May-2021 14:55:25)
 ------------------------------------------------------
 Symbolic Z-matrix:
 Charge =  0 Multiplicity = 1

                         Standard orientation:
 ---------------------------------------------------------------------
 Center     Atomic      Atomic             Coordinates (Angstroms)
 Number     Number       Type             X           Y           Z
 ---------------------------------------------------------------------
      1          6           0       -4.861274   -1.707660   -0.189880
      2          6           0       -4.138496   -1.303263   -1.317079
      3          6           0       -3.104753   -0.369309   -1.200221
      4          6           0       -2.819277    0.142120    0.064782
      5          6           0       -3.521221   -0.240923    1.206642
      6          6           0       -4.550877   -1.176136    1.066168
      7          1           0       -5.662722   -2.433666   -0.289831
      8          1           0       -4.377355   -1.714373   -2.293797
      9          1           0       -2.529163   -0.038708   -2.056268
     10          1           0       -3.259939    0.186572    2.167058
     11          1           0       -5.110514   -1.488358    1.943304
     12          7           0       -1.727063    1.131522    0.200995
     13          8           0       -1.495124    1.567166    1.326631
     14          8           0       -1.123607    1.452636   -0.820456
     15          6           0        3.972053   -0.703767   -0.233099
     16          6           0        5.194979   -1.288426    0.474438
     17          6           0        5.447988   -2.750711    0.106331
     18          1           0        3.087985   -1.305149    0.019305
     19          1           0        4.109413   -0.790793   -1.319816
     20          1           0        5.055967   -1.199066    1.559476
     21          1           0        6.076206   -0.685468    0.220473
     22          1           0        5.612504   -2.853821   -0.971122
     23          1           0        4.586468   -3.370338    0.375489
     24          1           0        6.326789   -3.148579    0.623314
     25          6           0        3.706121    0.757386    0.124728
     26          6           0        2.483195    1.342046   -0.582811
     27          6           0        2.230187    2.804331   -0.214703
     28          1           0        3.568763    0.844413    1.211444
     29          1           0        4.590189    1.358769   -0.127677
     30          1           0        1.601970    0.739088   -0.328845
     31          1           0        2.622208    1.252686   -1.667848
     32          1           0        3.091707    3.423957   -0.483862
     33          1           0        2.065671    2.907442    0.862750
     34          1           0        1.351386    3.202198   -0.731686
 ---------------------------------------------------------------------

 SCF Done:  E(RHF) =  -669.536204013     A.U. after   15 cycles
 E2 =    -0.2091771482D+01 EUMP2 =    -0.67162797549531D+03

 The electronic state is 1-A.
 Alpha  occ. eigenvalues --  -20.61047 -20.61022 -15.86047 -11.31348 -11.27905
 Alpha  occ. eigenvalues --  -11.27901 -11.27637 -11.26904 -11.26894 -11.20949
 Alpha  occ. eigenvalues --  -11.20587 -11.20539 -11.20193 -11.19932 -11.19139
 Alpha  occ. eigenvalues --   -1.60085  -1.39642  -1.19511  -1.08920  -1.07383
 Alpha  occ. eigenvalues --   -1.04902  -1.02355  -0.95768  -0.94819  -0.86303
 Alpha  occ. eigenvalues --   -0.85855  -0.82600  -0.78514  -0.77657  -0.77100
 Alpha  occ. eigenvalues --   -0.72265  -0.71400  -0.70618  -0.65166  -0.64905
 Alpha  occ. eigenvalues --   -0.64029  -0.62248  -0.59764  -0.58289  -0.56385
 Alpha  occ. eigenvalues --   -0.55402  -0.54145  -0.53234  -0.52992  -0.51504
 Alpha  occ. eigenvalues --   -0.51267  -0.49027  -0.48970  -0.48794  -0.46800
 Alpha  occ. eigenvalues --   -0.45622  -0.45148  -0.44627  -0.44388  -0.42611
 Alpha  occ. eigenvalues --   -0.37487  -0.36501
 Alpha virt. eigenvalues --    0.04844   0.11155   0.16344   0.21289   0.23788
 Alpha virt. eigenvalues --    0.25563   0.27216   0.27609   0.28140   0.28520
 Alpha virt. eigenvalues --    0.29191   0.30858   0.32360   0.32489   0.32662

 Mulliken charges:
               1
     1  C   -0.170454
     2  C   -0.218562
     3  C   -0.170694
     4  C    0.158115
     5  C   -0.170735
     6  C   -0.218605
     7  H    0.226219
     8  H    0.224087
     9  H    0.276129
    10  H    0.275908
    11  H    0.224000
    12  N    0.487902
    13  O   -0.458724
    14  O   -0.458008
    15  C   -0.296545
    16  C   -0.298643
    17  C   -0.474912
    18  H    0.146755
    19  H    0.147069
    20  H    0.151107
    21  H    0.151000
    22  H    0.153859
    23  H    0.153211
    24  H    0.158078
    25  C   -0.298409
    26  C   -0.296137
    27  C   -0.474899
    28  H    0.148412
    29  H    0.145453
    30  H    0.159784
    31  H    0.144501
    32  H    0.141985
    33  H    0.155885
    34  H    0.175865
 Sum of Mulliken charges =  -0.00000

 Dipole moment (field-independent basis, Debye):
    X=             -4.2873    Y=             -3.4139    Z=             -0.4712  Tot=              5.5007
 Quadrupole moment (field-independent basis, Debye-Ang):
   XX=            -74.6829   YY=            -97.7729   ZZ=            -89.4246
   XY=             10.0597   XZ=             -0.1876   YZ=             -0.3537

 Normal termination of Gaussian 16 at Thu May  6 01:40:01 2021.
