 Gaussian 16, Revision A.03,
 Gaussian 16:  EM64L-G16RevA.03 25-Dec-2016

 -------------
 #p 6-31g* mp2
 -------------

 ------------------------------------------------------
 Input file generated by CHIRIPA (05-May-2021 14:55:25)
 ------------------------------------------------------
 Symbolic Z-matrix:
 Charge =  0 Multiplicity = 1

                         Standard orientation:
 ---------------------------------------------------------------------
 Center     Atomic      Atomic             Coordinates (Angstroms)
 Number     Number       Type             X           Y           Z
 ---------------------------------------------------------------------
      1          6           0       -4.585840    1.113370   -1.293290
      2          6           0       -4.939607   -0.174625   -0.878033
      3          6           0       -4.024218   -0.974487   -0.187502
      4          6           0       -2.758044   -0.452268    0.072076
      5          6           0       -2.375712    0.827025   -0.328577
      6          6           0       -3.307276    1.609210   -1.017723
      7          1           0       -5.303219    1.727856   -1.829173
      8          1           0       -5.931845   -0.562309   -1.090657
      9          1           0       -4.271739   -1.975111    0.145516
     10          1           0       -1.379104    1.186004   -0.102027
     11          1           0       -3.029775    2.609117   -1.339008
     12          7           0       -1.780400   -1.289689    0.802377
     13          8           0       -0.671228   -0.806410    1.018744
     14          8           0       -2.141808   -2.413482    1.144592
     15          6           0        3.379355    0.585484    0.711632
     16          6           0        2.229772    1.574058    0.513725
     17          6           0        1.525006    1.930928    1.822826
     18          1           0        2.991662   -0.328517    1.181993
     19          1           0        4.106039    1.014965    1.415102
     20          1           0        1.506159    1.143423   -0.190231
     21          1           0        2.620212    2.485736    0.043605
     22          1           0        2.229004    2.384147    2.528220
     23          1           0        1.108620    1.034207    2.293056
     24          1           0        0.706663    2.638791    1.658192
     25          6           0        4.093723    0.218997   -0.588019
     26          6           0        5.243306   -0.769576   -0.390112
     27          6           0        5.948071   -1.126446   -1.699214
     28          1           0        3.367039   -0.210483   -1.291490
     29          1           0        4.481417    1.133000   -1.058381
     30          1           0        4.852867   -1.681255    0.080007
     31          1           0        5.966920   -0.338942    0.313843
     32          1           0        6.364458   -0.229726   -2.169443
     33          1           0        5.244075   -1.579666   -2.404608
     34          1           0        6.766415   -1.834310   -1.534580
 ---------------------------------------------------------------------

 SCF Done:  E(RHF) =  -669.536194151     A.U. after   15 cycles
 E2 =    -0.2091832412D+01 EUMP2 =    -0.67162802656319D+03

 The electronic state is 1-A.
 Alpha  occ. eigenvalues --  -20.60954 -20.60940 -15.85986 -11.31274 -11.27840
 Alpha  occ. eigenvalues --  -11.27822 -11.27574 -11.26842 -11.26828 -11.21034
 Alpha  occ. eigenvalues --  -11.20933 -11.20762 -11.20618 -11.20580 -11.20262
 Alpha  occ. eigenvalues --   -1.60013  -1.39570  -1.19443  -1.08854  -1.07753
 Alpha  occ. eigenvalues --   -1.04835  -1.02889  -0.95708  -0.95328  -0.86354
 Alpha  occ. eigenvalues --   -0.86237  -0.82538  -0.78971  -0.77604  -0.77564
 Alpha  occ. eigenvalues --   -0.72228  -0.71325  -0.70553  -0.65111  -0.64845
 Alpha  occ. eigenvalues --   -0.64340  -0.62191  -0.60230  -0.58737  -0.56977
 Alpha  occ. eigenvalues --   -0.55342  -0.54574  -0.53169  -0.52925  -0.52073
 Alpha  occ. eigenvalues --   -0.51768  -0.49263  -0.48966  -0.48929  -0.47291
 Alpha  occ. eigenvalues --   -0.46003  -0.45127  -0.45074  -0.44863  -0.43155
 Alpha  occ. eigenvalues --   -0.37423  -0.36435
 Alpha virt. eigenvalues --    0.04913   0.11210   0.16411   0.20444   0.23258
 Alpha virt. eigenvalues --    0.24105   0.26680   0.27442   0.27897   0.28330
 Alpha virt. eigenvalues --    0.29369   0.30901   0.31570   0.32253   0.32327

 Mulliken charges:
               1
     1  C   -0.170194
     2  C   -0.218886
     3  C   -0.170253
     4  C    0.156430
     5  C   -0.174803
     6  C   -0.220227
     7  H    0.225961
     8  H    0.223714
     9  H    0.275652
    10  H    0.284103
    11  H    0.224322
    12  N    0.492350
    13  O   -0.466225
    14  O   -0.459041
    15  C   -0.300159
    16  C   -0.299437
    17  C   -0.480511
    18  H    0.162559
    19  H    0.146199
    20  H    0.153115
    21  H    0.144438
    22  H    0.150853
    23  H    0.179430
    24  H    0.145495
    25  C   -0.298084
    26  C   -0.299797
    27  C   -0.475364
    28  H    0.150074
    29  H    0.145583
    30  H    0.155131
    31  H    0.150480
    32  H    0.153122
    33  H    0.154824
    34  H    0.159145
 Sum of Mulliken charges =  -0.00000

 Dipole moment (field-independent basis, Debye):
    X=             -3.6176    Y=              2.7356    Z=             -2.4854  Tot=              5.1718
 Quadrupole moment (field-independent basis, Debye-Ang):
   XX=            -74.2386   YY=            -95.1299   ZZ=            -96.6362
   XY=             -3.5630   XZ=              7.7431   YZ=              0.6156

 Normal termination of Gaussian 16 at Wed May  5 19:12:05 2021.
