 Gaussian 16, Revision A.03,
 Gaussian 16:  EM64L-G16RevA.03 25-Dec-2016

 -------------
 #p 6-31g* mp2
 -------------

 ------------------------------------------------------
 Input file generated by CHIRIPA (05-May-2021 14:57:23)
 ------------------------------------------------------
 Symbolic Z-matrix:
 Charge =  0 Multiplicity = 1

                         Standard orientation:
 ---------------------------------------------------------------------
 Center     Atomic      Atomic             Coordinates (Angstroms)
 Number     Number       Type             X           Y           Z
 ---------------------------------------------------------------------
      1          6           0       -3.028974   -2.235439    0.814237
      2          6           0       -1.829854   -1.516104    0.779743
      3          6           0       -1.813305   -0.183291    0.357980
      4          6           0       -3.019690    0.401515   -0.024022
      5          6           0       -4.230565   -0.288794   -0.000678
      6          6           0       -4.223397   -1.620572    0.424604
      7          1           0       -3.032618   -3.270398    1.143240
      8          1           0       -0.900738   -1.991047    1.081764
      9          1           0       -0.899247    0.396872    0.321548
     10          1           0       -5.140818    0.211745   -0.307790
     11          1           0       -5.156144   -2.176777    0.450373
     12          7           0       -3.014725    1.811956   -0.472386
     13          8           0       -4.091007    2.304297   -0.803829
     14          8           0       -1.934644    2.398413   -0.483881
     15          6           0        3.783603    1.911315    1.156634
     16          6           0        3.983152    1.788924   -0.222396
     17          6           0        3.564408    0.640727   -0.901252
     18          6           0        2.946736   -0.370180   -0.166515
     19          6           0        2.733735   -0.277855    1.208039
     20          6           0        3.160630    0.879355    1.866198
     21          1           0        4.112059    2.806764    1.675946
     22          1           0        4.466682    2.588762   -0.776022
     23          1           0        3.706377    0.519842   -1.968326
     24          1           0        2.248793   -1.091995    1.732848
     25          1           0        3.004345    0.971666    2.937225
     26          7           0        2.499117   -1.590495   -0.874234
     27          8           0        1.957423   -2.466903   -0.204073
     28          8           0        2.698441   -1.647464   -2.085705
 ---------------------------------------------------------------------

 SCF Done:  E(RHF) =  -868.339556427     A.U. after   16 cycles
 E2 =    -0.2599373546D+01 EUMP2 =    -0.87093892997298D+03

 The electronic state is 1-A.
 Alpha  occ. eigenvalues --  -20.61425 -20.61351 -20.60551 -20.60540 -15.86419
 Alpha  occ. eigenvalues --  -15.85594 -11.31612 -11.30815 -11.28210 -11.28069
 Alpha  occ. eigenvalues --  -11.27776 -11.27360 -11.27329 -11.27121 -11.27034
 Alpha  occ. eigenvalues --  -11.27016 -11.26359 -11.26216  -1.60449  -1.59625
 Alpha  occ. eigenvalues --   -1.40012  -1.39183  -1.19738  -1.18951  -1.09154
 Alpha  occ. eigenvalues --   -1.08367  -1.05109  -1.04325  -0.96027  -0.95236
 Alpha  occ. eigenvalues --   -0.86514  -0.85724  -0.82867  -0.82069  -0.77956
 Alpha  occ. eigenvalues --   -0.77141  -0.72640  -0.71820  -0.71761  -0.70943
 Alpha  occ. eigenvalues --   -0.70825  -0.70058  -0.65388  -0.65097  -0.64598
 Alpha  occ. eigenvalues --   -0.64298  -0.62470  -0.61669  -0.55581  -0.54817
 Alpha  occ. eigenvalues --   -0.53441  -0.53193  -0.52667  -0.52394  -0.49412
 Alpha  occ. eigenvalues --   -0.49367  -0.48582  -0.48559  -0.45444  -0.44622
 Alpha  occ. eigenvalues --   -0.37675  -0.36912  -0.36699  -0.35920
 Alpha virt. eigenvalues --    0.04537   0.05371   0.10902   0.11737   0.16081
 Alpha virt. eigenvalues --    0.16920   0.20683   0.21972   0.25968   0.27424
 Alpha virt. eigenvalues --    0.28414   0.28769   0.30305   0.31430   0.32417

 Mulliken charges:
               1
     1  C   -0.171111
     2  C   -0.220071
     3  C   -0.174283
     4  C    0.158747
     5  C   -0.172106
     6  C   -0.218272
     7  H    0.226894
     8  H    0.235364
     9  H    0.271288
    10  H    0.273894
    11  H    0.222222
    12  N    0.488257
    13  O   -0.461356
    14  O   -0.463510
    15  C   -0.168379
    16  C   -0.216070
    17  C   -0.168657
    18  C    0.157595
    19  C   -0.177508
    20  C   -0.216817
    21  H    0.228963
    22  H    0.227166
    23  H    0.277802
    24  H    0.269765
    25  H    0.224830
    26  N    0.489162
    27  O   -0.470058
    28  O   -0.453752
 Sum of Mulliken charges =  -0.00000

 Dipole moment (field-independent basis, Debye):
    X=              1.8668    Y=             -0.5997    Z=              3.9926  Tot=              4.4481
 Quadrupole moment (field-independent basis, Debye-Ang):
   XX=            -90.0592   YY=           -112.2680   ZZ=           -102.6679
   XY=             29.3095   XZ=              1.2785   YZ=             -2.5743

 Normal termination of Gaussian 16 at Thu May  6 06:37:51 2021.
