 Gaussian 16, Revision A.03,
 Gaussian 16:  EM64L-G16RevA.03 25-Dec-2016

 -------------
 #p 6-31g* mp2
 -------------

 ------------------------------------------------------
 Input file generated by CHIRIPA (05-May-2021 14:57:24)
 ------------------------------------------------------
 Symbolic Z-matrix:
 Charge =  0 Multiplicity = 1

                         Standard orientation:
 ---------------------------------------------------------------------
 Center     Atomic      Atomic             Coordinates (Angstroms)
 Number     Number       Type             X           Y           Z
 ---------------------------------------------------------------------
      1          6           0        2.419080    2.169396   -0.876944
      2          6           0        3.775891    2.050332   -0.558493
      3          6           0        4.291936    0.837657   -0.091949
      4          6           0        3.418815   -0.240421    0.044794
      5          6           0        2.062267   -0.153217   -0.264175
      6          6           0        1.568099    1.069181   -0.729029
      7          1           0        2.026702    3.115208   -1.238710
      8          1           0        4.439111    2.903100   -0.672383
      9          1           0        5.338164    0.717756    0.161918
     10          1           0        1.425760   -1.020932   -0.140286
     11          1           0        0.513945    1.158741   -0.975573
     12          7           0        3.953549   -1.529373    0.537809
     13          8           0        3.163539   -2.464274    0.649535
     14          8           0        5.152557   -1.580346    0.803172
     15          6           0       -2.756890    2.294685    0.984493
     16          6           0       -2.260259    1.912862   -0.266144
     17          6           0       -2.571691    0.659366   -0.801221
     18          6           0       -3.386157   -0.191150   -0.055191
     19          6           0       -3.896337    0.160375    1.193583
     20          6           0       -3.571906    1.418766    1.709087
     21          1           0       -2.509913    3.270331    1.392550
     22          1           0       -1.627081    2.591060   -0.831102
     23          1           0       -2.200783    0.338276   -1.767008
     24          1           0       -4.525139   -0.537304    1.733276
     25          1           0       -3.959018    1.712623    2.680600
     26          7           0       -3.722737   -1.520761   -0.611293
     27          8           0       -4.442292   -2.251815    0.065788
     28          8           0       -3.260618   -1.806679   -1.713715
 ---------------------------------------------------------------------

 SCF Done:  E(RHF) =  -868.336191063     A.U. after   16 cycles
 E2 =    -0.2600988337D+01 EUMP2 =    -0.87093717939966D+03

 The electronic state is 1-A.
 Alpha  occ. eigenvalues --  -20.61310 -20.61296 -20.60867 -20.60853 -15.86370
 Alpha  occ. eigenvalues --  -15.85920 -11.31943 -11.31405 -11.28624 -11.28481
 Alpha  occ. eigenvalues --  -11.28301 -11.27993 -11.27972 -11.27839 -11.27708
 Alpha  occ. eigenvalues --  -11.27508 -11.27060 -11.27051  -1.60378  -1.59937
 Alpha  occ. eigenvalues --   -1.39926  -1.39485  -1.20146  -1.19603  -1.09487
 Alpha  occ. eigenvalues --   -1.08997  -1.05607  -1.05017  -0.96286  -0.95803
 Alpha  occ. eigenvalues --   -0.86973  -0.86433  -0.83143  -0.82621  -0.78167
 Alpha  occ. eigenvalues --   -0.77627  -0.72580  -0.72136  -0.71708  -0.71262
 Alpha  occ. eigenvalues --   -0.71222  -0.70749  -0.65814  -0.65658  -0.65260
 Alpha  occ. eigenvalues --   -0.65035  -0.62981  -0.62303  -0.56045  -0.55587
 Alpha  occ. eigenvalues --   -0.53944  -0.53699  -0.53346  -0.53040  -0.49356
 Alpha  occ. eigenvalues --   -0.49325  -0.48908  -0.48881  -0.45286  -0.44864
 Alpha  occ. eigenvalues --   -0.38106  -0.37630  -0.37201  -0.36592
 Alpha virt. eigenvalues --    0.04361   0.04896   0.10347   0.11090   0.15616
 Alpha virt. eigenvalues --    0.16346   0.19150   0.21967   0.25264   0.26792
 Alpha virt. eigenvalues --    0.28018   0.28772   0.30491   0.30899   0.32208

 Mulliken charges:
               1
     1  C   -0.173433
     2  C   -0.218176
     3  C   -0.170801
     4  C    0.158980
     5  C   -0.172126
     6  C   -0.219923
     7  H    0.220353
     8  H    0.223471
     9  H    0.276528
    10  H    0.279956
    11  H    0.220370
    12  N    0.487816
    13  O   -0.457427
    14  O   -0.460358
    15  C   -0.169894
    16  C   -0.220388
    17  C   -0.176082
    18  C    0.159435
    19  C   -0.168703
    20  C   -0.217763
    21  H    0.227620
    22  H    0.216561
    23  H    0.274955
    24  H    0.279484
    25  H    0.227333
    26  N    0.488087
    27  O   -0.456339
    28  O   -0.459536
 Sum of Mulliken charges =  -0.00000

 Dipole moment (field-independent basis, Debye):
    X=             -0.9112    Y=              9.0457    Z=              0.4308  Tot=              9.1016
 Quadrupole moment (field-independent basis, Debye-Ang):
   XX=           -119.4646   YY=           -108.9664   ZZ=           -102.8186
   XY=              2.5806   XZ=            -15.4211   YZ=             -0.5116

 Normal termination of Gaussian 16 at Fri May  7 01:51:17 2021.
