 Gaussian 16, Revision A.03,
 Gaussian 16:  EM64L-G16RevA.03 25-Dec-2016

 -------------
 #p 6-31g* mp2
 -------------

 ------------------------------------------------------
 Input file generated by CHIRIPA (05-May-2021 14:51:11)
 ------------------------------------------------------
 Symbolic Z-matrix:
 Charge =  0 Multiplicity = 1

                         Standard orientation:
 ---------------------------------------------------------------------
 Center     Atomic      Atomic             Coordinates (Angstroms)
 Number     Number       Type             X           Y           Z
 ---------------------------------------------------------------------
      1          6           0       -3.013595   -0.689730   -0.658229
      2          6           0       -1.724599   -1.065171   -1.390021
      3          6           0       -1.754906   -2.488177   -1.948526
      4          1           0       -3.184185   -1.402733    0.159983
      5          1           0       -3.862641   -0.796054   -1.347584
      6          1           0       -0.878078   -0.956840   -0.699889
      7          1           0       -1.556957   -0.351077   -2.206466
      8          1           0       -2.580505   -2.606143   -2.657800
      9          1           0       -1.897769   -3.215348   -1.142663
     10          1           0       -0.823696   -2.735633   -2.467635
     11          6           0       -2.998529    0.729912   -0.094209
     12          6           0       -4.287524    1.105352    0.637583
     13          6           0       -4.257218    2.528359    1.196088
     14          1           0       -2.149483    0.836236    0.595147
     15          1           0       -2.827939    1.442915   -0.912421
     16          1           0       -4.455167    0.391259    1.454028
     17          1           0       -5.134046    0.997022   -0.052549
     18          1           0       -4.114355    3.255530    0.390226
     19          1           0       -3.431618    2.646324    1.905362
     20          1           0       -5.188428    2.775814    1.715197
     21          6           0        3.012502   -0.603336    0.869387
     22          6           0        1.638037   -1.242281    1.070833
     23          6           0        1.667149   -2.407652    2.060206
     24          1           0        3.717296   -1.368503    0.516217
     25          1           0        3.391857   -0.252772    1.839227
     26          1           0        1.260779   -1.590296    0.100689
     27          1           0        0.936386   -0.475463    1.423382
     28          1           0        2.019108   -2.071672    3.040943
     29          1           0        2.345345   -3.192839    1.710735
     30          1           0        0.674247   -2.849646    2.189231
     31          6           0        2.999622    0.563154   -0.116950
     32          6           0        4.374087    1.202100   -0.318395
     33          6           0        4.344974    2.367470   -1.307769
     34          1           0        2.620267    0.212590   -1.086789
     35          1           0        2.294827    1.328322    0.236221
     36          1           0        5.075738    0.435281   -0.670944
     37          1           0        4.751345    1.550114    0.651748
     38          1           0        3.666778    3.152657   -0.958297
     39          1           0        3.993015    2.031491   -2.288505
     40          1           0        5.337877    2.809464   -1.436793
 ---------------------------------------------------------------------

 SCF Done:  E(RHF) =  -470.733130362     A.U. after   11 cycles
 E2 =    -0.1583133003D+01 EUMP2 =    -0.47231626336535D+03

 The electronic state is 1-A.
 Alpha  occ. eigenvalues --  -11.21662 -11.21617 -11.21585 -11.21474 -11.21438
 Alpha  occ. eigenvalues --  -11.21375 -11.21369 -11.21305 -11.21133 -11.21078
 Alpha  occ. eigenvalues --  -11.21065 -11.21047  -1.08474  -1.08384  -1.03583
 Alpha  occ. eigenvalues --   -1.03483  -0.96015  -0.95951  -0.87033  -0.86964
 Alpha  occ. eigenvalues --   -0.79722  -0.79496  -0.78351  -0.78127  -0.65117
 Alpha  occ. eigenvalues --   -0.65011  -0.61039  -0.60846  -0.59422  -0.59277
 Alpha  occ. eigenvalues --   -0.57641  -0.57545  -0.55309  -0.55229  -0.52715
 Alpha  occ. eigenvalues --   -0.52643  -0.52441  -0.52374  -0.49969  -0.49888
 Alpha  occ. eigenvalues --   -0.48155  -0.47777  -0.46781  -0.46506  -0.46016
 Alpha  occ. eigenvalues --   -0.45748  -0.45719  -0.45308  -0.43818  -0.43744
 Alpha virt. eigenvalues --    0.21302   0.23154   0.23610   0.24671   0.25474
 Alpha virt. eigenvalues --    0.26303   0.26998   0.27983   0.28044   0.29155
 Alpha virt. eigenvalues --    0.30857   0.31147   0.31678   0.31787   0.32326

 Mulliken charges:
               1
     1  C   -0.297437
     2  C   -0.309323
     3  C   -0.475502
     4  H    0.149094
     5  H    0.149132
     6  H    0.162846
     7  H    0.151181
     8  H    0.155184
     9  H    0.154842
    10  H    0.159139
    11  C   -0.298668
    12  C   -0.299626
    13  C   -0.475641
    14  H    0.149454
    15  H    0.149708
    16  H    0.151847
    17  H    0.151980
    18  H    0.155183
    19  H    0.154874
    20  H    0.160212
    21  C   -0.297596
    22  C   -0.305759
    23  C   -0.475401
    24  H    0.149779
    25  H    0.149577
    26  H    0.157663
    27  H    0.151832
    28  H    0.155389
    29  H    0.155604
    30  H    0.159977
    31  C   -0.298702
    32  C   -0.299646
    33  C   -0.475719
    34  H    0.149955
    35  H    0.149825
    36  H    0.151938
    37  H    0.151941
    38  H    0.155319
    39  H    0.155269
    40  H    0.160273
 Sum of Mulliken charges =  -0.00000

 Dipole moment (field-independent basis, Debye):
    X=              0.0470    Y=              0.0001    Z=              0.0121  Tot=              0.0485
 Quadrupole moment (field-independent basis, Debye-Ang):
   XX=            -84.6873   YY=            -86.0169   ZZ=            -84.1615
   XY=             -0.3001   XZ=              0.3313   YZ=              0.2774

 Normal termination of Gaussian 16 at Thu May  6 02:17:32 2021.
