 Gaussian 16, Revision A.03,
 Gaussian 16:  EM64L-G16RevA.03 25-Dec-2016

 -------------
 #p 6-31g* mp2
 -------------

 ------------------------------------------------------
 Input file generated by CHIRIPA (05-May-2021 14:57:25)
 ------------------------------------------------------
 Symbolic Z-matrix:
 Charge =  0 Multiplicity = 1

                         Standard orientation:
 ---------------------------------------------------------------------
 Center     Atomic      Atomic             Coordinates (Angstroms)
 Number     Number       Type             X           Y           Z
 ---------------------------------------------------------------------
      1          6           0        4.115561    0.380824   -2.266464
      2          6           0        3.143274   -0.596200   -2.028553
      3          6           0        2.681078   -0.836829   -0.731239
      4          6           0        3.215361   -0.078558    0.309365
      5          6           0        4.184940    0.901849    0.104412
      6          6           0        4.632380    1.125418   -1.201101
      7          1           0        4.468874    0.561124   -3.277433
      8          1           0        2.740114   -1.175979   -2.854000
      9          1           0        1.929130   -1.587055   -0.518747
     10          1           0        4.567959    1.463806    0.947572
     11          1           0        5.387551    1.884833   -1.382898
     12          7           0        2.733866   -0.324271    1.687113
     13          8           0        3.220501    0.357271    2.586737
     14          8           0        1.878953   -1.193749    1.841279
     15          6           0       -2.810435   -2.433580   -0.231904
     16          6           0       -1.783986   -1.536935    0.082664
     17          6           0       -2.040817   -0.165346    0.168265
     18          6           0       -3.341536    0.277011   -0.067832
     19          6           0       -4.385437   -0.591355   -0.383268
     20          6           0       -4.105601   -1.958764   -0.463458
     21          1           0       -2.601988   -3.497440   -0.296299
     22          1           0       -0.777191   -1.902843    0.262991
     23          1           0       -1.264903    0.550850    0.410008
     24          1           0       -5.379012   -0.196669   -0.557770
     25          1           0       -4.904718   -2.652800   -0.707943
     26          7           0       -3.625608    1.726839    0.019925
     27          8           0       -4.780027    2.091286   -0.192516
     28          8           0       -2.688465    2.471315    0.299490
 ---------------------------------------------------------------------

 SCF Done:  E(RHF) =  -868.338745907     A.U. after   15 cycles
 E2 =    -0.2599413429D+01 EUMP2 =    -0.87093815933544D+03

 The electronic state is 1-A.
 Alpha  occ. eigenvalues --  -20.61506 -20.61437 -20.60490 -20.60481 -15.86506
 Alpha  occ. eigenvalues --  -15.85538 -11.31746 -11.30853 -11.28377 -11.28227
 Alpha  occ. eigenvalues --  -11.27957 -11.27440 -11.27367 -11.27291 -11.27214
 Alpha  occ. eigenvalues --  -11.27159 -11.26460 -11.26341  -1.60530  -1.59565
 Alpha  occ. eigenvalues --   -1.40095  -1.39119  -1.19889  -1.19019  -1.09298
 Alpha  occ. eigenvalues --   -1.08430  -1.05277  -1.04402  -0.96162  -0.95273
 Alpha  occ. eigenvalues --   -0.86682  -0.85810  -0.83004  -0.82094  -0.78089
 Alpha  occ. eigenvalues --   -0.77141  -0.72727  -0.71843  -0.71758  -0.70997
 Alpha  occ. eigenvalues --   -0.70886  -0.70139  -0.65546  -0.65282  -0.64668
 Alpha  occ. eigenvalues --   -0.64393  -0.62650  -0.61726  -0.55757  -0.54930
 Alpha  occ. eigenvalues --   -0.53598  -0.53376  -0.52751  -0.52475  -0.49498
 Alpha  occ. eigenvalues --   -0.49451  -0.48516  -0.48511  -0.45520  -0.44535
 Alpha  occ. eigenvalues --   -0.37838  -0.37018  -0.36868  -0.36002
 Alpha virt. eigenvalues --    0.04433   0.05369   0.10757   0.11628   0.15971
 Alpha virt. eigenvalues --    0.16854   0.19805   0.21959   0.25101   0.27265
 Alpha virt. eigenvalues --    0.28575   0.28797   0.30128   0.31234   0.32453

 Mulliken charges:
               1
     1  C   -0.169612
     2  C   -0.217799
     3  C   -0.173296
     4  C    0.158446
     5  C   -0.169153
     6  C   -0.217542
     7  H    0.228222
     8  H    0.224384
     9  H    0.268942
    10  H    0.278038
    11  H    0.226502
    12  N    0.489683
    13  O   -0.452894
    14  O   -0.471644
    15  C   -0.172000
    16  C   -0.226015
    17  C   -0.171058
    18  C    0.158189
    19  C   -0.171852
    20  C   -0.218582
    21  H    0.224483
    22  H    0.235641
    23  H    0.276785
    24  H    0.274324
    25  H    0.221845
    26  N    0.488084
    27  O   -0.461916
    28  O   -0.460203
 Sum of Mulliken charges =  -0.00000

 Dipole moment (field-independent basis, Debye):
    X=              3.0494    Y=             -4.0962    Z=             -5.1474  Tot=              7.2507
 Quadrupole moment (field-independent basis, Debye-Ang):
   XX=            -93.9125   YY=           -106.2644   ZZ=           -107.9819
   XY=             24.1788   XZ=            -12.1289   YZ=              2.5413

 Normal termination of Gaussian 16 at Thu May  6 11:26:41 2021.
