 Gaussian 16, Revision A.03,
 Gaussian 16:  EM64L-G16RevA.03 25-Dec-2016

 -------------
 #p 6-31g* mp2
 -------------

 ------------------------------------------------------
 Input file generated by CHIRIPA (05-May-2021 14:57:27)
 ------------------------------------------------------
 Symbolic Z-matrix:
 Charge =  0 Multiplicity = 1

                         Standard orientation:
 ---------------------------------------------------------------------
 Center     Atomic      Atomic             Coordinates (Angstroms)
 Number     Number       Type             X           Y           Z
 ---------------------------------------------------------------------
      1          6           0       -6.204793    1.221720   -0.277593
      2          6           0       -6.311898   -0.171671   -0.218334
      3          6           0       -5.167923   -0.967628   -0.107328
      4          6           0       -3.927173   -0.334074   -0.057957
      5          6           0       -3.787780    1.051793   -0.114793
      6          6           0       -4.945296    1.827936   -0.225725
      7          1           0       -7.098720    1.832342   -0.363796
      8          1           0       -7.288734   -0.645201   -0.258402
      9          1           0       -5.222003   -2.048464   -0.059505
     10          1           0       -2.800263    1.495018   -0.072603
     11          1           0       -4.859094    2.909839   -0.271542
     12          7           0       -2.708930   -1.166230    0.059520
     13          8           0       -1.627443   -0.583742    0.101118
     14          8           0       -2.858626   -2.385205    0.107777
     15          6           0        1.836788    1.006540    0.756291
     16          6           0        2.822320    1.926547    0.383687
     17          6           0        4.095288    1.489294    0.005653
     18          6           0        4.349455    0.118654    0.011679
     19          6           0        3.388607   -0.822642    0.377766
     20          6           0        2.122573   -0.362704    0.752148
     21          1           0        0.850609    1.355020    1.048539
     22          1           0        2.603203    2.990515    0.385965
     23          1           0        4.876838    2.179764   -0.287345
     24          1           0        3.636823   -1.876994    0.365600
     25          1           0        1.359143   -1.079476    1.041041
     26          7           0        5.693420   -0.356254   -0.386596
     27          8           0        5.892191   -1.569077   -0.372934
     28          8           0        6.522600    0.493329   -0.704883
 ---------------------------------------------------------------------

 SCF Done:  E(RHF) =  -868.340055524     A.U. after   16 cycles
 E2 =    -0.2598711591D+01 EUMP2 =    -0.87093876711518D+03

 The electronic state is 1-A.
 Alpha  occ. eigenvalues --  -20.61893 -20.61844 -20.60018 -20.60005 -15.86897
 Alpha  occ. eigenvalues --  -15.85058 -11.32013 -11.30238 -11.28591 -11.28517
 Alpha  occ. eigenvalues --  -11.28224 -11.27516 -11.27475 -11.26831 -11.26683
 Alpha  occ. eigenvalues --  -11.26392 -11.25835 -11.25507  -1.60924  -1.59093
 Alpha  occ. eigenvalues --   -1.40489  -1.38652  -1.20156  -1.18367  -1.09592
 Alpha  occ. eigenvalues --   -1.07779  -1.05524  -1.03729  -0.96474  -0.94656
 Alpha  occ. eigenvalues --   -0.86932  -0.85119  -0.83320  -0.81493  -0.78400
 Alpha  occ. eigenvalues --   -0.76578  -0.73142  -0.72220  -0.71281  -0.71259
 Alpha  occ. eigenvalues --   -0.70414  -0.69442  -0.65814  -0.65522  -0.64002
 Alpha  occ. eigenvalues --   -0.63682  -0.62881  -0.61067  -0.56021  -0.54196
 Alpha  occ. eigenvalues --   -0.53860  -0.53613  -0.52086  -0.51795  -0.49893
 Alpha  occ. eigenvalues --   -0.49844  -0.48048  -0.48016  -0.45945  -0.44100
 Alpha  occ. eigenvalues --   -0.38109  -0.37114  -0.36320  -0.35332
 Alpha virt. eigenvalues --    0.04123   0.05926   0.10546   0.12323   0.15668
 Alpha virt. eigenvalues --    0.17486   0.20491   0.22435   0.26282   0.27145
 Alpha virt. eigenvalues --    0.28511   0.29024   0.30615   0.31409   0.33409

 Mulliken charges:
               1
     1  C   -0.169743
     2  C   -0.218292
     3  C   -0.170037
     4  C    0.158412
     5  C   -0.169991
     6  C   -0.218116
     7  H    0.228379
     8  H    0.226285
     9  H    0.277345
    10  H    0.270302
    11  H    0.224794
    12  N    0.491931
    13  O   -0.473556
    14  O   -0.455038
    15  C   -0.170489
    16  C   -0.219685
    17  C   -0.173152
    18  C    0.157953
    19  C   -0.173634
    20  C   -0.217918
    21  H    0.227257
    22  H    0.217000
    23  H    0.271464
    24  H    0.274398
    25  H    0.241540
    26  N    0.488149
    27  O   -0.461627
    28  O   -0.463934
 Sum of Mulliken charges =  -0.00000

 Dipole moment (field-independent basis, Debye):
    X=             -9.6859    Y=              4.4135    Z=              1.0131  Tot=             10.6922
 Quadrupole moment (field-independent basis, Debye-Ang):
   XX=           -111.2524   YY=            -98.7473   ZZ=           -106.3744
   XY=              0.3661   XZ=              7.9158   YZ=             -0.7851

 Normal termination of Gaussian 16 at Fri May  7 08:12:27 2021.
