 Gaussian 16, Revision A.03,
 Gaussian 16:  EM64L-G16RevA.03 25-Dec-2016

 -------------
 #p 6-31g* mp2
 -------------

 ------------------------------------------------------
 Input file generated by CHIRIPA (05-May-2021 14:53:17)
 ------------------------------------------------------
 Symbolic Z-matrix:
 Charge =  0 Multiplicity = 1

                         Standard orientation:
 ---------------------------------------------------------------------
 Center     Atomic      Atomic             Coordinates (Angstroms)
 Number     Number       Type             X           Y           Z
 ---------------------------------------------------------------------
      1          6           0        4.860516    0.579310    0.168836
      2          6           0        6.375816    0.659552   -0.019345
      3          6           0        6.932590    2.056615    0.256358
      4          1           0        4.375755    1.306682   -0.496658
      5          1           0        4.609168    0.879148    1.195635
      6          1           0        6.624353    0.358323   -1.045068
      7          1           0        6.857016   -0.068230    0.646535
      8          1           0        6.713521    2.362647    1.284441
      9          1           0        6.479536    2.791623   -0.416774
     10          1           0        8.017452    2.091355    0.115906
     11          6           0        4.289056   -0.811077   -0.103164
     12          6           0        2.773756   -0.891318    0.085017
     13          6           0        2.216982   -2.288381   -0.190686
     14          1           0        4.540404   -1.110915   -1.129963
     15          1           0        4.773817   -1.538448    0.562330
     16          1           0        2.292556   -0.163537   -0.580863
     17          1           0        2.525219   -0.590089    1.110740
     18          1           0        2.670036   -3.023390    0.482446
     19          1           0        2.436051   -2.594413   -1.218769
     20          1           0        1.132120   -2.323122   -0.050234
     21          6           0       -5.368384    1.861024    0.082330
     22          6           0       -5.662767    0.542926    0.446305
     23          6           0       -4.676405   -0.446270    0.390376
     24          6           0       -3.400582   -0.080631   -0.036093
     25          6           0       -3.076302    1.223908   -0.405298
     26          6           0       -4.078365    2.196716   -0.341562
     27          1           0       -6.140711    2.623091    0.128809
     28          1           0       -6.663738    0.279340    0.775887
     29          1           0       -4.876972   -1.474386    0.666358
     30          1           0       -2.069271    1.456276   -0.729812
     31          1           0       -3.846878    3.219562   -0.624838
     32          7           0       -2.348054   -1.119174   -0.099434
     33          8           0       -1.231833   -0.771390   -0.478555
     34          8           0       -2.659233   -2.261303    0.231240
 ---------------------------------------------------------------------

 SCF Done:  E(RHF) =  -669.536445993     A.U. after   15 cycles
 E2 =    -0.2091022280D+01 EUMP2 =    -0.67162746827355D+03

 The electronic state is 1-A.
 Alpha  occ. eigenvalues --  -20.61026 -20.61005 -15.86033 -11.31330 -11.27888
 Alpha  occ. eigenvalues --  -11.27884 -11.27622 -11.26889 -11.26879 -11.21051
 Alpha  occ. eigenvalues --  -11.20679 -11.20653 -11.20410 -11.20262 -11.19270
 Alpha  occ. eigenvalues --   -1.60069  -1.39625  -1.19494  -1.08905  -1.07555
 Alpha  occ. eigenvalues --   -1.04886  -1.02536  -0.95752  -0.94973  -0.86288
 Alpha  occ. eigenvalues --   -0.85999  -0.82583  -0.78664  -0.77641  -0.77309
 Alpha  occ. eigenvalues --   -0.72254  -0.71377  -0.70603  -0.65150  -0.64889
 Alpha  occ. eigenvalues --   -0.64204  -0.62233  -0.59954  -0.58412  -0.56536
 Alpha  occ. eigenvalues --   -0.55390  -0.54301  -0.53219  -0.52978  -0.51631
 Alpha  occ. eigenvalues --   -0.51419  -0.49014  -0.48995  -0.48935  -0.46922
 Alpha  occ. eigenvalues --   -0.45743  -0.45040  -0.44851  -0.44765  -0.42754
 Alpha  occ. eigenvalues --   -0.37472  -0.36485
 Alpha virt. eigenvalues --    0.04887   0.11170   0.16390   0.21299   0.23641
 Alpha virt. eigenvalues --    0.25363   0.27218   0.27439   0.28082   0.28394
 Alpha virt. eigenvalues --    0.29093   0.30866   0.32224   0.32389   0.32612

 Mulliken charges:
               1
     1  C   -0.297001
     2  C   -0.298821
     3  C   -0.475082
     4  H    0.147276
     5  H    0.147622
     6  H    0.151132
     7  H    0.151290
     8  H    0.154075
     9  H    0.153680
    10  H    0.158536
    11  C   -0.297436
    12  C   -0.296121
    13  C   -0.485350
    14  H    0.147417
    15  H    0.147244
    16  H    0.153087
    17  H    0.147798
    18  H    0.145812
    19  H    0.148585
    20  H    0.190724
    21  C   -0.170489
    22  C   -0.218610
    23  C   -0.170602
    24  C    0.157759
    25  C   -0.170678
    26  C   -0.218565
    27  H    0.226133
    28  H    0.223941
    29  H    0.275961
    30  H    0.275990
    31  H    0.223998
    32  N    0.489392
    33  O   -0.459858
    34  O   -0.458839
 Sum of Mulliken charges =  -0.00000

 Dipole moment (field-independent basis, Debye):
    X=             -4.1437    Y=              3.6402    Z=              0.2089  Tot=              5.5195
 Quadrupole moment (field-independent basis, Debye-Ang):
   XX=            -69.3550   YY=            -94.3397   ZZ=            -94.2226
   XY=            -10.3273   XZ=             -1.9222   YZ=             -1.8936

 Normal termination of Gaussian 16 at Thu May  6 18:58:15 2021.
