 Gaussian 16, Revision A.03,
 Gaussian 16:  EM64L-G16RevA.03 25-Dec-2016

 -------------
 #p 6-31g* mp2
 -------------

 ------------------------------------------------------
 Input file generated by CHIRIPA (05-May-2021 14:55:25)
 ------------------------------------------------------
 Symbolic Z-matrix:
 Charge =  0 Multiplicity = 1

                         Standard orientation:
 ---------------------------------------------------------------------
 Center     Atomic      Atomic             Coordinates (Angstroms)
 Number     Number       Type             X           Y           Z
 ---------------------------------------------------------------------
      1          6           0       -2.036259    2.258778    0.221550
      2          6           0       -2.309321    1.687081   -1.025495
      3          6           0       -2.623445    0.328822   -1.130418
      4          6           0       -2.655708   -0.431700    0.037425
      5          6           0       -2.388432    0.108776    1.294302
      6          6           0       -2.076614    1.469193    1.375434
      7          1           0       -1.793136    3.314744    0.293816
      8          1           0       -2.278716    2.297863   -1.923299
      9          1           0       -2.839062   -0.139462   -2.083117
     10          1           0       -2.426684   -0.525578    2.171542
     11          1           0       -1.864993    1.910487    2.345238
     12          7           0       -2.987036   -1.870770   -0.061059
     13          8           0       -3.008922   -2.519265    0.982785
     14          8           0       -3.218570   -2.322968   -1.180231
     15          6           0        3.506253   -0.464114   -0.277583
     16          6           0        4.795092   -0.981406    0.362172
     17          6           0        5.135560   -2.409348   -0.065447
     18          1           0        2.677813   -1.135180   -0.012435
     19          1           0        3.605219   -0.506647   -1.371106
     20          1           0        4.694243   -0.936613    1.454161
     21          1           0        5.620524   -0.308925    0.095629
     22          1           0        5.263105   -2.466255   -1.151308
     23          1           0        4.331560   -3.097510    0.214943
     24          1           0        6.060500   -2.759143    0.403583
     25          6           0        3.152567    0.962095    0.140224
     26          6           0        1.863726    1.479386   -0.499532
     27          6           0        1.523258    2.907328   -0.071913
     28          1           0        3.053599    1.004626    1.233746
     29          1           0        3.981006    1.633160   -0.124924
     30          1           0        1.038294    0.806904   -0.232988
     31          1           0        1.964575    1.434594   -1.591521
     32          1           0        2.327257    3.595490   -0.352303
     33          1           0        1.395714    2.964234    1.013949
     34          1           0        0.598319    3.257123   -0.540942
 ---------------------------------------------------------------------

 SCF Done:  E(RHF) =  -669.534958760     A.U. after   15 cycles
 E2 =    -0.2092822100D+01 EUMP2 =    -0.67162778086078D+03

 The electronic state is 1-A.
 Alpha  occ. eigenvalues --  -20.60799 -20.60794 -15.85856 -11.31225 -11.27823
 Alpha  occ. eigenvalues --  -11.27812 -11.27538 -11.26812 -11.26802 -11.21936
 Alpha  occ. eigenvalues --  -11.21714 -11.21685 -11.21649 -11.21497 -11.21066
 Alpha  occ. eigenvalues --   -1.59876  -1.39429  -1.19416  -1.08818  -1.08639
 Alpha  occ. eigenvalues --   -1.04817  -1.03782  -0.96270  -0.95626  -0.87280
 Alpha  occ. eigenvalues --   -0.86213  -0.82467  -0.79847  -0.78436  -0.77510
 Alpha  occ. eigenvalues --   -0.72073  -0.71202  -0.70538  -0.65282  -0.65065
 Alpha  occ. eigenvalues --   -0.64818  -0.62164  -0.61186  -0.59696  -0.57881
 Alpha  occ. eigenvalues --   -0.55586  -0.55305  -0.53249  -0.52906  -0.52830
 Alpha  occ. eigenvalues --   -0.52620  -0.50186  -0.48832  -0.48827  -0.48163
 Alpha  occ. eigenvalues --   -0.46855  -0.45984  -0.45889  -0.44834  -0.44042
 Alpha  occ. eigenvalues --   -0.37321  -0.36422
 Alpha virt. eigenvalues --    0.05018   0.11152   0.16471   0.20714   0.22768
 Alpha virt. eigenvalues --    0.24241   0.26327   0.26677   0.26999   0.27503
 Alpha virt. eigenvalues --    0.28719   0.30454   0.31086   0.31589   0.32120

 Mulliken charges:
               1
     1  C   -0.165744
     2  C   -0.218846
     3  C   -0.170426
     4  C    0.157824
     5  C   -0.171616
     6  C   -0.220305
     7  H    0.227265
     8  H    0.223665
     9  H    0.275958
    10  H    0.275724
    11  H    0.223712
    12  N    0.488131
    13  O   -0.460607
    14  O   -0.460236
    15  C   -0.298978
    16  C   -0.299771
    17  C   -0.476152
    18  H    0.152279
    19  H    0.149998
    20  H    0.151665
    21  H    0.151320
    22  H    0.155482
    23  H    0.157545
    24  H    0.160418
    25  C   -0.298428
    26  C   -0.301419
    27  C   -0.473489
    28  H    0.148446
    29  H    0.149337
    30  H    0.158387
    31  H    0.151382
    32  H    0.156349
    33  H    0.151041
    34  H    0.150085
 Sum of Mulliken charges =  -0.00000

 Dipole moment (field-independent basis, Debye):
    X=              1.1594    Y=              4.9959    Z=              0.3410  Tot=              5.1400
 Quadrupole moment (field-independent basis, Debye-Ang):
   XX=           -101.5575   YY=           -100.9189   ZZ=            -89.2540
   XY=            -13.8319   XZ=             -0.7020   YZ=             -0.9526

 Normal termination of Gaussian 16 at Thu May  6 09:33:40 2021.
