 Gaussian 16, Revision A.03,
 Gaussian 16:  EM64L-G16RevA.03 25-Dec-2016

 -------------
 #p 6-31g* mp2
 -------------

 ------------------------------------------------------
 Input file generated by CHIRIPA (05-May-2021 14:55:19)
 ------------------------------------------------------
 Symbolic Z-matrix:
 Charge =  0 Multiplicity = 1

                         Standard orientation:
 ---------------------------------------------------------------------
 Center     Atomic      Atomic             Coordinates (Angstroms)
 Number     Number       Type             X           Y           Z
 ---------------------------------------------------------------------
      1          6           0       -5.313445   -0.675308    0.009544
      2          6           0       -4.737902   -0.096418   -1.126307
      3          6           0       -3.382744    0.247001   -1.138965
      4          6           0       -2.629212   -0.003615    0.006753
      5          6           0       -3.173657   -0.579033    1.153821
      6          6           0       -4.530866   -0.914347    1.143983
      7          1           0       -6.366961   -0.938936    0.010639
      8          1           0       -5.343243    0.090374   -2.008756
      9          1           0       -2.911604    0.696345   -2.004721
     10          1           0       -2.544718   -0.753097    2.018434
     11          1           0       -4.975160   -1.363796    2.027523
     12          7           0       -1.193482    0.355657    0.005261
     13          8           0       -0.551152    0.124615    1.027351
     14          8           0       -0.737672    0.861493   -1.017972
     15          6           0        4.169192   -0.473698    0.150617
     16          6           0        3.825908   -1.809803   -0.508901
     17          6           0        4.837275   -2.908400   -0.180244
     18          1           0        5.171438   -0.159746   -0.171691
     19          1           0        4.220223   -0.612589    1.239424
     20          1           0        3.774179   -1.668132   -1.596040
     21          1           0        2.824285   -2.120516   -0.185137
     22          1           0        4.883514   -3.078751    0.900239
     23          1           0        5.838806   -2.623797   -0.518681
     24          1           0        4.572618   -3.854879   -0.661900
     25          6           0        3.167352    0.634537   -0.168535
     26          6           0        3.510636    1.970642    0.490983
     27          6           0        2.499269    3.069239    0.162326
     28          1           0        3.116322    0.773429   -1.257342
     29          1           0        2.165106    0.320585    0.153772
     30          1           0        4.512259    2.281355    0.167218
     31          1           0        3.562365    1.828971    1.578122
     32          1           0        1.497739    2.784635    0.500763
     33          1           0        2.453031    3.239590   -0.918157
     34          1           0        2.763927    4.015719    0.643982
 ---------------------------------------------------------------------

 SCF Done:  E(RHF) =  -669.537145541     A.U. after   15 cycles
 E2 =    -0.2092253126D+01 EUMP2 =    -0.67162939866678D+03

 The electronic state is 1-A.
 Alpha  occ. eigenvalues --  -20.61205 -20.61199 -15.86184 -11.31434 -11.27980
 Alpha  occ. eigenvalues --  -11.27974 -11.27702 -11.26965 -11.26955 -11.20406
 Alpha  occ. eigenvalues --  -11.20153 -11.19947 -11.19941 -11.19318 -11.19311
 Alpha  occ. eigenvalues --   -1.60227  -1.39785  -1.19587  -1.09007  -1.06862
 Alpha  occ. eigenvalues --   -1.04969  -1.02080  -0.95859  -0.94519  -0.86373
 Alpha  occ. eigenvalues --   -0.85540  -0.82696  -0.78189  -0.77762  -0.76583
 Alpha  occ. eigenvalues --   -0.72382  -0.71526  -0.70694  -0.65241  -0.64972
 Alpha  occ. eigenvalues --   -0.63497  -0.62315  -0.59488  -0.57935  -0.56122
 Alpha  occ. eigenvalues --   -0.55477  -0.53802  -0.53303  -0.53058  -0.51306
 Alpha  occ. eigenvalues --   -0.50930  -0.49271  -0.49151  -0.48425  -0.46477
 Alpha  occ. eigenvalues --   -0.45224  -0.45215  -0.44158  -0.43850  -0.42287
 Alpha  occ. eigenvalues --   -0.37561  -0.36564
 Alpha virt. eigenvalues --    0.04744   0.11093   0.16266   0.21232   0.24350
 Alpha virt. eigenvalues --    0.25762   0.27163   0.28044   0.28275   0.29127
 Alpha virt. eigenvalues --    0.29412   0.30836   0.32352   0.32773   0.32934

 Mulliken charges:
               1
     1  C   -0.170222
     2  C   -0.218640
     3  C   -0.170516
     4  C    0.159396
     5  C   -0.170539
     6  C   -0.218602
     7  H    0.226536
     8  H    0.224374
     9  H    0.276335
    10  H    0.275968
    11  H    0.224310
    12  N    0.488321
    13  O   -0.460261
    14  O   -0.456382
    15  C   -0.296915
    16  C   -0.298480
    17  C   -0.474640
    18  H    0.143090
    19  H    0.146218
    20  H    0.149754
    21  H    0.154163
    22  H    0.153210
    23  H    0.152754
    24  H    0.155731
    25  C   -0.309913
    26  C   -0.297212
    27  C   -0.475840
    28  H    0.145251
    29  H    0.181391
    30  H    0.143170
    31  H    0.147659
    32  H    0.168811
    33  H    0.152511
    34  H    0.149206
 Sum of Mulliken charges =  -0.00000

 Dipole moment (field-independent basis, Debye):
    X=             -5.6608    Y=             -1.3002    Z=             -0.0086  Tot=              5.8082
 Quadrupole moment (field-independent basis, Debye-Ang):
   XX=            -70.6424   YY=            -96.7348   ZZ=            -89.8448
   XY=              3.9071   XZ=             -0.0923   YZ=             -2.1422

 Normal termination of Gaussian 16 at Thu May  6 09:12:45 2021.
