 Gaussian 16, Revision A.03,
 Gaussian 16:  EM64L-G16RevA.03 25-Dec-2016

 -------------
 #p 6-31g* mp2
 -------------

 ------------------------------------------------------
 Input file generated by CHIRIPA (05-May-2021 14:57:21)
 ------------------------------------------------------
 Symbolic Z-matrix:
 Charge =  0 Multiplicity = 1

                         Standard orientation:
 ---------------------------------------------------------------------
 Center     Atomic      Atomic             Coordinates (Angstroms)
 Number     Number       Type             X           Y           Z
 ---------------------------------------------------------------------
      1          6           0        1.513364    0.744324    0.328890
      2          6           0        2.417981    1.057590    1.348721
      3          6           0        3.752594    0.649958    1.263918
      4          6           0        4.150247   -0.072681    0.140105
      5          6           0        3.272819   -0.400252   -0.892419
      6          6           0        1.942913    0.017685   -0.786459
      7          1           0        0.478433    1.064985    0.402985
      8          1           0        2.087191    1.621785    2.216078
      9          1           0        4.473974    0.878839    2.038929
     10          1           0        3.632112   -0.963966   -1.744800
     11          1           0        1.242583   -0.227031   -1.579993
     12          7           0        5.560650   -0.509677    0.039129
     13          8           0        5.886038   -1.145228   -0.961288
     14          8           0        6.314031   -0.208369    0.962313
     15          6           0       -2.126468    1.358664   -1.302562
     16          6           0       -2.093566   -0.038294   -1.365385
     17          6           0       -3.080864   -0.800853   -0.734280
     18          6           0       -4.090974   -0.130628   -0.045974
     19          6           0       -4.151136    1.259754    0.034700
     20          6           0       -3.153337    2.002095   -0.603951
     21          1           0       -1.355433    1.943185   -1.795751
     22          1           0       -1.297287   -0.540689   -1.907221
     23          1           0       -3.079552   -1.883604   -0.766961
     24          1           0       -4.957561    1.732147    0.582369
     25          1           0       -3.181422    3.086858   -0.553489
     26          7           0       -5.141740   -0.927214    0.626144
     27          8           0       -6.020965   -0.312752    1.226174
     28          8           0       -5.066209   -2.150956    0.540191
 ---------------------------------------------------------------------

 SCF Done:  E(RHF) =  -868.336755907     A.U. after   16 cycles
 E2 =    -0.2600934443D+01 EUMP2 =    -0.87093769035056D+03

 The electronic state is 1-A.
 Alpha  occ. eigenvalues --  -20.61552 -20.61547 -20.61174 -20.61167 -15.86614
 Alpha  occ. eigenvalues --  -15.86234 -11.32216 -11.31697 -11.28817 -11.28778
 Alpha  occ. eigenvalues --  -11.28658 -11.28343 -11.28268 -11.28025 -11.27983
 Alpha  occ. eigenvalues --  -11.27861 -11.27445 -11.27272  -1.60623  -1.60248
 Alpha  occ. eigenvalues --   -1.40169  -1.39798  -1.20431  -1.19897  -1.09807
 Alpha  occ. eigenvalues --   -1.09269  -1.05856  -1.05329  -0.96585  -0.96079
 Alpha  occ. eigenvalues --   -0.87270  -0.86719  -0.83399  -0.82921  -0.78396
 Alpha  occ. eigenvalues --   -0.77953  -0.72827  -0.72449  -0.71950  -0.71577
 Alpha  occ. eigenvalues --   -0.71573  -0.70958  -0.66097  -0.65988  -0.65546
 Alpha  occ. eigenvalues --   -0.65278  -0.63200  -0.62646  -0.56413  -0.55839
 Alpha  occ. eigenvalues --   -0.54128  -0.53982  -0.53635  -0.53395  -0.49606
 Alpha  occ. eigenvalues --   -0.49566  -0.49217  -0.49197  -0.45521  -0.45182
 Alpha  occ. eigenvalues --   -0.38457  -0.37893  -0.37441  -0.36936
 Alpha virt. eigenvalues --    0.04099   0.04610   0.10062   0.10704   0.15451
 Alpha virt. eigenvalues --    0.16069   0.18208   0.21985   0.24414   0.26777
 Alpha virt. eigenvalues --    0.27726   0.29103   0.29151   0.30996   0.31685

 Mulliken charges:
               1
     1  C   -0.175888
     2  C   -0.219113
     3  C   -0.169430
     4  C    0.158661
     5  C   -0.170120
     6  C   -0.222363
     7  H    0.229974
     8  H    0.225555
     9  H    0.277521
    10  H    0.276477
    11  H    0.213582
    12  N    0.488035
    13  O   -0.459762
    14  O   -0.458743
    15  C   -0.180866
    16  C   -0.223130
    17  C   -0.169094
    18  C    0.159603
    19  C   -0.169863
    20  C   -0.219507
    21  H    0.227268
    22  H    0.222284
    23  H    0.279736
    24  H    0.279176
    25  H    0.227120
    26  N    0.487827
    27  O   -0.457612
    28  O   -0.457328
 Sum of Mulliken charges =  -0.00000

 Dipole moment (field-independent basis, Debye):
    X=             -1.4905    Y=              4.3303    Z=             -1.8639  Tot=              4.9445
 Quadrupole moment (field-independent basis, Debye-Ang):
   XX=           -174.5315   YY=           -101.9159   ZZ=           -100.9967
   XY=             -6.8664   XZ=             10.6739   YZ=              4.1715

 Normal termination of Gaussian 16 at Wed May  5 19:16:26 2021.
