 Gaussian 16, Revision A.03,
 Gaussian 16:  EM64L-G16RevA.03 25-Dec-2016

 -------------
 #p 6-31g* mp2
 -------------

 ------------------------------------------------------
 Input file generated by CHIRIPA (05-May-2021 14:51:08)
 ------------------------------------------------------
 Symbolic Z-matrix:
 Charge =  0 Multiplicity = 1

                         Standard orientation:
 ---------------------------------------------------------------------
 Center     Atomic      Atomic             Coordinates (Angstroms)
 Number     Number       Type             X           Y           Z
 ---------------------------------------------------------------------
      1          6           0       -3.010972   -0.219754   -0.204699
      2          6           0       -2.102391   -1.130278    0.621988
      3          6           0       -0.666137   -1.164868    0.098756
      4          1           0       -3.007863   -0.559967   -1.249299
      5          1           0       -2.595643    0.797543   -0.206054
      6          1           0       -2.520052   -2.145253    0.622929
      7          1           0       -2.107814   -0.787973    1.664780
      8          1           0       -0.226413   -0.162361    0.113775
      9          1           0       -0.640993   -1.527353   -0.933995
     10          1           0       -0.033952   -1.821728    0.704344
     11          6           0       -4.450025   -0.174705    0.306014
     12          6           0       -5.358606    0.735819   -0.520673
     13          6           0       -6.794860    0.770409    0.002560
     14          1           0       -4.865354   -1.192002    0.307369
     15          1           0       -4.453134    0.165509    1.350615
     16          1           0       -5.353183    0.393515   -1.563464
     17          1           0       -4.940945    1.750794   -0.521614
     18          1           0       -6.820004    1.132894    1.035310
     19          1           0       -7.234584   -0.232097   -0.012460
     20          1           0       -7.427044    1.427269   -0.603029
     21          6           0        4.027470   -0.484151    0.125301
     22          6           0        3.227166   -1.658438   -0.439099
     23          6           0        3.833775   -3.014857   -0.078617
     24          1           0        5.058715   -0.537543   -0.249702
     25          1           0        4.086859   -0.581503    1.218182
     26          1           0        3.168127   -1.558159   -1.530463
     27          1           0        2.197656   -1.602136   -0.062861
     28          1           0        3.877800   -3.140623    1.008051
     29          1           0        4.853785   -3.096395   -0.467890
     30          1           0        3.245851   -3.840217   -0.492122
     31          6           0        3.433527    0.878609   -0.226616
     32          6           0        4.233831    2.052897    0.337784
     33          6           0        3.627222    3.409316   -0.022699
     34          1           0        3.374137    0.975962   -1.319497
     35          1           0        2.402281    0.932002    0.148387
     36          1           0        5.263341    1.996595   -0.038454
     37          1           0        4.292871    1.952618    1.429147
     38          1           0        2.607213    3.490853    0.366575
     39          1           0        3.583197    3.535081   -1.109366
     40          1           0        4.215145    4.234676    0.390807
 ---------------------------------------------------------------------

 SCF Done:  E(RHF) =  -470.732816421     A.U. after   11 cycles
 E2 =    -0.1583111476D+01 EUMP2 =    -0.47231592789683D+03

 The electronic state is 1-A.
 Alpha  occ. eigenvalues --  -11.21640 -11.21618 -11.21566 -11.21433 -11.21405
 Alpha  occ. eigenvalues --  -11.21373 -11.21333 -11.21266 -11.21137 -11.21084
 Alpha  occ. eigenvalues --  -11.21055 -11.20985  -1.08463  -1.08351  -1.03575
 Alpha  occ. eigenvalues --   -1.03448  -0.96027  -0.95914  -0.87064  -0.86918
 Alpha  occ. eigenvalues --   -0.79706  -0.79462  -0.78293  -0.78130  -0.65100
 Alpha  occ. eigenvalues --   -0.64987  -0.60963  -0.60892  -0.59445  -0.59224
 Alpha  occ. eigenvalues --   -0.57651  -0.57502  -0.55327  -0.55189  -0.52808
 Alpha  occ. eigenvalues --   -0.52593  -0.52438  -0.52325  -0.49971  -0.49845
 Alpha  occ. eigenvalues --   -0.47954  -0.47828  -0.46677  -0.46549  -0.45899
 Alpha  occ. eigenvalues --   -0.45750  -0.45669  -0.45542  -0.43760  -0.43672
 Alpha virt. eigenvalues --    0.21736   0.23021   0.23973   0.24365   0.25455
 Alpha virt. eigenvalues --    0.26688   0.27029   0.27445   0.27898   0.29334
 Alpha virt. eigenvalues --    0.29954   0.31332   0.31761   0.31887   0.32070

 Mulliken charges:
               1
     1  C   -0.298700
     2  C   -0.300097
     3  C   -0.479671
     4  H    0.149848
     5  H    0.149572
     6  H    0.152182
     7  H    0.151820
     8  H    0.157662
     9  H    0.156940
    10  H    0.160521
    11  C   -0.298346
    12  C   -0.299637
    13  C   -0.475719
    14  H    0.149597
    15  H    0.149632
    16  H    0.152012
    17  H    0.151995
    18  H    0.155184
    19  H    0.155205
    20  H    0.160341
    21  C   -0.297317
    22  C   -0.311091
    23  C   -0.475265
    24  H    0.149092
    25  H    0.148656
    26  H    0.150791
    27  H    0.167206
    28  H    0.154227
    29  H    0.154746
    30  H    0.159668
    31  C   -0.300995
    32  C   -0.299525
    33  C   -0.475550
    34  H    0.149452
    35  H    0.151922
    36  H    0.151999
    37  H    0.151721
    38  H    0.154569
    39  H    0.155205
    40  H    0.160149
 Sum of Mulliken charges =  -0.00000

 Dipole moment (field-independent basis, Debye):
    X=             -0.0611    Y=             -0.0043    Z=             -0.0066  Tot=              0.0616
 Quadrupole moment (field-independent basis, Debye-Ang):
   XX=            -85.9341   YY=            -85.3790   ZZ=            -83.7914
   XY=              0.7551   XZ=             -0.1035   YZ=              0.6230

 Normal termination of Gaussian 16 at Thu May  6 05:17:17 2021.
