 Gaussian 16, Revision A.03,
 Gaussian 16:  EM64L-G16RevA.03 25-Dec-2016

 -------------
 #p 6-31g* mp2
 -------------

 ------------------------------------------------------
 Input file generated by CHIRIPA (05-May-2021 14:53:12)
 ------------------------------------------------------
 Symbolic Z-matrix:
 Charge =  0 Multiplicity = 1

                         Standard orientation:
 ---------------------------------------------------------------------
 Center     Atomic      Atomic             Coordinates (Angstroms)
 Number     Number       Type             X           Y           Z
 ---------------------------------------------------------------------
      1          6           0       -2.487910    0.655685   -0.133363
      2          6           0       -2.912359    2.095239   -0.425785
      3          6           0       -1.836897    3.116021   -0.052717
      4          1           0       -2.245259    0.561307    0.933951
      5          1           0       -1.563683    0.434088   -0.684812
      6          1           0       -3.836267    2.313610    0.124964
      7          1           0       -3.154211    2.186154   -1.492489
      8          1           0       -0.915078    2.926270   -0.612043
      9          1           0       -1.601009    3.054451    1.014600
     10          1           0       -2.161224    4.138488   -0.270052
     11          6           0       -3.552546   -0.376370   -0.500978
     12          6           0       -3.128096   -1.815924   -0.208556
     13          6           0       -4.203558   -2.836707   -0.581623
     14          1           0       -4.476772   -0.154773    0.050471
     15          1           0       -3.795196   -0.281993   -1.568291
     16          1           0       -2.886244   -1.906839    0.858149
     17          1           0       -2.204188   -2.034295   -0.759305
     18          1           0       -4.439446   -2.775136   -1.648941
     19          1           0       -5.125377   -2.646955   -0.022298
     20          1           0       -3.879231   -3.859173   -0.364289
     21          6           0        4.013444   -0.379189   -1.638377
     22          6           0        3.165288    0.732581   -1.604908
     23          6           0        2.245033    0.892503   -0.564665
     24          6           0        2.199661   -0.082997    0.430137
     25          6           0        3.031354   -1.201722    0.424696
     26          6           0        3.943893   -1.341096   -0.625254
     27          1           0        4.725322   -0.495439   -2.450233
     28          1           0        3.217090    1.481195   -2.390363
     29          1           0        1.576644    1.743454   -0.514132
     30          1           0        2.956401   -1.931286    1.221902
     31          1           0        4.601348   -2.205532   -0.648666
     32          7           0        1.229513    0.075429    1.536534
     33          8           0        1.209223   -0.798080    2.400945
     34          8           0        0.507771    1.070112    1.518367
 ---------------------------------------------------------------------

 SCF Done:  E(RHF) =  -669.535471896     A.U. after   15 cycles
 E2 =    -0.2093216294D+01 EUMP2 =    -0.67162868818986D+03

 The electronic state is 1-A.
 Alpha  occ. eigenvalues --  -20.60922 -20.60895 -15.85925 -11.31272 -11.27830
 Alpha  occ. eigenvalues --  -11.27826 -11.27571 -11.26844 -11.26834 -11.20940
 Alpha  occ. eigenvalues --  -11.20776 -11.20614 -11.20563 -11.20289 -11.20152
 Alpha  occ. eigenvalues --   -1.59968  -1.39525  -1.19437  -1.08840  -1.07603
 Alpha  occ. eigenvalues --   -1.04835  -1.02768  -0.95684  -0.95205  -0.86242
 Alpha  occ. eigenvalues --   -0.86217  -0.82526  -0.78857  -0.77663  -0.77281
 Alpha  occ. eigenvalues --   -0.72161  -0.71265  -0.70547  -0.65094  -0.64847
 Alpha  occ. eigenvalues --   -0.64241  -0.62188  -0.60178  -0.58571  -0.56809
 Alpha  occ. eigenvalues --   -0.55342  -0.54497  -0.53165  -0.52930  -0.51951
 Alpha  occ. eigenvalues --   -0.51622  -0.49151  -0.48951  -0.48923  -0.47149
 Alpha  occ. eigenvalues --   -0.45877  -0.45419  -0.44839  -0.44322  -0.43000
 Alpha  occ. eigenvalues --   -0.37413  -0.36435
 Alpha virt. eigenvalues --    0.04937   0.11169   0.16419   0.20739   0.23476
 Alpha virt. eigenvalues --    0.24300   0.26290   0.27599   0.27685   0.28412
 Alpha virt. eigenvalues --    0.29397   0.30713   0.31480   0.32421   0.32662

 Mulliken charges:
               1
     1  C   -0.297534
     2  C   -0.300594
     3  C   -0.471982
     4  H    0.170621
     5  H    0.139243
     6  H    0.150305
     7  H    0.144747
     8  H    0.143073
     9  H    0.173799
    10  H    0.152048
    11  C   -0.298147
    12  C   -0.299585
    13  C   -0.475029
    14  H    0.148207
    15  H    0.144285
    16  H    0.158226
    17  H    0.147249
    18  H    0.152444
    19  H    0.154988
    20  H    0.158345
    21  C   -0.170405
    22  C   -0.220107
    23  C   -0.174226
    24  C    0.156759
    25  C   -0.170234
    26  C   -0.218740
    27  H    0.225926
    28  H    0.224084
    29  H    0.282084
    30  H    0.275807
    31  H    0.223752
    32  N    0.491607
    33  O   -0.459894
    34  O   -0.461121
 Sum of Mulliken charges =  -0.00000

 Dipole moment (field-independent basis, Debye):
    X=              3.5970    Y=             -0.5625    Z=             -3.6042  Tot=              5.1229
 Quadrupole moment (field-independent basis, Debye-Ang):
   XX=            -80.6438   YY=            -92.5105   ZZ=            -97.0896
   XY=             -3.8528   XZ=             -7.8321   YZ=             -1.7380

 Normal termination of Gaussian 16 at Wed May  5 15:28:35 2021.
