 Gaussian 16, Revision A.03,
 Gaussian 16:  EM64L-G16RevA.03 25-Dec-2016

 -------------
 #p 6-31g* mp2
 -------------

 ------------------------------------------------------
 Input file generated by CHIRIPA (05-May-2021 14:57:24)
 ------------------------------------------------------
 Symbolic Z-matrix:
 Charge =  0 Multiplicity = 1

                         Standard orientation:
 ---------------------------------------------------------------------
 Center     Atomic      Atomic             Coordinates (Angstroms)
 Number     Number       Type             X           Y           Z
 ---------------------------------------------------------------------
      1          6           0       -2.160563    2.366028    0.687910
      2          6           0       -2.051252    1.841544   -0.604177
      3          6           0       -2.576328    0.581418   -0.905714
      4          6           0       -3.207159   -0.130184    0.113582
      5          6           0       -3.331902    0.365273    1.410599
      6          6           0       -2.799413    1.627521    1.689408
      7          1           0       -1.749792    3.345748    0.913324
      8          1           0       -1.555638    2.412841   -1.383940
      9          1           0       -2.505675    0.151469   -1.897465
     10          1           0       -3.831482   -0.227800    2.166972
     11          1           0       -2.885770    2.032335    2.693755
     12          7           0       -3.766957   -1.465346   -0.193612
     13          8           0       -4.318054   -2.072363    0.722063
     14          8           0       -3.644030   -1.879547   -1.344248
     15          6           0        5.203836   -1.050727    0.874541
     16          6           0        4.102273   -1.876143    0.626006
     17          6           0        2.939651   -1.354565    0.050841
     18          6           0        2.912947    0.003025   -0.264635
     19          6           0        3.994015    0.851068   -0.029254
     20          6           0        5.146293    0.307848    0.546696
     21          1           0        6.102970   -1.464307    1.321649
     22          1           0        4.144129   -2.931601    0.879582
     23          1           0        2.072347   -1.970933   -0.152369
     24          1           0        3.922444    1.899294   -0.292913
     25          1           0        6.000260    0.951251    0.738580
     26          7           0        1.687606    0.566652   -0.873951
     27          8           0        1.689280    1.765988   -1.142699
     28          8           0        0.748714   -0.201588   -1.071248
 ---------------------------------------------------------------------

 SCF Done:  E(RHF) =  -868.339700213     A.U. after   16 cycles
 E2 =    -0.2600176429D+01 EUMP2 =    -0.87093987664205D+03

 The electronic state is 1-A.
 Alpha  occ. eigenvalues --  -20.61459 -20.61407 -20.59727 -20.59706 -15.86438
 Alpha  occ. eigenvalues --  -15.84759 -11.31584 -11.29819 -11.28150 -11.28087
 Alpha  occ. eigenvalues --  -11.27830 -11.27108 -11.27061 -11.26459 -11.26240
 Alpha  occ. eigenvalues --  -11.26082 -11.25472 -11.25133  -1.60489  -1.58799
 Alpha  occ. eigenvalues --   -1.40049  -1.38360  -1.19736  -1.17973  -1.09177
 Alpha  occ. eigenvalues --   -1.07442  -1.05101  -1.03312  -0.96050  -0.94323
 Alpha  occ. eigenvalues --   -0.86511  -0.84746  -0.82890  -0.81155  -0.77958
 Alpha  occ. eigenvalues --   -0.76227  -0.72693  -0.71785  -0.70993  -0.70840
 Alpha  occ. eigenvalues --   -0.70112  -0.69126  -0.65392  -0.65103  -0.63632
 Alpha  occ. eigenvalues --   -0.63327  -0.62447  -0.60676  -0.55618  -0.53892
 Alpha  occ. eigenvalues --   -0.53450  -0.53189  -0.51746  -0.51418  -0.49446
 Alpha  occ. eigenvalues --   -0.49373  -0.47757  -0.47719  -0.45496  -0.43832
 Alpha  occ. eigenvalues --   -0.37710  -0.36695  -0.35986  -0.34786
 Alpha virt. eigenvalues --    0.04547   0.06295   0.10962   0.12760   0.16093
 Alpha virt. eigenvalues --    0.17843   0.21135   0.22788   0.27064   0.28008
 Alpha virt. eigenvalues --    0.28798   0.29580   0.30717   0.32197   0.32338

 Mulliken charges:
               1
     1  C   -0.175244
     2  C   -0.208118
     3  C   -0.153620
     4  C    0.153633
     5  C   -0.174891
     6  C   -0.220573
     7  H    0.221745
     8  H    0.232716
     9  H    0.276077
    10  H    0.269297
    11  H    0.216260
    12  N    0.488139
    13  O   -0.467002
    14  O   -0.461415
    15  C   -0.170073
    16  C   -0.218750
    17  C   -0.170479
    18  C    0.158060
    19  C   -0.171117
    20  C   -0.218729
    21  H    0.227145
    22  H    0.226220
    23  H    0.279207
    24  H    0.274005
    25  H    0.224001
    26  N    0.490265
    27  O   -0.468722
    28  O   -0.458037
 Sum of Mulliken charges =  -0.00000

 Dipole moment (field-independent basis, Debye):
    X=              6.7243    Y=              2.6706    Z=              2.9550  Tot=              7.8154
 Quadrupole moment (field-independent basis, Debye-Ang):
   XX=            -93.0812   YY=           -102.9038   ZZ=           -102.4120
   XY=            -19.4054   XZ=              1.2350   YZ=             -0.0569

 Normal termination of Gaussian 16 at Wed May  5 21:05:50 2021.
