 Gaussian 16, Revision A.03,
 Gaussian 16:  EM64L-G16RevA.03 25-Dec-2016

 -------------
 #p 6-31g* mp2
 -------------

 ------------------------------------------------------
 Input file generated by CHIRIPA (05-May-2021 14:51:10)
 ------------------------------------------------------
 Symbolic Z-matrix:
 Charge =  0 Multiplicity = 1

                         Standard orientation:
 ---------------------------------------------------------------------
 Center     Atomic      Atomic             Coordinates (Angstroms)
 Number     Number       Type             X           Y           Z
 ---------------------------------------------------------------------
      1          6           0        3.339065   -0.111932   -0.651201
      2          6           0        3.632985   -1.432444    0.061431
      3          6           0        4.055549   -2.542495   -0.901389
      4          1           0        2.548547   -0.273077   -1.396894
      5          1           0        4.233032    0.203826   -1.206642
      6          1           0        2.739176   -1.744912    0.616484
      7          1           0        4.422762   -1.268095    0.805647
      8          1           0        4.960762   -2.255827   -1.446378
      9          1           0        3.267610   -2.735354   -1.636616
     10          1           0        4.260755   -3.477526   -0.370854
     11          6           0        2.915367    1.007512    0.298037
     12          6           0        2.621447    2.328024   -0.414595
     13          6           0        2.198884    3.438075    0.548225
     14          1           0        2.021401    0.691754    0.853478
     15          1           0        3.705886    1.168657    1.043730
     16          1           0        1.831671    2.163675   -1.158811
     17          1           0        3.515257    2.640492   -0.969648
     18          1           0        2.986823    3.630934    1.283452
     19          1           0        1.293671    3.151407    1.093213
     20          1           0        1.993678    4.373106    0.017690
     21          6           0       -2.369617   -0.367701    0.231910
     22          6           0       -1.690517   -1.520214    0.972531
     23          6           0       -0.175001   -1.345604    1.075083
     24          1           0       -1.939744   -0.283807   -0.775620
     25          1           0       -2.142341    0.575254    0.748221
     26          1           0       -1.920147   -2.460875    0.455768
     27          1           0       -2.122190   -1.601497    1.978347
     28          1           0        0.071121   -0.422449    1.609694
     29          1           0        0.274312   -1.286710    0.078464
     30          1           0        0.290172   -2.180665    1.608138
     31          6           0       -3.884816   -0.527880    0.121255
     32          6           0       -4.563916    0.624634   -0.619367
     33          6           0       -6.079432    0.450025   -0.721919
     34          1           0       -4.112092   -1.470834   -0.395057
     35          1           0       -4.314688   -0.611774    1.128784
     36          1           0       -4.132242    0.705916   -1.625183
     37          1           0       -4.334285    1.565296   -0.102604
     38          1           0       -6.528746    0.391130    0.274700
     39          1           0       -6.325554   -0.473131   -1.256529
     40          1           0       -6.544606    1.285085   -1.254974
 ---------------------------------------------------------------------

 SCF Done:  E(RHF) =  -470.732154220     A.U. after   11 cycles
 E2 =    -0.1584234850D+01 EUMP2 =    -0.47231638906965D+03

 The electronic state is 1-A.
 Alpha  occ. eigenvalues --  -11.21696 -11.21649 -11.21513 -11.21487 -11.21425
 Alpha  occ. eigenvalues --  -11.21420 -11.21284 -11.21212 -11.21182 -11.21107
 Alpha  occ. eigenvalues --  -11.21027 -11.20990  -1.08517  -1.08315  -1.03622
 Alpha  occ. eigenvalues --   -1.03431  -0.96089  -0.95883  -0.87113  -0.86906
 Alpha  occ. eigenvalues --   -0.79723  -0.79492  -0.78349  -0.78089  -0.65151
 Alpha  occ. eigenvalues --   -0.64969  -0.61104  -0.60777  -0.59456  -0.59240
 Alpha  occ. eigenvalues --   -0.57732  -0.57469  -0.55378  -0.55184  -0.52815
 Alpha  occ. eigenvalues --   -0.52613  -0.52491  -0.52280  -0.50149  -0.49717
 Alpha  occ. eigenvalues --   -0.48063  -0.47808  -0.46768  -0.46452  -0.46019
 Alpha  occ. eigenvalues --   -0.45789  -0.45647  -0.45319  -0.43828  -0.43673
 Alpha virt. eigenvalues --    0.21014   0.22980   0.23816   0.24662   0.25521
 Alpha virt. eigenvalues --    0.26329   0.27145   0.27669   0.27922   0.29747
 Alpha virt. eigenvalues --    0.30024   0.31002   0.31806   0.31973   0.32316

 Mulliken charges:
               1
     1  C   -0.297801
     2  C   -0.307591
     3  C   -0.475167
     4  H    0.147908
     5  H    0.149252
     6  H    0.162345
     7  H    0.151081
     8  H    0.154806
     9  H    0.154078
    10  H    0.159658
    11  C   -0.305980
    12  C   -0.299037
    13  C   -0.475357
    14  H    0.159152
    15  H    0.148585
    16  H    0.151464
    17  H    0.151458
    18  H    0.155050
    19  H    0.154042
    20  H    0.160013
    21  C   -0.298518
    22  C   -0.300506
    23  C   -0.481007
    24  H    0.149467
    25  H    0.149269
    26  H    0.152380
    27  H    0.152376
    28  H    0.157919
    29  H    0.158484
    30  H    0.161283
    31  C   -0.298345
    32  C   -0.299712
    33  C   -0.475763
    34  H    0.149734
    35  H    0.149896
    36  H    0.151993
    37  H    0.152093
    38  H    0.155278
    39  H    0.155256
    40  H    0.160464
 Sum of Mulliken charges =  -0.00000

 Dipole moment (field-independent basis, Debye):
    X=             -0.0811    Y=             -0.0313    Z=              0.0418  Tot=              0.0965
 Quadrupole moment (field-independent basis, Debye-Ang):
   XX=            -85.3833   YY=            -85.3781   ZZ=            -84.3338
   XY=              0.5182   XZ=              0.0956   YZ=             -0.0854

 Normal termination of Gaussian 16 at Thu May  6 05:24:02 2021.
