 Gaussian 16, Revision A.03,
 Gaussian 16:  EM64L-G16RevA.03 25-Dec-2016

 -------------
 #p 6-31g* mp2
 -------------

 ------------------------------------------------------
 Input file generated by CHIRIPA (05-May-2021 14:53:12)
 ------------------------------------------------------
 Symbolic Z-matrix:
 Charge =  0 Multiplicity = 1

                         Standard orientation:
 ---------------------------------------------------------------------
 Center     Atomic      Atomic             Coordinates (Angstroms)
 Number     Number       Type             X           Y           Z
 ---------------------------------------------------------------------
      1          6           0       -4.536701   -0.005350   -0.519626
      2          6           0       -5.613765   -0.908421    0.082355
      3          6           0       -6.285043   -1.803434   -0.959822
      4          1           0       -4.986365    0.617548   -1.304958
      5          1           0       -3.777893   -0.629356   -1.011786
      6          1           0       -6.369594   -0.282960    0.574428
      7          1           0       -5.161525   -1.529105    0.866477
      8          1           0       -5.547162   -2.451453   -1.443769
      9          1           0       -6.762094   -1.198227   -1.737476
     10          1           0       -7.051579   -2.440627   -0.507863
     11          6           0       -3.856485    0.895347    0.509830
     12          6           0       -2.779422    1.798418   -0.092151
     13          6           0       -2.108144    2.693431    0.950026
     14          1           0       -4.615293    1.519353    1.001990
     15          1           0       -3.406822    0.272449    1.295163
     16          1           0       -3.231661    2.419102   -0.876273
     17          1           0       -2.023593    1.172957   -0.584224
     18          1           0       -1.631092    2.088224    1.727681
     19          1           0       -2.846024    3.341450    1.433973
     20          1           0       -1.341607    3.330624    0.498067
     21          6           0        1.091865   -1.402740    0.690095
     22          6           0        1.107309   -0.113380    0.148027
     23          6           0        2.313081    0.481102   -0.235709
     24          6           0        3.489992   -0.245653   -0.062519
     25          6           0        3.507276   -1.531924    0.474601
     26          6           0        2.289786   -2.106655    0.851367
     27          1           0        0.150642   -1.856875    0.985482
     28          1           0        0.178523    0.435641    0.021624
     29          1           0        2.353862    1.477823   -0.657966
     30          1           0        4.449318   -2.054438    0.588414
     31          1           0        2.280814   -3.108141    1.272070
     32          7           0        4.772692    0.373243   -0.465074
     33          8           0        5.795890   -0.287949   -0.302202
     34          8           0        4.730585    1.507807   -0.935846
 ---------------------------------------------------------------------

 SCF Done:  E(RHF) =  -669.535467357     A.U. after   15 cycles
 E2 =    -0.2091286062D+01 EUMP2 =    -0.67162675341912D+03

 The electronic state is 1-A.
 Alpha  occ. eigenvalues --  -20.60741 -20.60736 -15.85794 -11.31160 -11.27731
 Alpha  occ. eigenvalues --  -11.27719 -11.27477 -11.26751 -11.26706 -11.22688
 Alpha  occ. eigenvalues --  -11.22319 -11.22294 -11.22169 -11.22041 -11.21654
 Alpha  occ. eigenvalues --   -1.59817  -1.39370  -1.19332  -1.09310  -1.08729
 Alpha  occ. eigenvalues --   -1.04736  -1.04382  -0.96808  -0.95564  -0.87817
 Alpha  occ. eigenvalues --   -0.86136  -0.82396  -0.80452  -0.79099  -0.77442
 Alpha  occ. eigenvalues --   -0.72013  -0.71139  -0.70448  -0.66015  -0.64984
 Alpha  occ. eigenvalues --   -0.64733  -0.62219  -0.61641  -0.60178  -0.58411
 Alpha  occ. eigenvalues --   -0.56106  -0.55234  -0.53493  -0.53217  -0.53065
 Alpha  occ. eigenvalues --   -0.52814  -0.50754  -0.48805  -0.48768  -0.48715
 Alpha  occ. eigenvalues --   -0.47505  -0.46629  -0.46565  -0.44775  -0.44627
 Alpha  occ. eigenvalues --   -0.37318  -0.36334
 Alpha virt. eigenvalues --    0.05092   0.11286   0.16573   0.18929   0.22722
 Alpha virt. eigenvalues --    0.23597   0.25513   0.26293   0.26890   0.28428
 Alpha virt. eigenvalues --    0.28867   0.30136   0.30878   0.30997   0.31796

 Mulliken charges:
               1
     1  C   -0.298658
     2  C   -0.299931
     3  C   -0.476078
     4  H    0.152815
     5  H    0.147092
     6  H    0.154076
     7  H    0.150319
     8  H    0.154889
     9  H    0.157003
    10  H    0.162111
    11  C   -0.298055
    12  C   -0.305999
    13  C   -0.479135
    14  H    0.154079
    15  H    0.145735
    16  H    0.158745
    17  H    0.144113
    18  H    0.153750
    19  H    0.161611
    20  H    0.162037
    21  C   -0.173600
    22  C   -0.228329
    23  C   -0.173300
    24  C    0.158997
    25  C   -0.171265
    26  C   -0.218381
    27  H    0.225090
    28  H    0.238472
    29  H    0.276027
    30  H    0.275495
    31  H    0.223208
    32  N    0.488048
    33  O   -0.460601
    34  O   -0.460382
 Sum of Mulliken charges =  -0.00000

 Dipole moment (field-independent basis, Debye):
    X=             -4.7531    Y=             -2.0979    Z=              1.4224  Tot=              5.3867
 Quadrupole moment (field-independent basis, Debye-Ang):
   XX=           -124.4393   YY=            -90.1266   ZZ=            -95.6849
   XY=            -10.0711   XZ=              5.8669   YZ=             -2.1531

 Normal termination of Gaussian 16 at Thu May  6 04:08:36 2021.
