 Gaussian 16, Revision A.03,
 Gaussian 16:  EM64L-G16RevA.03 25-Dec-2016

 -------------
 #p 6-31g* mp2
 -------------

 ------------------------------------------------------
 Input file generated by CHIRIPA (05-May-2021 14:51:09)
 ------------------------------------------------------
 Symbolic Z-matrix:
 Charge =  0 Multiplicity = 1

                         Standard orientation:
 ---------------------------------------------------------------------
 Center     Atomic      Atomic             Coordinates (Angstroms)
 Number     Number       Type             X           Y           Z
 ---------------------------------------------------------------------
      1          6           0        2.179587   -1.527182    0.026526
      2          6           0        0.997497   -1.666614    0.986321
      3          6           0        0.300468   -3.022717    0.872614
      4          1           0        1.826795   -1.674505   -1.003415
      5          1           0        2.902489   -2.330024    0.227153
      6          1           0        0.277693   -0.862926    0.784867
      7          1           0        1.353109   -1.518753    2.014083
      8          1           0        0.999992   -3.835202    1.094276
      9          1           0       -0.081534   -3.175650   -0.141924
     10          1           0       -0.541475   -3.100876    1.567512
     11          6           0        2.886642   -0.176839    0.128389
     12          6           0        4.068732   -0.037407   -0.831406
     13          6           0        4.765760    1.318696   -0.717699
     14          1           0        2.163739    0.626003   -0.072238
     15          1           0        3.239433   -0.029517    1.158330
     16          1           0        3.713119   -0.185269   -1.859167
     17          1           0        4.788536   -0.841095   -0.629951
     18          1           0        5.147763    1.471628    0.296839
     19          1           0        4.066236    2.131181   -0.939361
     20          1           0        5.607703    1.396854   -1.412597
     21          6           0       -2.427570    1.607398   -0.118476
     22          6           0       -1.228742    2.097180    0.694486
     23          6           0       -1.030595    3.610475    0.602441
     24          1           0       -2.293088    1.897770   -1.169448
     25          1           0       -3.334102    2.118913    0.233587
     26          1           0       -0.324954    1.583873    0.341925
     27          1           0       -1.366002    1.805441    1.743612
     28          1           0       -1.915345    4.138100    0.973157
     29          1           0       -0.868381    3.915273   -0.436494
     30          1           0       -0.168283    3.938990    1.190960
     31          6           0       -2.638658    0.096624   -0.036439
     32          6           0       -3.837487   -0.393159   -0.849402
     33          6           0       -4.035633   -1.906453   -0.757356
     34          1           0       -1.732126   -0.414891   -0.388502
     35          1           0       -2.773140   -0.193748    1.014533
     36          1           0       -3.700226   -0.101420   -1.898527
     37          1           0       -4.741273    0.120149   -0.496840
     38          1           0       -4.197847   -2.211251    0.281579
     39          1           0       -3.150884   -2.434079   -1.128072
     40          1           0       -4.897946   -2.234968   -1.345875
 ---------------------------------------------------------------------

 SCF Done:  E(RHF) =  -470.732684985     A.U. after   11 cycles
 E2 =    -0.1584602839D+01 EUMP2 =    -0.47231728782429D+03

 The electronic state is 1-A.
 Alpha  occ. eigenvalues --  -11.21642 -11.21627 -11.21610 -11.21481 -11.21443
 Alpha  occ. eigenvalues --  -11.21402 -11.21382 -11.21337 -11.21106 -11.21078
 Alpha  occ. eigenvalues --  -11.21077 -11.21026  -1.08500  -1.08396  -1.03563
 Alpha  occ. eigenvalues --   -1.03505  -0.96016  -0.95957  -0.87027  -0.86976
 Alpha  occ. eigenvalues --   -0.79640  -0.79576  -0.78448  -0.78082  -0.65303
 Alpha  occ. eigenvalues --   -0.64882  -0.60992  -0.60891  -0.59380  -0.59328
 Alpha  occ. eigenvalues --   -0.57679  -0.57514  -0.55333  -0.55226  -0.52717
 Alpha  occ. eigenvalues --   -0.52641  -0.52437  -0.52378  -0.50004  -0.49859
 Alpha  occ. eigenvalues --   -0.47975  -0.47913  -0.46835  -0.46683  -0.46183
 Alpha  occ. eigenvalues --   -0.45787  -0.45743  -0.44964  -0.43815  -0.43754
 Alpha virt. eigenvalues --    0.20419   0.22383   0.23620   0.24222   0.25760
 Alpha virt. eigenvalues --    0.26341   0.26937   0.27492   0.27814   0.29682
 Alpha virt. eigenvalues --    0.30954   0.31559   0.31650   0.32058   0.32402

 Mulliken charges:
               1
     1  C   -0.297867
     2  C   -0.310632
     3  C   -0.475344
     4  H    0.148286
     5  H    0.149613
     6  H    0.163848
     7  H    0.151534
     8  H    0.154882
     9  H    0.154156
    10  H    0.160894
    11  C   -0.302840
    12  C   -0.299422
    13  C   -0.475735
    14  H    0.152918
    15  H    0.150002
    16  H    0.151656
    17  H    0.152177
    18  H    0.155265
    19  H    0.155143
    20  H    0.160273
    21  C   -0.298056
    22  C   -0.307282
    23  C   -0.475450
    24  H    0.149149
    25  H    0.149849
    26  H    0.158115
    27  H    0.152678
    28  H    0.155452
    29  H    0.154837
    30  H    0.160783
    31  C   -0.302986
    32  C   -0.299385
    33  C   -0.476062
    34  H    0.154431
    35  H    0.149932
    36  H    0.151679
    37  H    0.152053
    38  H    0.155309
    39  H    0.155900
    40  H    0.160244
 Sum of Mulliken charges =  -0.00000

 Dipole moment (field-independent basis, Debye):
    X=             -0.0286    Y=              0.0198    Z=              0.0178  Tot=              0.0390
 Quadrupole moment (field-independent basis, Debye-Ang):
   XX=            -84.4756   YY=            -86.7198   ZZ=            -83.5922
   XY=             -1.1417   XZ=             -0.0477   YZ=             -0.1592

 Normal termination of Gaussian 16 at Thu May  6 03:42:49 2021.
