 Gaussian 16, Revision A.03,
 Gaussian 16:  EM64L-G16RevA.03 25-Dec-2016

 -------------
 #p 6-31g* mp2
 -------------

 ------------------------------------------------------
 Input file generated by CHIRIPA (05-May-2021 14:57:24)
 ------------------------------------------------------
 Symbolic Z-matrix:
 Charge =  0 Multiplicity = 1

                         Standard orientation:
 ---------------------------------------------------------------------
 Center     Atomic      Atomic             Coordinates (Angstroms)
 Number     Number       Type             X           Y           Z
 ---------------------------------------------------------------------
      1          6           0       -5.572117    1.084573    0.909504
      2          6           0       -4.926001    0.151370    1.726931
      3          6           0       -3.887612   -0.636591    1.221545
      4          6           0       -3.519366   -0.464385   -0.111883
      5          6           0       -4.143741    0.456829   -0.951413
      6          6           0       -5.179617    1.234061   -0.424707
      7          1           0       -6.377787    1.692513    1.310381
      8          1           0       -5.228712    0.033124    2.763477
      9          1           0       -3.370321   -1.366598    1.832215
     10          1           0       -3.819752    0.552026   -1.980678
     11          1           0       -5.679608    1.958007   -1.061853
     12          7           0       -2.421400   -1.292885   -0.658197
     13          8           0       -2.115745   -1.122027   -1.836340
     14          8           0       -1.887260   -2.097432    0.102088
     15          6           0        1.793484    1.900238   -0.485544
     16          6           0        3.040590    2.410494   -0.110194
     17          6           0        4.104258    1.548629    0.173266
     18          6           0        3.884670    0.175824    0.070896
     19          6           0        2.653877   -0.363129   -0.300545
     20          6           0        1.604441    0.517494   -0.579356
     21          1           0        0.972729    2.577042   -0.703938
     22          1           0        3.190293    3.483902   -0.036516
     23          1           0        5.080075    1.916674    0.466083
     24          1           0        2.535091   -1.437890   -0.365315
     25          1           0        0.637007    0.118396   -0.870624
     26          7           0        5.003194   -0.746522    0.368522
     27          8           0        4.784034   -1.951967    0.271008
     28          8           0        6.077873   -0.246548    0.693681
 ---------------------------------------------------------------------

 SCF Done:  E(RHF) =  -868.339422770     A.U. after   16 cycles
 E2 =    -0.2598771455D+01 EUMP2 =    -0.87093819422565D+03

 The electronic state is 1-A.
 Alpha  occ. eigenvalues --  -20.61815 -20.61796 -20.60138 -20.60120 -15.86827
 Alpha  occ. eigenvalues --  -15.85178 -11.31976 -11.30461 -11.28531 -11.28492
 Alpha  occ. eigenvalues --  -11.28204 -11.27479 -11.27448 -11.27072 -11.26904
 Alpha  occ. eigenvalues --  -11.26782 -11.26114 -11.25867  -1.60888  -1.59209
 Alpha  occ. eigenvalues --   -1.40436  -1.38763  -1.20128  -1.18624  -1.09562
 Alpha  occ. eigenvalues --   -1.08051  -1.05489  -1.03988  -0.96428  -0.94897
 Alpha  occ. eigenvalues --   -0.86896  -0.85405  -0.83258  -0.81709  -0.78339
 Alpha  occ. eigenvalues --   -0.76757  -0.73027  -0.72215  -0.71400  -0.71219
 Alpha  occ. eigenvalues --   -0.70531  -0.69761  -0.65773  -0.65479  -0.64271
 Alpha  occ. eigenvalues --   -0.63971  -0.62833  -0.61312  -0.55988  -0.54552
 Alpha  occ. eigenvalues --   -0.53841  -0.53569  -0.52361  -0.52061  -0.49811
 Alpha  occ. eigenvalues --   -0.49780  -0.48161  -0.48149  -0.45874  -0.44186
 Alpha  occ. eigenvalues --   -0.38097  -0.37086  -0.36644  -0.35589
 Alpha virt. eigenvalues --    0.04133   0.05739   0.10572   0.12047   0.15672
 Alpha virt. eigenvalues --    0.17245   0.20763   0.22170   0.26704   0.27525
 Alpha virt. eigenvalues --    0.28150   0.28998   0.30349   0.31636   0.31888

 Mulliken charges:
               1
     1  C   -0.169942
     2  C   -0.218599
     3  C   -0.170447
     4  C    0.156308
     5  C   -0.172602
     6  C   -0.218809
     7  H    0.228233
     8  H    0.226439
     9  H    0.277913
    10  H    0.275357
    11  H    0.225261
    12  N    0.485471
    13  O   -0.463998
    14  O   -0.456981
    15  C   -0.172488
    16  C   -0.218790
    17  C   -0.172704
    18  C    0.157922
    19  C   -0.171820
    20  C   -0.224077
    21  H    0.221169
    22  H    0.219457
    23  H    0.272862
    24  H    0.281916
    25  H    0.237691
    26  N    0.487936
    27  O   -0.459087
    28  O   -0.463590
 Sum of Mulliken charges =  -0.00000

 Dipole moment (field-independent basis, Debye):
    X=             -8.2294    Y=              6.0108    Z=              0.9349  Tot=             10.2336
 Quadrupole moment (field-independent basis, Debye-Ang):
   XX=           -107.2934   YY=           -103.3337   ZZ=           -102.1323
   XY=              5.1283   XZ=            -10.1127   YZ=             -2.6280

 Normal termination of Gaussian 16 at Fri May  7 03:25:45 2021.
