 Gaussian 16, Revision A.03,
 Gaussian 16:  EM64L-G16RevA.03 25-Dec-2016

 -------------
 #p 6-31g* mp2
 -------------

 ------------------------------------------------------
 Input file generated by CHIRIPA (05-May-2021 14:53:18)
 ------------------------------------------------------
 Symbolic Z-matrix:
 Charge =  0 Multiplicity = 1

                         Standard orientation:
 ---------------------------------------------------------------------
 Center     Atomic      Atomic             Coordinates (Angstroms)
 Number     Number       Type             X           Y           Z
 ---------------------------------------------------------------------
      1          6           0        5.850292    0.041678    0.267405
      2          6           0        6.812931   -0.851182   -0.516248
      3          6           0        8.257182   -0.734996   -0.027951
      4          1           0        6.182530    1.085897    0.188853
      5          1           0        5.900581   -0.223037    1.332671
      6          1           0        6.759820   -0.585797   -1.579904
      7          1           0        6.478254   -1.893375   -0.435980
      8          1           0        8.331374   -1.019611    1.026606
      9          1           0        8.614539    0.295396   -0.123817
     10          1           0        8.928265   -1.381606   -0.601887
     11          6           0        4.402654   -0.063433   -0.209066
     12          6           0        3.440015    0.829428    0.574586
     13          6           0        1.995764    0.713241    0.086290
     14          1           0        4.352364    0.201283   -1.274332
     15          1           0        4.070416   -1.107651   -0.130515
     16          1           0        3.774692    1.871620    0.494319
     17          1           0        3.493126    0.564043    1.638243
     18          1           0        1.638407   -0.317150    0.182156
     19          1           0        1.921572    0.997857   -0.968267
     20          1           0        1.324681    1.359852    0.660226
     21          6           0       -2.170791    1.739792   -0.086100
     22          6           0       -3.508643    2.133076   -0.195636
     23          6           0       -4.533198    1.182449   -0.161815
     24          6           0       -4.182387   -0.158878   -0.016667
     25          6           0       -2.858857   -0.582089    0.094905
     26          6           0       -1.850731    0.385852    0.058566
     27          1           0       -1.381273    2.484988   -0.113350
     28          1           0       -3.760159    3.183857   -0.308079
     29          1           0       -5.577219    1.459231   -0.244461
     30          1           0       -2.639250   -1.637005    0.206006
     31          1           0       -0.812607    0.077521    0.143859
     32          7           0       -5.258340   -1.174429    0.020469
     33          8           0       -4.923006   -2.349853    0.149178
     34          8           0       -6.416634   -0.775765   -0.079834
 ---------------------------------------------------------------------

 SCF Done:  E(RHF) =  -669.535366046     A.U. after   15 cycles
 E2 =    -0.2091266845D+01 EUMP2 =    -0.67162663289094D+03

 The electronic state is 1-A.
 Alpha  occ. eigenvalues --  -20.60679 -20.60674 -15.85729 -11.31068 -11.27634
 Alpha  occ. eigenvalues --  -11.27606 -11.27351 -11.26655 -11.26534 -11.22588
 Alpha  occ. eigenvalues --  -11.22477 -11.22134 -11.22070 -11.21951 -11.21454
 Alpha  occ. eigenvalues --   -1.59754  -1.39309  -1.19229  -1.09152  -1.08630
 Alpha  occ. eigenvalues --   -1.04629  -1.04307  -0.96800  -0.95472  -0.87849
 Alpha  occ. eigenvalues --   -0.86016  -0.82305  -0.80401  -0.78906  -0.77353
 Alpha  occ. eigenvalues --   -0.71949  -0.71077  -0.70346  -0.65778  -0.64880
 Alpha  occ. eigenvalues --   -0.64650  -0.62032  -0.61671  -0.60181  -0.58365
 Alpha  occ. eigenvalues --   -0.56090  -0.55124  -0.53614  -0.53234  -0.52957
 Alpha  occ. eigenvalues --   -0.52593  -0.50712  -0.48731  -0.48706  -0.48663
 Alpha  occ. eigenvalues --   -0.47383  -0.46461  -0.46347  -0.44720  -0.44541
 Alpha  occ. eigenvalues --   -0.37213  -0.36228
 Alpha virt. eigenvalues --    0.05169   0.11404   0.16673   0.20311   0.22326
 Alpha virt. eigenvalues --    0.23779   0.25625   0.25983   0.26487   0.27480
 Alpha virt. eigenvalues --    0.28771   0.29722   0.30845   0.31575   0.32189

 Mulliken charges:
               1
     1  C   -0.299028
     2  C   -0.300224
     3  C   -0.476117
     4  H    0.150434
     5  H    0.150789
     6  H    0.152573
     7  H    0.152952
     8  H    0.155916
     9  H    0.155582
    10  H    0.161842
    11  C   -0.299603
    12  C   -0.299064
    13  C   -0.485114
    14  H    0.150746
    15  H    0.151148
    16  H    0.154466
    17  H    0.155451
    18  H    0.154118
    19  H    0.159582
    20  H    0.155518
    21  C   -0.175463
    22  C   -0.218386
    23  C   -0.171732
    24  C    0.159040
    25  C   -0.173444
    26  C   -0.226528
    27  H    0.225588
    28  H    0.222740
    29  H    0.275034
    30  H    0.275280
    31  H    0.239521
    32  N    0.487985
    33  O   -0.460747
    34  O   -0.460853
 Sum of Mulliken charges =  -0.00000

 Dipole moment (field-independent basis, Debye):
    X=              4.1256    Y=              3.5699    Z=             -0.1363  Tot=              5.4574
 Quadrupole moment (field-independent basis, Debye-Ang):
   XX=           -124.7644   YY=            -93.0564   ZZ=            -95.2021
   XY=            -18.3808   XZ=              0.5569   YZ=             -1.0121

 Normal termination of Gaussian 16 at Wed May  5 18:48:36 2021.
