 Gaussian 16, Revision A.03,
 Gaussian 16:  EM64L-G16RevA.03 25-Dec-2016

 -------------
 #p 6-31g* mp2
 -------------

 ------------------------------------------------------
 Input file generated by CHIRIPA (05-May-2021 14:51:12)
 ------------------------------------------------------
 Symbolic Z-matrix:
 Charge =  0 Multiplicity = 1

                         Standard orientation:
 ---------------------------------------------------------------------
 Center     Atomic      Atomic             Coordinates (Angstroms)
 Number     Number       Type             X           Y           Z
 ---------------------------------------------------------------------
      1          6           0       -1.925280   -0.202995    0.865003
      2          6           0       -1.710666   -1.511571    1.626288
      3          6           0       -0.470827   -1.478791    2.520445
      4          1           0       -1.036719    0.008652    0.254586
      5          1           0       -2.013335    0.622010    1.585425
      6          1           0       -1.624425   -2.334057    0.904696
      7          1           0       -2.599920   -1.720226    2.234816
      8          1           0       -0.551948   -0.677751    3.262305
      9          1           0        0.429090   -1.295071    1.924627
     10          1           0       -0.336454   -2.424179    3.055276
     11          6           0       -3.160872   -0.220292   -0.033184
     12          6           0       -3.375486    1.088284   -0.794469
     13          6           0       -4.615326    1.055504   -1.688626
     14          1           0       -3.072817   -1.045297   -0.753607
     15          1           0       -4.049434   -0.431939    0.577233
     16          1           0       -2.486232    1.296938   -1.402998
     17          1           0       -3.461727    1.910770   -0.072877
     18          1           0       -5.515242    0.871784   -1.092808
     19          1           0       -4.534204    0.254464   -2.430486
     20          1           0       -4.749699    2.000892   -2.223457
     21          6           0        2.883860   -0.435375   -0.636515
     22          6           0        1.900379   -1.513805   -1.092298
     23          6           0        2.597245   -2.802250   -1.530566
     24          1           0        3.582663   -0.215724   -1.455277
     25          1           0        3.488057   -0.827125    0.193468
     26          1           0        1.297270   -1.119658   -1.920262
     27          1           0        1.203715   -1.730777   -0.272421
     28          1           0        3.184866   -3.221563   -0.707474
     29          1           0        3.278953   -2.606973   -2.364679
     30          1           0        1.875563   -3.559526   -1.852383
     31          6           0        2.202293    0.858662   -0.195304
     32          6           0        3.185774    1.937092    0.260479
     33          6           0        2.488907    3.225537    0.698748
     34          1           0        1.598095    1.250412   -1.025287
     35          1           0        1.503490    0.639011    0.623458
     36          1           0        3.882438    2.154064   -0.559398
     37          1           0        3.788882    1.542945    1.088444
     38          1           0        1.807200    3.030260    1.532860
     39          1           0        1.901288    3.644851   -0.124345
     40          1           0        3.210591    3.982814    1.020564
 ---------------------------------------------------------------------

 SCF Done:  E(RHF) =  -470.732641560     A.U. after   11 cycles
 E2 =    -0.1584620254D+01 EUMP2 =    -0.47231726181372D+03

 The electronic state is 1-A.
 Alpha  occ. eigenvalues --  -11.21658 -11.21611 -11.21610 -11.21577 -11.21440
 Alpha  occ. eigenvalues --  -11.21372 -11.21362 -11.21293 -11.21118 -11.21112
 Alpha  occ. eigenvalues --  -11.21063 -11.21055  -1.08499  -1.08390  -1.03576
 Alpha  occ. eigenvalues --   -1.03521  -0.96009  -0.95982  -0.87030  -0.86995
 Alpha  occ. eigenvalues --   -0.79637  -0.79601  -0.78437  -0.78082  -0.65293
 Alpha  occ. eigenvalues --   -0.64900  -0.61117  -0.60789  -0.59379  -0.59341
 Alpha  occ. eigenvalues --   -0.57624  -0.57592  -0.55303  -0.55276  -0.52708
 Alpha  occ. eigenvalues --   -0.52676  -0.52449  -0.52399  -0.50004  -0.49892
 Alpha  occ. eigenvalues --   -0.48000  -0.47924  -0.46805  -0.46637  -0.46222
 Alpha  occ. eigenvalues --   -0.45763  -0.45695  -0.45028  -0.43814  -0.43770
 Alpha virt. eigenvalues --    0.20323   0.23067   0.23743   0.24368   0.25365
 Alpha virt. eigenvalues --    0.26346   0.27022   0.27940   0.28395   0.30098
 Alpha virt. eigenvalues --    0.30297   0.31530   0.31635   0.31789   0.32191

 Mulliken charges:
               1
     1  C   -0.305262
     2  C   -0.299775
     3  C   -0.483384
     4  H    0.158006
     5  H    0.148705
     6  H    0.152060
     7  H    0.152252
     8  H    0.155214
     9  H    0.161000
    10  H    0.160580
    11  C   -0.297997
    12  C   -0.299547
    13  C   -0.475702
    14  H    0.149484
    15  H    0.149372
    16  H    0.151872
    17  H    0.151964
    18  H    0.155148
    19  H    0.155081
    20  H    0.160123
    21  C   -0.297769
    22  C   -0.308259
    23  C   -0.475207
    24  H    0.150021
    25  H    0.149533
    26  H    0.151538
    27  H    0.159471
    28  H    0.155540
    29  H    0.155438
    30  H    0.160166
    31  C   -0.306563
    32  C   -0.299205
    33  C   -0.475798
    34  H    0.149063
    35  H    0.157765
    36  H    0.151890
    37  H    0.152068
    38  H    0.155705
    39  H    0.155204
    40  H    0.160202
 Sum of Mulliken charges =  -0.00000

 Dipole moment (field-independent basis, Debye):
    X=              0.0223    Y=              0.0035    Z=              0.0012  Tot=              0.0226
 Quadrupole moment (field-independent basis, Debye-Ang):
   XX=            -85.3738   YY=            -85.5399   ZZ=            -83.9071
   XY=              0.2666   XZ=             -0.9447   YZ=             -0.2992

 Normal termination of Gaussian 16 at Thu May  6 07:05:44 2021.
