 Gaussian 16, Revision A.03,
 Gaussian 16:  EM64L-G16RevA.03 25-Dec-2016

 -------------
 #p 6-31g* mp2
 -------------

 ------------------------------------------------------
 Input file generated by CHIRIPA (05-May-2021 14:53:15)
 ------------------------------------------------------
 Symbolic Z-matrix:
 Charge =  0 Multiplicity = 1

                         Standard orientation:
 ---------------------------------------------------------------------
 Center     Atomic      Atomic             Coordinates (Angstroms)
 Number     Number       Type             X           Y           Z
 ---------------------------------------------------------------------
      1          6           0        2.594031    0.929444    0.265160
      2          6           0        2.533202    1.962339   -0.860634
      3          6           0        2.619657    3.400488   -0.348729
      4          1           0        1.774654    1.118380    0.972175
      5          1           0        3.528806    1.064141    0.826808
      6          1           0        1.599463    1.824836   -1.420848
      7          1           0        3.352705    1.770805   -1.565152
      8          1           0        3.557578    3.560949    0.192711
      9          1           0        1.794374    3.615288    0.337835
     10          1           0        2.574300    4.122401   -1.170097
     11          6           0        2.508760   -0.512947   -0.230788
     12          6           0        2.569589   -1.545842    0.895006
     13          6           0        2.483134   -2.983991    0.383101
     14          1           0        1.573985   -0.647644   -0.792436
     15          1           0        3.328137   -0.701883   -0.937802
     16          1           0        1.750086   -1.354307    1.599525
     17          1           0        3.503328   -1.408339    1.455220
     18          1           0        3.308417   -3.198791   -0.303463
     19          1           0        1.545213   -3.144452   -0.158339
     20          1           0        2.528491   -3.705904    1.204470
     21          6           0       -2.620072    2.141124    0.802337
     22          6           0       -2.220879    1.159735    1.715595
     23          6           0       -1.871350   -0.120168    1.274884
     24          6           0       -1.932682   -0.385419   -0.092292
     25          6           0       -2.326405    0.571056   -1.026865
     26          6           0       -2.671471    1.844177   -0.563569
     27          1           0       -2.889860    3.132750    1.153463
     28          1           0       -2.180026    1.387518    2.776958
     29          1           0       -1.558777   -0.898729    1.960128
     30          1           0       -2.357265    0.314164   -2.078754
     31          1           0       -2.981118    2.604367   -1.275099
     32          7           0       -1.565014   -1.736805   -0.570807
     33          8           0       -1.627376   -1.945309   -1.780465
     34          8           0       -1.221434   -2.561928    0.272853
 ---------------------------------------------------------------------

 SCF Done:  E(RHF) =  -669.536553270     A.U. after   15 cycles
 E2 =    -0.2093329545D+01 EUMP2 =    -0.67162988281567D+03

 The electronic state is 1-A.
 Alpha  occ. eigenvalues --  -20.61047 -20.61035 -15.86060 -11.31380 -11.27937
 Alpha  occ. eigenvalues --  -11.27928 -11.27656 -11.26936 -11.26924 -11.21533
 Alpha  occ. eigenvalues --  -11.21189 -11.21162 -11.20980 -11.20921 -11.19893
 Alpha  occ. eigenvalues --   -1.60101  -1.39654  -1.19538  -1.08943  -1.08095
 Alpha  occ. eigenvalues --   -1.04929  -1.03106  -0.95790  -0.95535  -0.86555
 Alpha  occ. eigenvalues --   -0.86327  -0.82616  -0.79215  -0.77872  -0.77675
 Alpha  occ. eigenvalues --   -0.72278  -0.71432  -0.70637  -0.65193  -0.64926
 Alpha  occ. eigenvalues --   -0.64722  -0.62274  -0.60488  -0.58986  -0.57146
 Alpha  occ. eigenvalues --   -0.55428  -0.54828  -0.53245  -0.53016  -0.52229
 Alpha  occ. eigenvalues --   -0.51964  -0.49528  -0.49040  -0.49003  -0.47508
 Alpha  occ. eigenvalues --   -0.46254  -0.45425  -0.45313  -0.44981  -0.43382
 Alpha  occ. eigenvalues --   -0.37502  -0.36519
 Alpha virt. eigenvalues --    0.04802   0.11086   0.16295   0.21109   0.22815
 Alpha virt. eigenvalues --    0.24513   0.26454   0.26971   0.27742   0.28337
 Alpha virt. eigenvalues --    0.28546   0.30623   0.31522   0.31965   0.32599

 Mulliken charges:
               1
     1  C   -0.297792
     2  C   -0.298627
     3  C   -0.475084
     4  H    0.145867
     5  H    0.148604
     6  H    0.150424
     7  H    0.153085
     8  H    0.155612
     9  H    0.151303
    10  H    0.158529
    11  C   -0.298699
    12  C   -0.297649
    13  C   -0.481927
    14  H    0.148412
    15  H    0.150437
    16  H    0.147333
    17  H    0.147311
    18  H    0.148999
    19  H    0.179452
    20  H    0.157112
    21  C   -0.170500
    22  C   -0.218845
    23  C   -0.171336
    24  C    0.158043
    25  C   -0.171487
    26  C   -0.218271
    27  H    0.226605
    28  H    0.224516
    29  H    0.276693
    30  H    0.276351
    31  H    0.224451
    32  N    0.488521
    33  O   -0.458727
    34  O   -0.458718
 Sum of Mulliken charges =  -0.00000

 Dipole moment (field-independent basis, Debye):
    X=             -1.5123    Y=              4.6498    Z=              1.6223  Tot=              5.1517
 Quadrupole moment (field-independent basis, Debye-Ang):
   XX=            -89.6407   YY=            -99.7502   ZZ=            -90.7810
   XY=             -9.3117   XZ=             -2.4621   YZ=             -2.6859

 Normal termination of Gaussian 16 at Thu May  6 02:41:33 2021.
