 Gaussian 16, Revision A.03,
 Gaussian 16:  EM64L-G16RevA.03 25-Dec-2016

 -------------
 #p 6-31g* mp2
 -------------

 ------------------------------------------------------
 Input file generated by CHIRIPA (05-May-2021 14:57:22)
 ------------------------------------------------------
 Symbolic Z-matrix:
 Charge =  0 Multiplicity = 1

                         Standard orientation:
 ---------------------------------------------------------------------
 Center     Atomic      Atomic             Coordinates (Angstroms)
 Number     Number       Type             X           Y           Z
 ---------------------------------------------------------------------
      1          6           0        5.211163    1.680600    0.606340
      2          6           0        3.842157    1.787106    0.872799
      3          6           0        2.973312    0.738943    0.554977
      4          6           0        3.509905   -0.406427   -0.031100
      5          6           0        4.869152   -0.542602   -0.308939
      6          6           0        5.719395    0.518135    0.017360
      7          1           0        5.878878    2.499722    0.856524
      8          1           0        3.444662    2.688705    1.330140
      9          1           0        1.909302    0.794872    0.750355
     10          1           0        5.235935   -1.453857   -0.765559
     11          1           0        6.782146    0.432641   -0.190719
     12          7           0        2.599944   -1.522726   -0.372051
     13          8           0        3.097555   -2.521248   -0.887777
     14          8           0        1.406335   -1.378022   -0.117105
     15          6           0       -4.453210   -2.077290    0.644050
     16          6           0       -5.369585   -1.026872    0.528296
     17          6           0       -4.941272    0.251466    0.158226
     18          6           0       -3.583181    0.444777   -0.089783
     19          6           0       -2.645797   -0.581472    0.017058
     20          6           0       -3.096633   -1.851636    0.388512
     21          1           0       -4.794682   -3.067158    0.932068
     22          1           0       -6.423722   -1.199203    0.726141
     23          1           0       -5.629189    1.082585    0.061123
     24          1           0       -1.601317   -0.378972   -0.186587
     25          1           0       -2.382711   -2.665526    0.477624
     26          7           0       -3.117824    1.793769   -0.482292
     27          8           0       -1.915996    1.938149   -0.695367
     28          8           0       -3.963717    2.681186   -0.569435
 ---------------------------------------------------------------------

 SCF Done:  E(RHF) =  -868.340653969     A.U. after   16 cycles
 E2 =    -0.2598126535D+01 EUMP2 =    -0.87093878050457D+03

 The electronic state is 1-A.
 Alpha  occ. eigenvalues --  -20.61103 -20.61064 -20.60354 -20.60343 -15.86127
 Alpha  occ. eigenvalues --  -15.85394 -11.31178 -11.30514 -11.27743 -11.27673
 Alpha  occ. eigenvalues --  -11.27426 -11.27136 -11.26910 -11.26808 -11.26702
 Alpha  occ. eigenvalues --  -11.26631 -11.26124 -11.25918  -1.60145  -1.59429
 Alpha  occ. eigenvalues --   -1.39710  -1.38988  -1.19329  -1.18679  -1.08786
 Alpha  occ. eigenvalues --   -1.08134  -1.04683  -1.04020  -0.95671  -0.94998
 Alpha  occ. eigenvalues --   -0.86100  -0.85444  -0.82519  -0.81822  -0.77590
 Alpha  occ. eigenvalues --   -0.76882  -0.72376  -0.71624  -0.71441  -0.70747
 Alpha  occ. eigenvalues --   -0.70443  -0.69786  -0.64991  -0.64686  -0.64326
 Alpha  occ. eigenvalues --   -0.64011  -0.62029  -0.61336  -0.55213  -0.54575
 Alpha  occ. eigenvalues --   -0.53035  -0.52771  -0.52406  -0.52089  -0.49120
 Alpha  occ. eigenvalues --   -0.49079  -0.48380  -0.48358  -0.45180  -0.44448
 Alpha  occ. eigenvalues --   -0.37305  -0.36691  -0.36270  -0.35624
 Alpha virt. eigenvalues --    0.04919   0.05600   0.11385   0.12016   0.16462
 Alpha virt. eigenvalues --    0.17133   0.21320   0.22247   0.26930   0.27709
 Alpha virt. eigenvalues --    0.28438   0.29315   0.30946   0.31713   0.32205

 Mulliken charges:
               1
     1  C   -0.170009
     2  C   -0.218728
     3  C   -0.169030
     4  C    0.157152
     5  C   -0.170943
     6  C   -0.218870
     7  H    0.226422
     8  H    0.227304
     9  H    0.279447
    10  H    0.274605
    11  H    0.223302
    12  N    0.493578
    13  O   -0.458978
    14  O   -0.473359
    15  C   -0.171148
    16  C   -0.219482
    17  C   -0.171980
    18  C    0.156916
    19  C   -0.177011
    20  C   -0.221943
    21  H    0.224118
    22  H    0.220584
    23  H    0.272537
    24  H    0.291044
    25  H    0.233142
    26  N    0.488114
    27  O   -0.463673
    28  O   -0.463111
 Sum of Mulliken charges =  -0.00000

 Dipole moment (field-independent basis, Debye):
    X=              1.8795    Y=             -0.8614    Z=              2.6030  Tot=              3.3242
 Quadrupole moment (field-independent basis, Debye-Ang):
   XX=            -64.1223   YY=           -111.2486   ZZ=           -106.1522
   XY=             25.6389   XZ=             -2.5050   YZ=              1.7605

 Normal termination of Gaussian 16 at Wed May  5 19:19:54 2021.
