 Gaussian 16, Revision A.03,
 Gaussian 16:  EM64L-G16RevA.03 25-Dec-2016

 -------------
 #p 6-31g* mp2
 -------------

 ------------------------------------------------------
 Input file generated by CHIRIPA (05-May-2021 14:55:19)
 ------------------------------------------------------
 Symbolic Z-matrix:
 Charge =  0 Multiplicity = 1

                         Standard orientation:
 ---------------------------------------------------------------------
 Center     Atomic      Atomic             Coordinates (Angstroms)
 Number     Number       Type             X           Y           Z
 ---------------------------------------------------------------------
      1          6           0        1.824416   -2.570786    1.093627
      2          6           0        1.200506   -1.417185    1.579901
      3          6           0        1.466670   -0.170436    1.006034
      4          6           0        2.366147   -0.113585   -0.057451
      5          6           0        3.003666   -1.244928   -0.564324
      6          6           0        2.722421   -2.481134    0.024951
      7          1           0        1.611796   -3.535195    1.545406
      8          1           0        0.502662   -1.483807    2.409732
      9          1           0        0.997692    0.738541    1.362737
     10          1           0        3.694662   -1.146871   -1.392774
     11          1           0        3.208429   -3.375369   -0.354766
     12          7           0        2.655905    1.200711   -0.673134
     13          8           0        3.452271    1.224080   -1.609025
     14          8           0        2.081165    2.182601   -0.208157
     15          6           0       -2.326370    0.810641    0.091292
     16          6           0       -2.577383    2.259012    0.512239
     17          6           0       -1.285063    3.022210    0.804186
     18          1           0       -1.766572    0.296681    0.884648
     19          1           0       -1.684489    0.801311   -0.800502
     20          1           0       -3.219734    2.265647    1.402159
     21          1           0       -3.136816    2.769531   -0.282130
     22          1           0       -0.642703    3.045300   -0.082066
     23          1           0       -0.726093    2.538553    1.611792
     24          1           0       -1.487763    4.055320    1.103279
     25          6           0       -3.608711    0.034664   -0.203986
     26          6           0       -3.357698   -1.413708   -0.624934
     27          6           0       -4.650017   -2.176906   -0.916880
     28          1           0       -4.250592    0.043993    0.687807
     29          1           0       -4.168509    0.548623   -0.997344
     30          1           0       -2.798265   -1.924227    0.169434
     31          1           0       -2.715346   -1.420343   -1.514853
     32          1           0       -5.208988   -1.693249   -1.724487
     33          1           0       -5.292378   -2.199996   -0.030629
     34          1           0       -4.447318   -3.210015   -1.215973
 ---------------------------------------------------------------------

 SCF Done:  E(RHF) =  -669.535282883     A.U. after   15 cycles
 E2 =    -0.2093176104D+01 EUMP2 =    -0.67162845898724D+03

 The electronic state is 1-A.
 Alpha  occ. eigenvalues --  -20.60815 -20.60807 -15.85851 -11.31171 -11.27761
 Alpha  occ. eigenvalues --  -11.27721 -11.27502 -11.26761 -11.26752 -11.21800
 Alpha  occ. eigenvalues --  -11.21511 -11.21457 -11.21403 -11.21267 -11.20573
 Alpha  occ. eigenvalues --   -1.59884  -1.39439  -1.19354  -1.08759  -1.08485
 Alpha  occ. eigenvalues --   -1.04754  -1.03507  -0.95938  -0.95596  -0.86944
 Alpha  occ. eigenvalues --   -0.86154  -0.82435  -0.79580  -0.78342  -0.77442
 Alpha  occ. eigenvalues --   -0.72077  -0.71203  -0.70472  -0.65150  -0.64994
 Alpha  occ. eigenvalues --   -0.64764  -0.62126  -0.60892  -0.59332  -0.57549
 Alpha  occ. eigenvalues --   -0.55296  -0.55192  -0.53102  -0.52871  -0.52599
 Alpha  occ. eigenvalues --   -0.52321  -0.49880  -0.48851  -0.48832  -0.47839
 Alpha  occ. eigenvalues --   -0.46622  -0.45852  -0.45764  -0.44772  -0.43777
 Alpha  occ. eigenvalues --   -0.37336  -0.36320
 Alpha virt. eigenvalues --    0.05004   0.11265   0.16394   0.20322   0.22944
 Alpha virt. eigenvalues --    0.23908   0.25668   0.26860   0.27125   0.28210
 Alpha virt. eigenvalues --    0.29682   0.30773   0.31439   0.31784   0.32195

 Mulliken charges:
               1
     1  C   -0.170080
     2  C   -0.221742
     3  C   -0.170565
     4  C    0.154039
     5  C   -0.170112
     6  C   -0.219147
     7  H    0.225608
     8  H    0.223173
     9  H    0.285942
    10  H    0.275460
    11  H    0.223348
    12  N    0.488298
    13  O   -0.460133
    14  O   -0.461101
    15  C   -0.297568
    16  C   -0.301196
    17  C   -0.479403
    18  H    0.138636
    19  H    0.153640
    20  H    0.148352
    21  H    0.153430
    22  H    0.178865
    23  H    0.142887
    24  H    0.160762
    25  C   -0.298319
    26  C   -0.298430
    27  C   -0.475669
    28  H    0.148325
    29  H    0.151910
    30  H    0.146598
    31  H    0.153633
    32  H    0.156858
    33  H    0.154617
    34  H    0.159086
 Sum of Mulliken charges =  -0.00000

 Dipole moment (field-independent basis, Debye):
    X=             -0.9443    Y=             -4.5085    Z=              2.0227  Tot=              5.0308
 Quadrupole moment (field-independent basis, Debye-Ang):
   XX=            -99.0766   YY=            -93.2408   ZZ=            -92.6607
   XY=            -13.1751   XZ=              2.9126   YZ=              0.9000

 Normal termination of Gaussian 16 at Wed May  5 20:29:52 2021.
