 Gaussian 16, Revision A.03,
 Gaussian 16:  EM64L-G16RevA.03 25-Dec-2016

 -------------
 #p 6-31g* mp2
 -------------

 ------------------------------------------------------
 Input file generated by CHIRIPA (05-May-2021 14:57:23)
 ------------------------------------------------------
 Symbolic Z-matrix:
 Charge =  0 Multiplicity = 1

                         Standard orientation:
 ---------------------------------------------------------------------
 Center     Atomic      Atomic             Coordinates (Angstroms)
 Number     Number       Type             X           Y           Z
 ---------------------------------------------------------------------
      1          6           0       -1.543911    2.627007    0.828328
      2          6           0       -2.570433    2.577999   -0.120551
      3          6           0       -3.155617    1.357659   -0.471093
      4          6           0       -2.687680    0.200564    0.149759
      5          6           0       -1.666667    0.216791    1.098737
      6          6           0       -1.096093    1.448325    1.433875
      7          1           0       -1.095001    3.579344    1.094654
      8          1           0       -2.920227    3.491783   -0.592449
      9          1           0       -3.951849    1.290952   -1.202518
     10          1           0       -1.339186   -0.710931    1.552064
     11          1           0       -0.299043    1.483370    2.171119
     12          7           0       -3.299454   -1.097280   -0.213190
     13          8           0       -2.869294   -2.102484    0.348204
     14          8           0       -4.197539   -1.084752   -1.052192
     15          6           0        1.076531   -2.422956    0.015838
     16          6           0        0.741792   -1.390988   -0.867063
     17          6           0        1.571170   -0.273410   -1.000092
     18          6           0        2.732864   -0.220291   -0.231370
     19          6           0        3.093629   -1.232285    0.656891
     20          6           0        2.249313   -2.340456    0.773661
     21          1           0        0.426448   -3.287464    0.112863
     22          1           0       -0.168380   -1.452370   -1.456864
     23          1           0        1.336076    0.539783   -1.676012
     24          1           0        4.007539   -1.142758    1.231498
     25          1           0        2.511796   -3.140399    1.460129
     26          7           0        3.618797    0.957860   -0.363595
     27          8           0        4.636676    0.980731    0.324908
     28          8           0        3.278537    1.836115   -1.153234
 ---------------------------------------------------------------------

 SCF Done:  E(RHF) =  -868.339185812     A.U. after   16 cycles
 E2 =    -0.2602276683D+01 EUMP2 =    -0.87094146249554D+03

 The electronic state is 1-A.
 Alpha  occ. eigenvalues --  -20.61588 -20.61552 -20.61057 -20.61048 -15.86599
 Alpha  occ. eigenvalues --  -15.86103 -11.31640 -11.31349 -11.28209 -11.28186
 Alpha  occ. eigenvalues --  -11.27906 -11.27860 -11.27833 -11.27448 -11.27094
 Alpha  occ. eigenvalues --  -11.27057 -11.26854 -11.26760  -1.60652  -1.60138
 Alpha  occ. eigenvalues --   -1.40211  -1.39692  -1.19818  -1.19496  -1.09246
 Alpha  occ. eigenvalues --   -1.08886  -1.05168  -1.04855  -0.96129  -0.95735
 Alpha  occ. eigenvalues --   -0.86575  -0.86235  -0.82966  -0.82572  -0.78066
 Alpha  occ. eigenvalues --   -0.77668  -0.72819  -0.72318  -0.71999  -0.71471
 Alpha  occ. eigenvalues --   -0.70876  -0.70482  -0.65447  -0.65143  -0.65098
 Alpha  occ. eigenvalues --   -0.64820  -0.62506  -0.62208  -0.55626  -0.55243
 Alpha  occ. eigenvalues --   -0.53832  -0.53248  -0.52949  -0.52877  -0.49595
 Alpha  occ. eigenvalues --   -0.49539  -0.49082  -0.49063  -0.45674  -0.45124
 Alpha  occ. eigenvalues --   -0.37920  -0.37381  -0.37226  -0.35863
 Alpha virt. eigenvalues --    0.04408   0.04839   0.10260   0.11822   0.15962
 Alpha virt. eigenvalues --    0.16327   0.21111   0.21521   0.27019   0.27085
 Alpha virt. eigenvalues --    0.27863   0.28589   0.30819   0.30999   0.32089

 Mulliken charges:
               1
     1  C   -0.168865
     2  C   -0.219899
     3  C   -0.172355
     4  C    0.149169
     5  C   -0.166099
     6  C   -0.219596
     7  H    0.231567
     8  H    0.226149
     9  H    0.275852
    10  H    0.274118
    11  H    0.227170
    12  N    0.487179
    13  O   -0.467898
    14  O   -0.456984
    15  C   -0.176198
    16  C   -0.221340
    17  C   -0.169410
    18  C    0.154428
    19  C   -0.173798
    20  C   -0.221563
    21  H    0.240004
    22  H    0.229132
    23  H    0.274934
    24  H    0.274782
    25  H    0.224773
    26  N    0.487620
    27  O   -0.460885
    28  O   -0.461987
 Sum of Mulliken charges =  -0.00000

 Dipole moment (field-independent basis, Debye):
    X=             -1.0520    Y=              0.4803    Z=              1.7572  Tot=              2.1036
 Quadrupole moment (field-independent basis, Debye-Ang):
   XX=           -131.2430   YY=            -99.5436   ZZ=           -101.1317
   XY=            -26.0688   XZ=              3.5601   YZ=             -1.2096

 Normal termination of Gaussian 16 at Thu May  6 14:36:14 2021.
