 Gaussian 16, Revision A.03,
 Gaussian 16:  EM64L-G16RevA.03 25-Dec-2016

 -------------
 #p 6-31g* mp2
 -------------

 ------------------------------------------------------
 Input file generated by CHIRIPA (05-May-2021 14:57:24)
 ------------------------------------------------------
 Symbolic Z-matrix:
 Charge =  0 Multiplicity = 1

                         Standard orientation:
 ---------------------------------------------------------------------
 Center     Atomic      Atomic             Coordinates (Angstroms)
 Number     Number       Type             X           Y           Z
 ---------------------------------------------------------------------
      1          6           0        4.272106   -0.076359   -1.537675
      2          6           0        4.017025   -1.262629   -0.841817
      3          6           0        3.069974   -1.293179    0.186147
      4          6           0        2.393330   -0.113746    0.493357
      5          6           0        2.625179    1.083767   -0.181550
      6          6           0        3.576595    1.090995   -1.205906
      7          1           0        5.009493   -0.061685   -2.334820
      8          1           0        4.555660   -2.170725   -1.097315
      9          1           0        2.852828   -2.197783    0.741086
     10          1           0        2.072346    1.973048    0.095888
     11          1           0        3.772632    2.013710   -1.744617
     12          7           0        1.388419   -0.133743    1.579707
     13          8           0        0.805715    0.918809    1.831156
     14          8           0        1.202502   -1.201590    2.159167
     15          6           0       -3.138730   -2.325619   -0.623096
     16          6           0       -3.085012   -1.776314    0.662166
     17          6           0       -2.764827   -0.427779    0.845145
     18          6           0       -2.502901    0.345960   -0.284462
     19          6           0       -2.548433   -0.172160   -1.577818
     20          6           0       -2.870742   -1.523203   -1.737022
     21          1           0       -3.388282   -3.374168   -0.756004
     22          1           0       -3.292666   -2.397102    1.529085
     23          1           0       -2.716192    0.023209    1.828843
     24          1           0       -2.336485    0.471746   -2.422733
     25          1           0       -2.911721   -1.947103   -2.736360
     26          7           0       -2.162810    1.774922   -0.103335
     27          8           0       -1.936231    2.435418   -1.114790
     28          8           0       -2.129269    2.207388    1.046659
 ---------------------------------------------------------------------

 SCF Done:  E(RHF) =  -868.338220297     A.U. after   16 cycles
 E2 =    -0.2600707225D+01 EUMP2 =    -0.87093892752131D+03

 The electronic state is 1-A.
 Alpha  occ. eigenvalues --  -20.60638 -20.60564 -20.60011 -20.59861 -15.85627
 Alpha  occ. eigenvalues --  -15.84976 -11.30981 -11.30410 -11.27603 -11.27476
 Alpha  occ. eigenvalues --  -11.27321 -11.27085 -11.26886 -11.26807 -11.26613
 Alpha  occ. eigenvalues --  -11.26524 -11.26120 -11.25969  -1.59685  -1.59000
 Alpha  occ. eigenvalues --   -1.39231  -1.38547  -1.19163  -1.18607  -1.08571
 Alpha  occ. eigenvalues --   -1.07999  -1.04555  -1.04011  -0.95400  -0.94817
 Alpha  occ. eigenvalues --   -0.85958  -0.85410  -0.82221  -0.81643  -0.77268
 Alpha  occ. eigenvalues --   -0.76665  -0.71866  -0.71210  -0.71065  -0.70285
 Alpha  occ. eigenvalues --   -0.70213  -0.69725  -0.64810  -0.64559  -0.64258
 Alpha  occ. eigenvalues --   -0.64026  -0.61890  -0.61346  -0.55077  -0.54549
 Alpha  occ. eigenvalues --   -0.52902  -0.52642  -0.52354  -0.52106  -0.48643
 Alpha  occ. eigenvalues --   -0.48608  -0.47997  -0.47938  -0.44741  -0.43806
 Alpha  occ. eigenvalues --   -0.37164  -0.36621  -0.36160  -0.35605
 Alpha virt. eigenvalues --    0.05227   0.05886   0.11488   0.12038   0.16727
 Alpha virt. eigenvalues --    0.17328   0.21636   0.22111   0.27565   0.28032
 Alpha virt. eigenvalues --    0.28540   0.29040   0.31158   0.31612   0.32847

 Mulliken charges:
               1
     1  C   -0.171184
     2  C   -0.219249
     3  C   -0.171644
     4  C    0.156710
     5  C   -0.171615
     6  C   -0.219003
     7  H    0.224760
     8  H    0.221474
     9  H    0.273042
    10  H    0.284411
    11  H    0.225697
    12  N    0.486651
    13  O   -0.452611
    14  O   -0.467214
    15  C   -0.171907
    16  C   -0.216991
    17  C   -0.163442
    18  C    0.154619
    19  C   -0.173649
    20  C   -0.219805
    21  H    0.222470
    22  H    0.224716
    23  H    0.284195
    24  H    0.271204
    25  H    0.218891
    26  N    0.488717
    27  O   -0.472217
    28  O   -0.447026
 Sum of Mulliken charges =  -0.00000

 Dipole moment (field-independent basis, Debye):
    X=              2.3665    Y=             -4.7486    Z=             -4.1330  Tot=              6.7254
 Quadrupole moment (field-independent basis, Debye-Ang):
   XX=            -83.5474   YY=           -104.3848   ZZ=           -104.0902
   XY=             11.4076   XZ=             -6.9123   YZ=              0.5090

 Normal termination of Gaussian 16 at Fri May  7 00:21:21 2021.
