 Gaussian 16, Revision A.03,
 Gaussian 16:  EM64L-G16RevA.03 25-Dec-2016

 -------------
 #p 6-31g* mp2
 -------------

 ------------------------------------------------------
 Input file generated by CHIRIPA (05-May-2021 14:55:20)
 ------------------------------------------------------
 Symbolic Z-matrix:
 Charge =  0 Multiplicity = 1

                         Standard orientation:
 ---------------------------------------------------------------------
 Center     Atomic      Atomic             Coordinates (Angstroms)
 Number     Number       Type             X           Y           Z
 ---------------------------------------------------------------------
      1          6           0        0.331840   -1.025318    0.049103
      2          6           0        0.804667   -0.120064    1.004860
      3          6           0        2.151562    0.254219    1.023131
      4          6           0        3.001664   -0.298666    0.066607
      5          6           0        2.560755   -1.202927   -0.898380
      6          6           0        1.209845   -1.562912   -0.897798
      7          1           0       -0.716020   -1.310516    0.042232
      8          1           0        0.125079    0.299035    1.741447
      9          1           0        2.544240    0.952975    1.751801
     10          1           0        3.262252   -1.603880   -1.619877
     11          1           0        0.845433   -2.266160   -1.641230
     12          7           0        4.429686    0.090003    0.075970
     13          8           0        5.158323   -0.411295   -0.777509
     14          8           0        4.793295    0.888579    0.936611
     15          6           0       -3.533577   -0.296513   -0.015713
     16          6           0       -4.918655   -0.897017    0.227055
     17          6           0       -4.887692   -2.419889    0.360080
     18          1           0       -3.104445   -0.736880   -0.926134
     19          1           0       -2.868598   -0.579764    0.811915
     20          1           0       -5.581201   -0.611565   -0.600088
     21          1           0       -5.344620   -0.455027    1.136900
     22          1           0       -4.249033   -2.720587    1.196918
     23          1           0       -4.486960   -2.878015   -0.549939
     24          1           0       -5.888288   -2.828191    0.533160
     25          6           0       -3.548172    1.225083   -0.150851
     26          6           0       -2.163094    1.825587   -0.393620
     27          6           0       -2.194057    3.348459   -0.526644
     28          1           0       -4.213151    1.508334   -0.978479
     29          1           0       -3.977304    1.665451    0.759570
     30          1           0       -1.737129    1.383597   -1.303464
     31          1           0       -1.500548    1.540135    0.433524
     32          1           0       -2.594789    3.806585    0.383375
     33          1           0       -2.832716    3.649158   -1.363482
     34          1           0       -1.193461    3.756761   -0.699724
 ---------------------------------------------------------------------

 SCF Done:  E(RHF) =  -669.533985760     A.U. after   15 cycles
 E2 =    -0.2093766895D+01 EUMP2 =    -0.67162775265555D+03

 The electronic state is 1-A.
 Alpha  occ. eigenvalues --  -20.60696 -20.60691 -15.85751 -11.31089 -11.27673
 Alpha  occ. eigenvalues --  -11.27669 -11.27300 -11.26656 -11.26645 -11.22716
 Alpha  occ. eigenvalues --  -11.22591 -11.22439 -11.22335 -11.22017 -11.21712
 Alpha  occ. eigenvalues --   -1.59773  -1.39328  -1.19266  -1.09495  -1.08648
 Alpha  occ. eigenvalues --   -1.04682  -1.04435  -0.96908  -0.95495  -0.87914
 Alpha  occ. eigenvalues --   -0.86081  -0.82344  -0.80531  -0.79380  -0.77390
 Alpha  occ. eigenvalues --   -0.71970  -0.71098  -0.70345  -0.66148  -0.64910
 Alpha  occ. eigenvalues --   -0.64688  -0.62104  -0.61763  -0.60268  -0.58554
 Alpha  occ. eigenvalues --   -0.56208  -0.55173  -0.53543  -0.53311  -0.52986
 Alpha  occ. eigenvalues --   -0.52779  -0.50837  -0.48859  -0.48726  -0.48690
 Alpha  occ. eigenvalues --   -0.47560  -0.46792  -0.46776  -0.44742  -0.44737
 Alpha  occ. eigenvalues --   -0.37170  -0.36263
 Alpha virt. eigenvalues --    0.05138   0.11261   0.16558   0.19775   0.22663
 Alpha virt. eigenvalues --    0.23208   0.24698   0.25854   0.27061   0.27748
 Alpha virt. eigenvalues --    0.29902   0.30302   0.30851   0.31439   0.31565

 Mulliken charges:
               1
     1  C   -0.171898
     2  C   -0.220424
     3  C   -0.172330
     4  C    0.157707
     5  C   -0.170355
     6  C   -0.222055
     7  H    0.237386
     8  H    0.221590
     9  H    0.275074
    10  H    0.275112
    11  H    0.222966
    12  N    0.488089
    13  O   -0.460809
    14  O   -0.460851
    15  C   -0.304567
    16  C   -0.298736
    17  C   -0.477479
    18  H    0.147772
    19  H    0.141331
    20  H    0.156127
    21  H    0.155254
    22  H    0.154043
    23  H    0.154242
    24  H    0.165184
    25  C   -0.297938
    26  C   -0.302798
    27  C   -0.476670
    28  H    0.153749
    29  H    0.151882
    30  H    0.154306
    31  H    0.147542
    32  H    0.155576
    33  H    0.157423
    34  H    0.164555
 Sum of Mulliken charges =  -0.00000

 Dipole moment (field-independent basis, Debye):
    X=             -5.2876    Y=             -1.2852    Z=             -0.0951  Tot=              5.4424
 Quadrupole moment (field-independent basis, Debye-Ang):
   XX=           -124.6536   YY=            -93.5659   ZZ=            -91.0011
   XY=             -3.3759   XZ=             -0.9531   YZ=              2.7715

 Normal termination of Gaussian 16 at Wed May  5 15:53:52 2021.
