 Gaussian 16, Revision A.03,
 Gaussian 16:  EM64L-G16RevA.03 25-Dec-2016

 -------------
 #p 6-31g* mp2
 -------------

 ------------------------------------------------------
 Input file generated by CHIRIPA (05-May-2021 14:53:12)
 ------------------------------------------------------
 Symbolic Z-matrix:
 Charge =  0 Multiplicity = 1

                         Standard orientation:
 ---------------------------------------------------------------------
 Center     Atomic      Atomic             Coordinates (Angstroms)
 Number     Number       Type             X           Y           Z
 ---------------------------------------------------------------------
      1          6           0       -3.509350    1.208956   -0.060222
      2          6           0       -2.348961    2.094871   -0.514795
      3          6           0       -2.692840    3.584240   -0.478452
      4          1           0       -4.381491    1.401082   -0.700068
      5          1           0       -3.801320    1.494016    0.960018
      6          1           0       -2.058358    1.807298   -1.533357
      7          1           0       -1.479422    1.900475    0.126086
      8          1           0       -2.962267    3.892740    0.536850
      9          1           0       -3.544492    3.799033   -1.132022
     10          1           0       -1.849283    4.199175   -0.807276
     11          6           0       -3.180916   -0.282657   -0.091051
     12          6           0       -4.341306   -1.168571    0.363522
     13          6           0       -3.997427   -2.657940    0.327179
     14          1           0       -2.888947   -0.567716   -1.111291
     15          1           0       -2.308775   -0.474782    0.548795
     16          1           0       -5.210845   -0.974175   -0.277359
     17          1           0       -4.631909   -0.880998    1.382084
     18          1           0       -3.145775   -2.872734    0.980749
     19          1           0       -3.728000   -2.966440   -0.688123
     20          1           0       -4.840984   -3.272876    0.656002
     21          6           0        4.286562    1.505445    0.341343
     22          6           0        4.636884    0.353243   -0.370154
     23          6           0        3.717873   -0.687673   -0.532819
     24          6           0        2.451629   -0.542357    0.031804
     25          6           0        2.072678    0.593186    0.746106
     26          6           0        3.007832    1.621534    0.896224
     27          1           0        5.006741    2.309172    0.462831
     28          1           0        5.629242    0.260344   -0.802171
     29          1           0        3.962683   -1.590632   -1.078852
     30          1           0        1.075857    0.656893    1.165281
     31          1           0        2.733000    2.515200    1.449283
     32          7           0        1.470168   -1.637677   -0.133760
     33          8           0        0.361013   -1.485256    0.373367
     34          8           0        1.828640   -2.627869   -0.767523
 ---------------------------------------------------------------------

 SCF Done:  E(RHF) =  -669.535900279     A.U. after   15 cycles
 E2 =    -0.2091640570D+01 EUMP2 =    -0.67162754084869D+03

 The electronic state is 1-A.
 Alpha  occ. eigenvalues --  -20.60888 -20.60882 -15.85929 -11.31263 -11.27834
 Alpha  occ. eigenvalues --  -11.27825 -11.27566 -11.26840 -11.26831 -11.21337
 Alpha  occ. eigenvalues --  -11.20954 -11.20799 -11.20664 -11.20261 -11.19930
 Alpha  occ. eigenvalues --   -1.59951  -1.39508  -1.19433  -1.08834  -1.07721
 Alpha  occ. eigenvalues --   -1.04832  -1.02873  -0.95676  -0.95297  -0.86315
 Alpha  occ. eigenvalues --   -0.86230  -0.82513  -0.78991  -0.77630  -0.77353
 Alpha  occ. eigenvalues --   -0.72154  -0.71266  -0.70544  -0.65092  -0.64839
 Alpha  occ. eigenvalues --   -0.64361  -0.62183  -0.60281  -0.58729  -0.56889
 Alpha  occ. eigenvalues --   -0.55336  -0.54580  -0.53161  -0.52927  -0.52059
 Alpha  occ. eigenvalues --   -0.51691  -0.49242  -0.48912  -0.48897  -0.47281
 Alpha  occ. eigenvalues --   -0.46053  -0.45159  -0.44906  -0.44653  -0.43090
 Alpha  occ. eigenvalues --   -0.37410  -0.36432
 Alpha virt. eigenvalues --    0.04956   0.11198   0.16457   0.20560   0.23169
 Alpha virt. eigenvalues --    0.24849   0.25458   0.27538   0.27706   0.28643
 Alpha virt. eigenvalues --    0.29387   0.31196   0.31656   0.32165   0.32331

 Mulliken charges:
               1
     1  C   -0.298218
     2  C   -0.297261
     3  C   -0.475304
     4  H    0.147492
     5  H    0.145952
     6  H    0.153508
     7  H    0.144505
     8  H    0.153375
     9  H    0.156361
    10  H    0.155838
    11  C   -0.304281
    12  C   -0.299612
    13  C   -0.475312
    14  H    0.150474
    15  H    0.170164
    16  H    0.147016
    17  H    0.147316
    18  H    0.164826
    19  H    0.156752
    20  H    0.154124
    21  C   -0.170632
    22  C   -0.218536
    23  C   -0.170752
    24  C    0.157798
    25  C   -0.171771
    26  C   -0.218843
    27  H    0.225909
    28  H    0.223714
    29  H    0.275759
    30  H    0.277217
    31  H    0.223872
    32  N    0.493632
    33  O   -0.465620
    34  O   -0.459461
 Sum of Mulliken charges =  -0.00000

 Dipole moment (field-independent basis, Debye):
    X=              3.6611    Y=              3.6905    Z=              0.5701  Tot=              5.2296
 Quadrupole moment (field-independent basis, Debye-Ang):
   XX=            -76.6171   YY=            -99.6677   ZZ=            -93.0884
   XY=              6.0774   XZ=             -0.1071   YZ=              1.5372

 Normal termination of Gaussian 16 at Wed May  5 23:22:38 2021.
