 Gaussian 16, Revision A.03,
 Gaussian 16:  EM64L-G16RevA.03 25-Dec-2016

 -------------
 #p 6-31g* mp2
 -------------

 ------------------------------------------------------
 Input file generated by CHIRIPA (05-May-2021 14:53:17)
 ------------------------------------------------------
 Symbolic Z-matrix:
 Charge =  0 Multiplicity = 1

                         Standard orientation:
 ---------------------------------------------------------------------
 Center     Atomic      Atomic             Coordinates (Angstroms)
 Number     Number       Type             X           Y           Z
 ---------------------------------------------------------------------
      1          6           0        2.762963   -0.314151   -0.732766
      2          6           0        2.714880   -1.752365   -0.215837
      3          6           0        3.136415   -2.774524   -1.271911
      4          1           0        2.110445   -0.225312   -1.612125
      5          1           0        3.782282   -0.089120   -1.075903
      6          1           0        1.696284   -1.974166    0.127505
      7          1           0        3.367439   -1.837743    0.662510
      8          1           0        4.160286   -2.581297   -1.607996
      9          1           0        2.479635   -2.718495   -2.146041
     10          1           0        3.094697   -3.795999   -0.881133
     11          6           0        2.344288    0.719257    0.311507
     12          6           0        2.392371    2.157471   -0.205421
     13          6           0        1.970836    3.179630    0.850653
     14          1           0        1.324968    0.494226    0.654645
     15          1           0        2.996805    0.630419    1.190867
     16          1           0        1.739811    2.242849   -1.083768
     17          1           0        3.410966    2.379272   -0.548763
     18          1           0        2.627615    3.123601    1.724783
     19          1           0        0.946965    2.986403    1.186738
     20          1           0        2.012553    4.201105    0.459875
     21          6           0       -1.235455   -1.335994    2.262622
     22          6           0       -1.024039    0.038906    2.116083
     23          6           0       -1.440720    0.701866    0.957890
     24          6           0       -2.068452   -0.044384   -0.038279
     25          6           0       -2.293383   -1.415200    0.078166
     26          6           0       -1.868336   -2.057388    1.244990
     27          1           0       -0.908518   -1.842929    3.165687
     28          1           0       -0.532796    0.601694    2.904750
     29          1           0       -1.289660    1.765413    0.818365
     30          1           0       -2.785829   -1.949406   -0.725287
     31          1           0       -2.033846   -3.125242    1.356062
     32          7           0       -2.514001    0.646466   -1.268975
     33          8           0       -3.064711   -0.033614   -2.132020
     34          8           0       -2.304077    1.854954   -1.347246
 ---------------------------------------------------------------------

 SCF Done:  E(RHF) =  -669.534305935     A.U. after   15 cycles
 E2 =    -0.2094926374D+01 EUMP2 =    -0.67162923230804D+03

 The electronic state is 1-A.
 Alpha  occ. eigenvalues --  -20.60886 -20.60881 -15.85939 -11.31328 -11.27896
 Alpha  occ. eigenvalues --  -11.27874 -11.27634 -11.26929 -11.26880 -11.21723
 Alpha  occ. eigenvalues --  -11.21651 -11.21425 -11.21417 -11.21332 -11.21188
 Alpha  occ. eigenvalues --   -1.59961  -1.39513  -1.19519  -1.08895  -1.08518
 Alpha  occ. eigenvalues --   -1.04932  -1.03669  -0.96132  -0.95726  -0.87153
 Alpha  occ. eigenvalues --   -0.86304  -0.82563  -0.79727  -0.78354  -0.77589
 Alpha  occ. eigenvalues --   -0.72155  -0.71288  -0.70609  -0.65248  -0.65107
 Alpha  occ. eigenvalues --   -0.64893  -0.62296  -0.61039  -0.59489  -0.57749
 Alpha  occ. eigenvalues --   -0.55530  -0.55348  -0.53340  -0.53000  -0.52815
 Alpha  occ. eigenvalues --   -0.52534  -0.50092  -0.48916  -0.48910  -0.48059
 Alpha  occ. eigenvalues --   -0.46763  -0.45867  -0.45763  -0.44907  -0.43888
 Alpha  occ. eigenvalues --   -0.37482  -0.36362
 Alpha virt. eigenvalues --    0.04905   0.11063   0.16337   0.20099   0.22950
 Alpha virt. eigenvalues --    0.23740   0.25876   0.26881   0.27540   0.27941
 Alpha virt. eigenvalues --    0.29019   0.30392   0.31381   0.31594   0.31935

 Mulliken charges:
               1
     1  C   -0.297569
     2  C   -0.301622
     3  C   -0.475791
     4  H    0.152795
     5  H    0.149642
     6  H    0.151669
     7  H    0.148915
     8  H    0.156034
     9  H    0.157335
    10  H    0.157726
    11  C   -0.309619
    12  C   -0.301836
    13  C   -0.474703
    14  H    0.159200
    15  H    0.144356
    16  H    0.160444
    17  H    0.153000
    18  H    0.153538
    19  H    0.143116
    20  H    0.165814
    21  C   -0.169717
    22  C   -0.218963
    23  C   -0.178265
    24  C    0.161711
    25  C   -0.171152
    26  C   -0.218856
    27  H    0.226969
    28  H    0.226381
    29  H    0.280876
    30  H    0.276237
    31  H    0.224561
    32  N    0.487839
    33  O   -0.459869
    34  O   -0.460197
 Sum of Mulliken charges =  -0.00000

 Dipole moment (field-independent basis, Debye):
    X=              1.4610    Y=             -2.4307    Z=              4.2806  Tot=              5.1348
 Quadrupole moment (field-independent basis, Debye-Ang):
   XX=           -100.7043   YY=            -91.6584   ZZ=            -95.2161
   XY=              7.3099   XZ=             -8.1610   YZ=              0.8715

 Normal termination of Gaussian 16 at Wed May  5 15:44:29 2021.
