 Gaussian 16, Revision A.03,
 Gaussian 16:  EM64L-G16RevA.03 25-Dec-2016

 -------------
 #p 6-31g* mp2
 -------------

 ------------------------------------------------------
 Input file generated by CHIRIPA (05-May-2021 14:55:19)
 ------------------------------------------------------
 Symbolic Z-matrix:
 Charge =  0 Multiplicity = 1

                         Standard orientation:
 ---------------------------------------------------------------------
 Center     Atomic      Atomic             Coordinates (Angstroms)
 Number     Number       Type             X           Y           Z
 ---------------------------------------------------------------------
      1          6           0        2.716821    2.060821    0.947357
      2          6           0        3.603124    1.431773    0.066852
      3          6           0        3.342400    0.140341   -0.400880
      4          6           0        2.180739   -0.495601    0.034334
      5          6           0        1.278304    0.104630    0.911045
      6          6           0        1.559280    1.396413    1.365905
      7          1           0        2.927224    3.064173    1.305702
      8          1           0        4.502860    1.945354   -0.259881
      9          1           0        4.011437   -0.370033   -1.083028
     10          1           0        0.389564   -0.432695    1.219009
     11          1           0        0.869173    1.882488    2.049664
     12          7           0        1.894002   -1.862969   -0.454020
     13          8           0        0.863686   -2.401822   -0.055618
     14          8           0        2.705002   -2.369966   -1.225945
     15          6           0       -2.539872    0.850625   -0.627983
     16          6           0       -2.701931    2.301558   -0.173544
     17          6           0       -2.072679    3.299456   -1.146188
     18          1           0       -1.470629    0.626814   -0.744489
     19          1           0       -2.994113    0.731959   -1.621452
     20          1           0       -2.248740    2.417127    0.819369
     21          1           0       -3.770905    2.521883   -0.057923
     22          1           0       -2.531014    3.213292   -2.136696
     23          1           0       -1.000200    3.107942   -1.254420
     24          1           0       -2.200141    4.330518   -0.801916
     25          6           0       -3.163800   -0.158804    0.334043
     26          6           0       -3.001739   -1.609737   -0.120395
     27          6           0       -3.630993   -2.607634    0.852248
     28          1           0       -2.709559   -0.040137    1.327511
     29          1           0       -4.233043    0.065006    0.450550
     30          1           0       -1.932766   -1.830061   -0.236017
     31          1           0       -3.454931   -1.725306   -1.113308
     32          1           0       -4.703471   -2.416120    0.960479
     33          1           0       -3.172657   -2.521471    1.842755
     34          1           0       -3.503531   -3.638696    0.507976
 ---------------------------------------------------------------------

 SCF Done:  E(RHF) =  -669.536279821     A.U. after   15 cycles
 E2 =    -0.2093065991D+01 EUMP2 =    -0.67162934581162D+03

 The electronic state is 1-A.
 Alpha  occ. eigenvalues --  -20.60987 -20.60974 -15.86014 -11.31340 -11.27907
 Alpha  occ. eigenvalues --  -11.27894 -11.27630 -11.26914 -11.26897 -11.21846
 Alpha  occ. eigenvalues --  -11.21394 -11.21312 -11.21278 -11.20945 -11.20533
 Alpha  occ. eigenvalues --   -1.60041  -1.39598  -1.19509  -1.08907  -1.08355
 Alpha  occ. eigenvalues --   -1.04904  -1.03372  -0.95856  -0.95749  -0.86876
 Alpha  occ. eigenvalues --   -0.86301  -0.82584  -0.79472  -0.78119  -0.77626
 Alpha  occ. eigenvalues --   -0.72239  -0.71352  -0.70612  -0.65163  -0.65074
 Alpha  occ. eigenvalues --   -0.64851  -0.62231  -0.60769  -0.59249  -0.57431
 Alpha  occ. eigenvalues --   -0.55409  -0.55154  -0.53230  -0.52986  -0.52535
 Alpha  occ. eigenvalues --   -0.52266  -0.49833  -0.49011  -0.48988  -0.47768
 Alpha  occ. eigenvalues --   -0.46521  -0.45687  -0.45630  -0.44838  -0.43650
 Alpha  occ. eigenvalues --   -0.37478  -0.36483
 Alpha virt. eigenvalues --    0.04833   0.11069   0.16289   0.19543   0.22996
 Alpha virt. eigenvalues --    0.23874   0.25776   0.26950   0.27886   0.28137
 Alpha virt. eigenvalues --    0.29735   0.30198   0.31629   0.31802   0.32226

 Mulliken charges:
               1
     1  C   -0.170605
     2  C   -0.218368
     3  C   -0.170509
     4  C    0.157368
     5  C   -0.171989
     6  C   -0.219973
     7  H    0.226597
     8  H    0.224189
     9  H    0.276062
    10  H    0.279112
    11  H    0.225120
    12  N    0.490691
    13  O   -0.462743
    14  O   -0.458371
    15  C   -0.301590
    16  C   -0.297137
    17  C   -0.476643
    18  H    0.150027
    19  H    0.152543
    20  H    0.142259
    21  H    0.153662
    22  H    0.157735
    23  H    0.154902
    24  H    0.158059
    25  C   -0.297770
    26  C   -0.313537
    27  C   -0.473766
    28  H    0.139253
    29  H    0.149456
    30  H    0.177324
    31  H    0.150861
    32  H    0.150785
    33  H    0.151990
    34  H    0.165006
 Sum of Mulliken charges =  -0.00000

 Dipole moment (field-independent basis, Debye):
    X=              1.1896    Y=              4.6790    Z=              1.6046  Tot=              5.0875
 Quadrupole moment (field-independent basis, Debye-Ang):
   XX=            -86.4968   YY=           -100.7983   ZZ=            -93.9463
   XY=             10.0555   XZ=              2.2405   YZ=             -0.1340

 Normal termination of Gaussian 16 at Thu May  6 14:03:33 2021.
