 Gaussian 16, Revision A.03,
 Gaussian 16:  EM64L-G16RevA.03 25-Dec-2016

 -------------
 #p 6-31g* mp2
 -------------

 ------------------------------------------------------
 Input file generated by CHIRIPA (05-May-2021 14:57:27)
 ------------------------------------------------------
 Symbolic Z-matrix:
 Charge =  0 Multiplicity = 1

                         Standard orientation:
 ---------------------------------------------------------------------
 Center     Atomic      Atomic             Coordinates (Angstroms)
 Number     Number       Type             X           Y           Z
 ---------------------------------------------------------------------
      1          6           0       -4.742132   -0.210735   -1.725114
      2          6           0       -5.094209    0.545204   -0.602118
      3          6           0       -4.229985    0.634321    0.493200
      4          6           0       -3.016142   -0.048369    0.431476
      5          6           0       -2.636912   -0.809572   -0.673080
      6          6           0       -3.516768   -0.884522   -1.756955
      7          1           0       -5.419554   -0.274461   -2.571539
      8          1           0       -6.045194    1.069528   -0.574616
      9          1           0       -4.477451    1.212446    1.375215
     10          1           0       -1.682084   -1.321154   -0.671259
     11          1           0       -3.240709   -1.472337   -2.627765
     12          7           0       -2.092952    0.038477    1.584984
     13          8           0       -1.029329   -0.572336    1.505921
     14          8           0       -2.450460    0.715715    2.546323
     15          6           0        3.305037   -2.430433    0.121408
     16          6           0        4.437341   -1.631974    0.313432
     17          6           0        4.373170   -0.249518    0.115325
     18          6           0        3.155075    0.303707   -0.276435
     19          6           0        2.009495   -0.465178   -0.475818
     20          6           0        2.096859   -1.845518   -0.271911
     21          1           0        3.363895   -3.503536    0.277555
     22          1           0        5.376956   -2.083494    0.618879
     23          1           0        5.234375    0.392129    0.256870
     24          1           0        1.086832    0.013709   -0.780411
     25          1           0        1.215884   -2.463148   -0.421785
     26          7           0        3.074864    1.766131   -0.489233
     27          8           0        1.989908    2.229217   -0.834284
     28          8           0        4.098468    2.421601   -0.306943
 ---------------------------------------------------------------------

 SCF Done:  E(RHF) =  -868.337945597     A.U. after   16 cycles
 E2 =    -0.2600092153D+01 EUMP2 =    -0.87093803775012D+03

 The electronic state is 1-A.
 Alpha  occ. eigenvalues --  -20.61170 -20.61116 -20.60191 -20.60185 -15.86182
 Alpha  occ. eigenvalues --  -15.85244 -11.31531 -11.30507 -11.28193 -11.28021
 Alpha  occ. eigenvalues --  -11.27776 -11.27124 -11.27116 -11.27078 -11.27040
 Alpha  occ. eigenvalues --  -11.26867 -11.26126 -11.26109  -1.60197  -1.59263
 Alpha  occ. eigenvalues --   -1.39763  -1.38822  -1.19681  -1.18692  -1.09070
 Alpha  occ. eigenvalues --   -1.08116  -1.05093  -1.04091  -0.95921  -0.94963
 Alpha  occ. eigenvalues --   -0.86492  -0.85508  -0.82766  -0.81806  -0.77840
 Alpha  occ. eigenvalues --   -0.76849  -0.72410  -0.71515  -0.71462  -0.70801
 Alpha  occ. eigenvalues --   -0.70575  -0.69833  -0.65343  -0.65100  -0.64364
 Alpha  occ. eigenvalues --   -0.64134  -0.62478  -0.61445  -0.55572  -0.54639
 Alpha  occ. eigenvalues --   -0.53395  -0.53192  -0.52400  -0.52221  -0.49179
 Alpha  occ. eigenvalues --   -0.49141  -0.48225  -0.48221  -0.45165  -0.44249
 Alpha  occ. eigenvalues --   -0.37628  -0.36685  -0.36679  -0.35639
 Alpha virt. eigenvalues --    0.04692   0.05712   0.10925   0.11993   0.16235
 Alpha virt. eigenvalues --    0.17185   0.19399   0.22106   0.25011   0.27422
 Alpha virt. eigenvalues --    0.28706   0.29127   0.30793   0.31370   0.32807

 Mulliken charges:
               1
     1  C   -0.170038
     2  C   -0.217532
     3  C   -0.169204
     4  C    0.161484
     5  C   -0.172111
     6  C   -0.217326
     7  H    0.227243
     8  H    0.225568
     9  H    0.277678
    10  H    0.265644
    11  H    0.223182
    12  N    0.490519
    13  O   -0.468782
    14  O   -0.454338
    15  C   -0.170753
    16  C   -0.218948
    17  C   -0.170814
    18  C    0.156979
    19  C   -0.157839
    20  C   -0.212426
    21  H    0.223175
    22  H    0.221062
    23  H    0.273743
    24  H    0.271602
    25  H    0.217721
    26  N    0.488867
    27  O   -0.461961
    28  O   -0.462394
 Sum of Mulliken charges =  -0.00000

 Dipole moment (field-independent basis, Debye):
    X=             -3.3010    Y=             -5.3389    Z=             -3.1973  Tot=              7.0444
 Quadrupole moment (field-independent basis, Debye-Ang):
   XX=            -76.4335   YY=           -107.6145   ZZ=           -108.5094
   XY=            -17.2930   XZ=             13.1013   YZ=              3.5474

 Normal termination of Gaussian 16 at Fri May  7 06:39:40 2021.
