 Gaussian 16, Revision A.03,
 Gaussian 16:  EM64L-G16RevA.03 25-Dec-2016

 -------------
 #p 6-31g* mp2
 -------------

 ------------------------------------------------------
 Input file generated by CHIRIPA (05-May-2021 14:57:27)
 ------------------------------------------------------
 Symbolic Z-matrix:
 Charge =  0 Multiplicity = 1

                         Standard orientation:
 ---------------------------------------------------------------------
 Center     Atomic      Atomic             Coordinates (Angstroms)
 Number     Number       Type             X           Y           Z
 ---------------------------------------------------------------------
      1          6           0       -1.384133    2.346472   -0.226595
      2          6           0       -1.972838    1.735610   -1.338708
      3          6           0       -2.636148    0.511850   -1.208406
      4          6           0       -2.691935   -0.075702    0.054512
      5          6           0       -2.115326    0.508004    1.181499
      6          6           0       -1.457127    1.731803    1.027748
      7          1           0       -0.870843    3.297133   -0.336924
      8          1           0       -1.917717    2.210671   -2.314066
      9          1           0       -3.100668    0.016961   -2.052636
     10          1           0       -2.186782    0.010213    2.140934
     11          1           0       -1.000849    2.203902    1.893183
     12          7           0       -3.391446   -1.371262    0.204868
     13          8           0       -3.426657   -1.868442    1.328349
     14          8           0       -3.891266   -1.865011   -0.803610
     15          6           0        2.078354    2.315644    0.283531
     16          6           0        2.381405    1.515999    1.390441
     17          6           0        2.659134    0.155391    1.228697
     18          6           0        2.624820   -0.375014   -0.060016
     19          6           0        2.326259    0.395663   -1.182605
     20          6           0        2.051795    1.753914   -0.997202
     21          1           0        1.863876    3.371680    0.418366
     22          1           0        2.402757    1.949540    2.386248
     23          1           0        2.896725   -0.486632    2.068207
     24          1           0        2.312627   -0.065026   -2.162909
     25          1           0        1.816755    2.372521   -1.858669
     26          7           0        2.917111   -1.814181   -0.243770
     27          8           0        2.880418   -2.257396   -1.389567
     28          8           0        3.177366   -2.471734    0.761480
 ---------------------------------------------------------------------

 SCF Done:  E(RHF) =  -868.334300124     A.U. after   16 cycles
 E2 =    -0.2604083663D+01 EUMP2 =    -0.87093838378624D+03

 The electronic state is 1-A.
 Alpha  occ. eigenvalues --  -20.61063 -20.61058 -20.60855 -20.60850 -15.86126
 Alpha  occ. eigenvalues --  -15.85918 -11.31706 -11.31428 -11.28311 -11.28300
 Alpha  occ. eigenvalues --  -11.28194 -11.28045 -11.28039 -11.27933 -11.27420
 Alpha  occ. eigenvalues --  -11.27410 -11.27129 -11.27120  -1.60133  -1.59927
 Alpha  occ. eigenvalues --   -1.39681  -1.39477  -1.19927  -1.19642  -1.09342
 Alpha  occ. eigenvalues --   -1.09010  -1.05361  -1.05080  -0.96126  -0.95822
 Alpha  occ. eigenvalues --   -0.86783  -0.86487  -0.82932  -0.82669  -0.77908
 Alpha  occ. eigenvalues --   -0.77668  -0.72345  -0.72139  -0.71457  -0.71252
 Alpha  occ. eigenvalues --   -0.71243  -0.70729  -0.65593  -0.65435  -0.65317
 Alpha  occ. eigenvalues --   -0.65100  -0.62711  -0.62433  -0.56034  -0.55615
 Alpha  occ. eigenvalues --   -0.54183  -0.53481  -0.53210  -0.52886  -0.49120
 Alpha  occ. eigenvalues --   -0.49082  -0.48908  -0.48879  -0.45039  -0.44851
 Alpha  occ. eigenvalues --   -0.38640  -0.37427  -0.36666  -0.36391
 Alpha virt. eigenvalues --    0.04431   0.05016   0.10270   0.11286   0.15904
 Alpha virt. eigenvalues --    0.16531   0.18880   0.22206   0.25355   0.25863
 Alpha virt. eigenvalues --    0.27812   0.29383   0.29776   0.31045   0.32488

 Mulliken charges:
               1
     1  C   -0.163694
     2  C   -0.221077
     3  C   -0.169597
     4  C    0.159035
     5  C   -0.170962
     6  C   -0.211284
     7  H    0.214105
     8  H    0.220337
     9  H    0.277220
    10  H    0.276401
    11  H    0.216522
    12  N    0.488347
    13  O   -0.458970
    14  O   -0.458822
    15  C   -0.173266
    16  C   -0.220042
    17  C   -0.169493
    18  C    0.160309
    19  C   -0.168315
    20  C   -0.212953
    21  H    0.218425
    22  H    0.221641
    23  H    0.278059
    24  H    0.277312
    25  H    0.218681
    26  N    0.488066
    27  O   -0.458186
    28  O   -0.457800
 Sum of Mulliken charges =  -0.00000

 Dipole moment (field-independent basis, Debye):
    X=              1.4774    Y=              9.3010    Z=              0.1006  Tot=              9.4181
 Quadrupole moment (field-independent basis, Debye-Ang):
   XX=           -124.4961   YY=           -111.2781   ZZ=            -95.3364
   XY=              1.0338   XZ=              5.2875   YZ=             -0.8485

 Normal termination of Gaussian 16 at Fri May  7 05:07:16 2021.
