 Gaussian 16, Revision A.03,
 Gaussian 16:  EM64L-G16RevA.03 25-Dec-2016

 -------------
 #p 6-31g* mp2
 -------------

 ------------------------------------------------------
 Input file generated by CHIRIPA (05-May-2021 14:51:10)
 ------------------------------------------------------
 Symbolic Z-matrix:
 Charge =  0 Multiplicity = 1

                         Standard orientation:
 ---------------------------------------------------------------------
 Center     Atomic      Atomic             Coordinates (Angstroms)
 Number     Number       Type             X           Y           Z
 ---------------------------------------------------------------------
      1          6           0       -2.374672   -0.469352    0.134236
      2          6           0       -1.658744   -1.374504    1.137297
      3          6           0       -0.135988   -1.282090    1.034974
      4          1           0       -2.057198   -0.736756   -0.882941
      5          1           0       -2.057682    0.569998    0.297531
      6          1           0       -1.978039   -2.411661    0.973065
      7          1           0       -1.978104   -1.105041    2.152193
      8          1           0        0.201053   -0.257034    1.220079
      9          1           0        0.201118   -1.571078    0.034251
     10          1           0        0.355656   -1.937181    1.760923
     11          6           0       -3.897501   -0.550676    0.224270
     12          6           0       -4.613429    0.354477   -0.778791
     13          6           0       -6.136184    0.262062   -0.676468
     14          1           0       -4.214491   -1.590025    0.060975
     15          1           0       -4.214975   -0.283271    1.241447
     16          1           0       -4.294069    0.085013   -1.793687
     17          1           0       -4.294134    1.391633   -0.614559
     18          1           0       -6.473291    0.551050    0.324255
     19          1           0       -6.473225   -0.762994   -0.861573
     20          1           0       -6.627829    0.917153   -1.402417
     21          6           0        3.044849    1.145559    0.234498
     22          6           0        2.012142    2.108274   -0.352598
     23          6           0        1.840813    3.375009    0.486343
     24          1           0        2.743964    0.873056    1.255358
     25          1           0        4.010511    1.662712    0.320786
     26          1           0        1.049056    1.589036   -0.439041
     27          1           0        2.315421    2.378366   -1.372249
     28          1           0        2.788547    3.917788    0.562436
     29          1           0        1.514987    3.123973    1.500946
     30          1           0        1.098002    4.049094    0.048506
     31          6           0        3.227324   -0.125532   -0.593004
     32          6           0        4.260030   -1.088246   -0.005908
     33          6           0        4.431361   -2.354981   -0.844849
     34          1           0        2.261662   -0.642685   -0.679292
     35          1           0        3.528208    0.146971   -1.613864
     36          1           0        3.956751   -1.358339    1.013743
     37          1           0        5.223116   -0.569008    0.080535
     38          1           0        4.757185   -2.103945   -1.859453
     39          1           0        3.483626   -2.897761   -0.920941
     40          1           0        5.174171   -3.029067   -0.407012
 ---------------------------------------------------------------------

 SCF Done:  E(RHF) =  -470.732602771     A.U. after   11 cycles
 E2 =    -0.1584061201D+01 EUMP2 =    -0.47231666397215D+03

 The electronic state is 1-A.
 Alpha  occ. eigenvalues --  -11.21690 -11.21637 -11.21529 -11.21501 -11.21474
 Alpha  occ. eigenvalues --  -11.21409 -11.21292 -11.21191 -11.21188 -11.21098
 Alpha  occ. eigenvalues --  -11.21053 -11.21008  -1.08504  -1.08331  -1.03605
 Alpha  occ. eigenvalues --   -1.03460  -0.96077  -0.95894  -0.87086  -0.86926
 Alpha  occ. eigenvalues --   -0.79687  -0.79519  -0.78335  -0.78119  -0.65143
 Alpha  occ. eigenvalues --   -0.64984  -0.61108  -0.60777  -0.59421  -0.59274
 Alpha  occ. eigenvalues --   -0.57695  -0.57500  -0.55356  -0.55217  -0.52750
 Alpha  occ. eigenvalues --   -0.52632  -0.52495  -0.52296  -0.50147  -0.49728
 Alpha  occ. eigenvalues --   -0.48050  -0.47845  -0.46755  -0.46502  -0.46016
 Alpha  occ. eigenvalues --   -0.45773  -0.45640  -0.45306  -0.43854  -0.43698
 Alpha virt. eigenvalues --    0.20532   0.22907   0.23502   0.24412   0.26011
 Alpha virt. eigenvalues --    0.26602   0.26835   0.27745   0.27996   0.29720
 Alpha virt. eigenvalues --    0.30396   0.30692   0.31773   0.31960   0.32237

 Mulliken charges:
               1
     1  C   -0.299342
     2  C   -0.300010
     3  C   -0.482141
     4  H    0.149816
     5  H    0.150095
     6  H    0.152317
     7  H    0.152204
     8  H    0.160716
     9  H    0.156955
    10  H    0.160663
    11  C   -0.298308
    12  C   -0.299757
    13  C   -0.475764
    14  H    0.149761
    15  H    0.149833
    16  H    0.152096
    17  H    0.152123
    18  H    0.155247
    19  H    0.155232
    20  H    0.160431
    21  C   -0.298913
    22  C   -0.303693
    23  C   -0.475707
    24  H    0.150074
    25  H    0.149310
    26  H    0.154969
    27  H    0.151997
    28  H    0.155423
    29  H    0.154144
    30  H    0.159939
    31  C   -0.304438
    32  C   -0.299412
    33  C   -0.475675
    34  H    0.158478
    35  H    0.148403
    36  H    0.152150
    37  H    0.151325
    38  H    0.154866
    39  H    0.154703
    40  H    0.159888
 Sum of Mulliken charges =  -0.00000

 Dipole moment (field-independent basis, Debye):
    X=             -0.0638    Y=             -0.0272    Z=              0.0096  Tot=              0.0700
 Quadrupole moment (field-independent basis, Debye-Ang):
   XX=            -85.7026   YY=            -85.0184   ZZ=            -84.2802
   XY=              0.6069   XZ=             -0.2997   YZ=             -0.2235

 Normal termination of Gaussian 16 at Wed May  5 21:26:39 2021.
