 Gaussian 16, Revision A.03,
 Gaussian 16:  EM64L-G16RevA.03 25-Dec-2016

 -------------
 #p 6-31g* mp2
 -------------

 ------------------------------------------------------
 Input file generated by CHIRIPA (05-May-2021 14:51:13)
 ------------------------------------------------------
 Symbolic Z-matrix:
 Charge =  0 Multiplicity = 1

                         Standard orientation:
 ---------------------------------------------------------------------
 Center     Atomic      Atomic             Coordinates (Angstroms)
 Number     Number       Type             X           Y           Z
 ---------------------------------------------------------------------
      1          6           0        3.361082   -0.482107   -0.531951
      2          6           0        4.022471   -1.623681    0.240938
      3          6           0        3.947856   -2.959643   -0.498948
      4          1           0        2.310168   -0.738341   -0.723967
      5          1           0        3.843825   -0.385708   -1.514326
      6          1           0        3.539544   -1.716997    1.222106
      7          1           0        5.071882   -1.364616    0.431304
      8          1           0        4.446667   -2.890037   -1.471030
      9          1           0        2.905623   -3.244420   -0.675735
     10          1           0        4.426644   -3.761722    0.071394
     11          6           0        3.427555    0.859925    0.194864
     12          6           0        2.766166    2.001499   -0.578026
     13          6           0        2.840781    3.337461    0.161861
     14          1           0        2.944811    0.763525    1.177239
     15          1           0        4.478468    1.116159    0.386880
     16          1           0        1.716755    1.742433   -0.768391
     17          1           0        3.249093    2.094815   -1.559193
     18          1           0        3.883014    3.622238    0.338647
     19          1           0        2.341969    3.267854    1.133943
     20          1           0        2.361992    4.139540   -0.408481
     21          6           0       -2.819257   -0.524655    0.542725
     22          6           0       -1.460807    0.124078    0.274876
     23          6           0       -0.320357   -0.558722    1.030489
     24          1           0       -3.024749   -0.498185    1.621621
     25          1           0       -2.773565   -1.585269    0.259169
     26          1           0       -1.509463    1.183483    0.557558
     27          1           0       -1.258613    0.096232   -0.803530
     28          1           0       -0.243058   -1.611907    0.741651
     29          1           0       -0.495335   -0.518480    2.110473
     30          1           0        0.641562   -0.078974    0.824544
     31          6           0       -3.969379    0.146837   -0.205638
     32          6           0       -5.327829   -0.501895    0.062212
     33          6           0       -6.468279    0.180905   -0.693401
     34          1           0       -4.015073    1.207451    0.077917
     35          1           0       -3.763889    0.120367   -1.284534
     36          1           0       -5.530024   -0.474050    1.140618
     37          1           0       -5.279175   -1.561301   -0.220471
     38          1           0       -6.293303    0.140662   -1.773385
     39          1           0       -6.545578    1.234089   -0.404564
     40          1           0       -7.430198   -0.298843   -0.487457
 ---------------------------------------------------------------------

 SCF Done:  E(RHF) =  -470.732546748     A.U. after   11 cycles
 E2 =    -0.1583993065D+01 EUMP2 =    -0.47231653981362D+03

 The electronic state is 1-A.
 Alpha  occ. eigenvalues --  -11.21675 -11.21626 -11.21607 -11.21556 -11.21447
 Alpha  occ. eigenvalues --  -11.21385 -11.21382 -11.21296 -11.21108 -11.21089
 Alpha  occ. eigenvalues --  -11.21074 -11.21041  -1.08492  -1.08408  -1.03581
 Alpha  occ. eigenvalues --   -1.03511  -0.96067  -0.95933  -0.87052  -0.86981
 Alpha  occ. eigenvalues --   -0.79663  -0.79559  -0.78287  -0.78229  -0.65206
 Alpha  occ. eigenvalues --   -0.65087  -0.61014  -0.60892  -0.59394  -0.59304
 Alpha  occ. eigenvalues --   -0.57645  -0.57564  -0.55354  -0.55240  -0.52709
 Alpha  occ. eigenvalues --   -0.52648  -0.52447  -0.52349  -0.50021  -0.49860
 Alpha  occ. eigenvalues --   -0.47959  -0.47892  -0.46689  -0.46602  -0.45831
 Alpha  occ. eigenvalues --   -0.45755  -0.45750  -0.45673  -0.43818  -0.43732
 Alpha virt. eigenvalues --    0.20428   0.23076   0.23811   0.24621   0.26372
 Alpha virt. eigenvalues --    0.26557   0.26941   0.27516   0.27716   0.29916
 Alpha virt. eigenvalues --    0.30380   0.31419   0.31644   0.31794   0.32262

 Mulliken charges:
               1
     1  C   -0.302510
     2  C   -0.299546
     3  C   -0.475721
     4  H    0.153973
     5  H    0.149597
     6  H    0.152825
     7  H    0.151733
     8  H    0.154942
     9  H    0.155115
    10  H    0.160144
    11  C   -0.302867
    12  C   -0.302641
    13  C   -0.475497
    14  H    0.150234
    15  H    0.151362
    16  H    0.154112
    17  H    0.152405
    18  H    0.155286
    19  H    0.155125
    20  H    0.160317
    21  C   -0.298609
    22  C   -0.299988
    23  C   -0.486696
    24  H    0.149904
    25  H    0.149683
    26  H    0.152260
    27  H    0.152111
    28  H    0.154729
    29  H    0.155244
    30  H    0.172529
    31  C   -0.298333
    32  C   -0.299688
    33  C   -0.475736
    34  H    0.149641
    35  H    0.149763
    36  H    0.151988
    37  H    0.151986
    38  H    0.155243
    39  H    0.155237
    40  H    0.160344
 Sum of Mulliken charges =  -0.00000

 Dipole moment (field-independent basis, Debye):
    X=             -0.0137    Y=              0.0052    Z=              0.0013  Tot=              0.0147
 Quadrupole moment (field-independent basis, Debye-Ang):
   XX=            -84.8487   YY=            -85.5894   ZZ=            -84.3499
   XY=              0.4866   XZ=             -0.9401   YZ=              0.1741

 Normal termination of Gaussian 16 at Wed May  5 18:21:01 2021.
