 Gaussian 16, Revision A.03,
 Gaussian 16:  EM64L-G16RevA.03 25-Dec-2016

 -------------
 #p 6-31g* mp2
 -------------

 ------------------------------------------------------
 Input file generated by CHIRIPA (05-May-2021 14:57:24)
 ------------------------------------------------------
 Symbolic Z-matrix:
 Charge =  0 Multiplicity = 1

                         Standard orientation:
 ---------------------------------------------------------------------
 Center     Atomic      Atomic             Coordinates (Angstroms)
 Number     Number       Type             X           Y           Z
 ---------------------------------------------------------------------
      1          6           0        4.954399    1.649609   -0.465204
      2          6           0        5.311669    0.347225   -0.100962
      3          6           0        4.328815   -0.615875    0.145991
      4          6           0        2.992337   -0.240445    0.018836
      5          6           0        2.604626    1.048932   -0.342380
      6          6           0        3.604397    1.995696   -0.584540
      7          1           0        5.724474    2.391424   -0.655181
      8          1           0        6.359306    0.075617   -0.007520
      9          1           0        4.577383   -1.631392    0.429465
     10          1           0        1.551945    1.289847   -0.427480
     11          1           0        3.324000    3.006385   -0.867259
     12          7           0        1.942878   -1.251389    0.277737
     13          8           0        0.772484   -0.895446    0.158919
     14          8           0        2.310579   -2.380568    0.594579
     15          6           0       -3.579576    2.511890    0.523997
     16          6           0       -4.091187    1.940518   -0.645750
     17          6           0       -3.867851    0.590666   -0.933100
     18          6           0       -3.125250   -0.161873   -0.024519
     19          6           0       -2.602340    0.378503    1.149299
     20          6           0       -2.838093    1.730436    1.416215
     21          1           0       -3.757891    3.561296    0.739280
     22          1           0       -4.667388    2.544996   -1.340476
     23          1           0       -4.252295    0.122831   -1.831293
     24          1           0       -2.031699   -0.249451    1.822694
     25          1           0       -2.439549    2.171498    2.325430
     26          7           0       -2.882242   -1.592003   -0.317907
     27          8           0       -2.224846   -2.233563    0.498713
     28          8           0       -3.353769   -2.044298   -1.358930
 ---------------------------------------------------------------------

 SCF Done:  E(RHF) =  -868.336253435     A.U. after   16 cycles
 E2 =    -0.2600861523D+01 EUMP2 =    -0.87093711495821D+03

 The electronic state is 1-A.
 Alpha  occ. eigenvalues --  -20.60512 -20.60473 -20.59560 -20.59396 -15.85568
 Alpha  occ. eigenvalues --  -15.84531 -11.31109 -11.30263 -11.27720 -11.27678
 Alpha  occ. eigenvalues --  -11.27472 -11.26953 -11.26833 -11.26800 -11.26771
 Alpha  occ. eigenvalues --  -11.26733 -11.26060 -11.26015  -1.59559  -1.58534
 Alpha  occ. eigenvalues --   -1.39117  -1.38075  -1.19297  -1.18503  -1.08655
 Alpha  occ. eigenvalues --   -1.07841  -1.04729  -1.03968  -0.95460  -0.94606
 Alpha  occ. eigenvalues --   -0.86118  -0.85346  -0.82299  -0.81444  -0.77321
 Alpha  occ. eigenvalues --   -0.76401  -0.71804  -0.70906  -0.70763  -0.70407
 Alpha  occ. eigenvalues --   -0.69811  -0.69630  -0.64949  -0.64732  -0.64155
 Alpha  occ. eigenvalues --   -0.63993  -0.62076  -0.61297  -0.55219  -0.54502
 Alpha  occ. eigenvalues --   -0.53048  -0.52825  -0.52283  -0.52071  -0.48532
 Alpha  occ. eigenvalues --   -0.48508  -0.47567  -0.47467  -0.44489  -0.43355
 Alpha  occ. eigenvalues --   -0.37288  -0.36530  -0.36343  -0.35586
 Alpha virt. eigenvalues --    0.05208   0.06168   0.11309   0.12056   0.16676
 Alpha virt. eigenvalues --    0.17542   0.21421   0.22085   0.27314   0.27953
 Alpha virt. eigenvalues --    0.28328   0.29056   0.30950   0.31580   0.32540

 Mulliken charges:
               1
     1  C   -0.171339
     2  C   -0.218424
     3  C   -0.170884
     4  C    0.158870
     5  C   -0.172285
     6  C   -0.218493
     7  H    0.224855
     8  H    0.223471
     9  H    0.276728
    10  H    0.273661
    11  H    0.221528
    12  N    0.488684
    13  O   -0.461111
    14  O   -0.454926
    15  C   -0.173274
    16  C   -0.220136
    17  C   -0.172370
    18  C    0.160412
    19  C   -0.162975
    20  C   -0.222935
    21  H    0.220515
    22  H    0.219206
    23  H    0.273662
    24  H    0.282629
    25  H    0.219191
    26  N    0.488804
    27  O   -0.443881
    28  O   -0.469179
 Sum of Mulliken charges =  -0.00000

 Dipole moment (field-independent basis, Debye):
    X=              3.0899    Y=              8.2056    Z=              0.2389  Tot=              8.7713
 Quadrupole moment (field-independent basis, Debye-Ang):
   XX=            -75.6845   YY=           -107.1059   ZZ=           -102.3225
   XY=             -8.4339   XZ=             -2.8168   YZ=             -1.5361

 Normal termination of Gaussian 16 at Thu May  6 01:54:02 2021.
