 Gaussian 16, Revision A.03,
 Gaussian 16:  EM64L-G16RevA.03 25-Dec-2016

 -------------
 #p 6-31g* mp2
 -------------

 ------------------------------------------------------
 Input file generated by CHIRIPA (05-May-2021 14:57:23)
 ------------------------------------------------------
 Symbolic Z-matrix:
 Charge =  0 Multiplicity = 1

                         Standard orientation:
 ---------------------------------------------------------------------
 Center     Atomic      Atomic             Coordinates (Angstroms)
 Number     Number       Type             X           Y           Z
 ---------------------------------------------------------------------
      1          6           0        1.467147   -1.970666    1.829096
      2          6           0        1.286885   -0.615985    2.127201
      3          6           0        1.794772    0.371598    1.277920
      4          6           0        2.480951   -0.032941    0.133893
      5          6           0        2.676899   -1.374478   -0.190407
      6          6           0        2.160357   -2.344929    0.673281
      7          1           0        1.069247   -2.731190    2.494434
      8          1           0        0.748944   -0.322400    3.024125
      9          1           0        1.669644    1.427550    1.484622
     10          1           0        3.217514   -1.636293   -1.091854
     11          1           0        2.301863   -3.396237    0.439244
     12          7           0        3.023209    1.003501   -0.772829
     13          8           0        3.624045    0.621060   -1.774513
     14          8           0        2.837127    2.178679   -0.464664
     15          6           0       -2.116025    2.542349    0.622754
     16          6           0       -3.222395    1.772568    0.996793
     17          6           0       -3.385281    0.475592    0.500941
     18          6           0       -2.418220   -0.022328   -0.370929
     19          6           0       -1.305031    0.719918   -0.762298
     20          6           0       -1.162555    2.014498   -0.254053
     21          1           0       -1.997420    3.548939    1.012757
     22          1           0       -3.964454    2.179915    1.677573
     23          1           0       -4.232190   -0.142146    0.774006
     24          1           0       -0.581970    0.286575   -1.442603
     25          1           0       -0.302327    2.610034   -0.546266
     26          7           0       -2.579856   -1.394109   -0.902426
     27          8           0       -1.713807   -1.809744   -1.669135
     28          8           0       -3.569534   -2.027701   -0.542239
 ---------------------------------------------------------------------

 SCF Done:  E(RHF) =  -868.339274173     A.U. after   16 cycles
 E2 =    -0.2602136234D+01 EUMP2 =    -0.87094141040754D+03

 The electronic state is 1-A.
 Alpha  occ. eigenvalues --  -20.61367 -20.61307 -20.60940 -20.60929 -15.86356
 Alpha  occ. eigenvalues --  -15.85984 -11.31413 -11.31260 -11.28009 -11.27907
 Alpha  occ. eigenvalues --  -11.27851 -11.27763 -11.27598 -11.27522 -11.26901
 Alpha  occ. eigenvalues --  -11.26852 -11.26806 -11.26650  -1.60409  -1.60015
 Alpha  occ. eigenvalues --   -1.39970  -1.39569  -1.19575  -1.19416  -1.09007
 Alpha  occ. eigenvalues --   -1.08833  -1.04932  -1.04772  -0.95892  -0.95685
 Alpha  occ. eigenvalues --   -0.86331  -0.86186  -0.82728  -0.82505  -0.77833
 Alpha  occ. eigenvalues --   -0.77557  -0.72573  -0.72206  -0.71745  -0.71338
 Alpha  occ. eigenvalues --   -0.70655  -0.70524  -0.65210  -0.65064  -0.64925
 Alpha  occ. eigenvalues --   -0.64727  -0.62291  -0.62097  -0.55405  -0.55299
 Alpha  occ. eigenvalues --   -0.53603  -0.53035  -0.52867  -0.52759  -0.49355
 Alpha  occ. eigenvalues --   -0.49298  -0.48965  -0.48953  -0.45420  -0.44993
 Alpha  occ. eigenvalues --   -0.37606  -0.37408  -0.36937  -0.35829
 Alpha virt. eigenvalues --    0.04547   0.05024   0.10953   0.11384   0.16182
 Alpha virt. eigenvalues --    0.16481   0.21078   0.21649   0.26721   0.27402
 Alpha virt. eigenvalues --    0.28035   0.28515   0.30643   0.31419   0.31953

 Mulliken charges:
               1
     1  C   -0.169561
     2  C   -0.217940
     3  C   -0.168735
     4  C    0.150888
     5  C   -0.168758
     6  C   -0.213586
     7  H    0.228917
     8  H    0.223114
     9  H    0.269523
    10  H    0.277691
    11  H    0.228401
    12  N    0.486878
    13  O   -0.454695
    14  O   -0.469002
    15  C   -0.174728
    16  C   -0.219758
    17  C   -0.173433
    18  C    0.157088
    19  C   -0.168406
    20  C   -0.230181
    21  H    0.227005
    22  H    0.222511
    23  H    0.274185
    24  H    0.276462
    25  H    0.241172
    26  N    0.487782
    27  O   -0.460328
    28  O   -0.462506
 Sum of Mulliken charges =  -0.00000

 Dipole moment (field-independent basis, Debye):
    X=             -1.1908    Y=              0.9651    Z=              5.0343  Tot=              5.2625
 Quadrupole moment (field-independent basis, Debye-Ang):
   XX=           -114.0108   YY=           -102.6891   ZZ=           -103.1382
   XY=            -22.4454   XZ=             -0.9093   YZ=             -0.5262

 Normal termination of Gaussian 16 at Thu May  6 21:11:28 2021.
