 Gaussian 16, Revision A.03,
 Gaussian 16:  EM64L-G16RevA.03 25-Dec-2016

 -------------
 #p 6-31g* mp2
 -------------

 ------------------------------------------------------
 Input file generated by CHIRIPA (05-May-2021 14:57:26)
 ------------------------------------------------------
 Symbolic Z-matrix:
 Charge =  0 Multiplicity = 1

                         Standard orientation:
 ---------------------------------------------------------------------
 Center     Atomic      Atomic             Coordinates (Angstroms)
 Number     Number       Type             X           Y           Z
 ---------------------------------------------------------------------
      1          6           0       -5.229892    0.874536   -1.397830
      2          6           0       -4.835165   -0.464043   -1.492264
      3          6           0       -3.845566   -0.973824   -0.646472
      4          6           0       -3.269235   -0.113098    0.286418
      5          6           0       -3.640992    1.225205    0.404879
      6          6           0       -4.632599    1.713409   -0.451229
      7          1           0       -5.999417    1.262165   -2.058868
      8          1           0       -5.297296   -1.117829   -2.226460
      9          1           0       -3.520993   -2.006010   -0.698072
     10          1           0       -3.162027    1.852629    1.146735
     11          1           0       -4.937159    2.753396   -0.375636
     12          7           0       -2.220527   -0.641359    1.187280
     13          8           0       -1.728221    0.137460    2.000738
     14          8           0       -1.910714   -1.824225    1.062861
     15          6           0        2.901583   -2.434233   -0.282437
     16          6           0        2.106233   -1.587382    0.496525
     17          6           0        2.396343   -0.222557    0.583907
     18          6           0        3.494327    0.263884   -0.123976
     19          6           0        4.305686   -0.554367   -0.908483
     20          6           0        3.996841   -1.915937   -0.981222
     21          1           0        2.668942   -3.493198   -0.344629
     22          1           0        1.255016   -1.987127    1.040290
     23          1           0        1.797313    0.455538    1.179533
     24          1           0        5.147639   -0.126692   -1.439167
     25          1           0        4.616271   -2.571256   -1.586951
     26          7           0        3.811371    1.707040   -0.039220
     27          8           0        4.784251    2.110950   -0.672463
     28          8           0        3.080986    2.406949    0.658851
 ---------------------------------------------------------------------

 SCF Done:  E(RHF) =  -868.340937043     A.U. after   16 cycles
 E2 =    -0.2598519563D+01 EUMP2 =    -0.87093945660606D+03

 The electronic state is 1-A.
 Alpha  occ. eigenvalues --  -20.61632 -20.61616 -20.60069 -20.60056 -15.86626
 Alpha  occ. eigenvalues --  -15.85106 -11.31657 -11.30285 -11.28211 -11.28156
 Alpha  occ. eigenvalues --  -11.27875 -11.27144 -11.27102 -11.26888 -11.26672
 Alpha  occ. eigenvalues --  -11.26518 -11.25903 -11.25560  -1.60681  -1.59145
 Alpha  occ. eigenvalues --   -1.40239  -1.38702  -1.19800  -1.18426  -1.09261
 Alpha  occ. eigenvalues --   -1.07863  -1.05151  -1.03766  -0.96149  -0.94731
 Alpha  occ. eigenvalues --   -0.86566  -0.85177  -0.82992  -0.81544  -0.78074
 Alpha  occ. eigenvalues --   -0.76610  -0.72857  -0.71971  -0.71330  -0.70906
 Alpha  occ. eigenvalues --   -0.70467  -0.69538  -0.65457  -0.65152  -0.64062
 Alpha  occ. eigenvalues --   -0.63722  -0.62500  -0.61079  -0.55670  -0.54303
 Alpha  occ. eigenvalues --   -0.53497  -0.53239  -0.52160  -0.51818  -0.49626
 Alpha  occ. eigenvalues --   -0.49594  -0.48094  -0.48068  -0.45709  -0.44148
 Alpha  occ. eigenvalues --   -0.37762  -0.36735  -0.36433  -0.35378
 Alpha virt. eigenvalues --    0.04406   0.05861   0.10924   0.12265   0.15958
 Alpha virt. eigenvalues --    0.17404   0.21084   0.22554   0.27027   0.27899
 Alpha virt. eigenvalues --    0.28668   0.29262   0.30702   0.32022   0.32253

 Mulliken charges:
               1
     1  C   -0.169472
     2  C   -0.218590
     3  C   -0.170404
     4  C    0.157767
     5  C   -0.169536
     6  C   -0.218445
     7  H    0.227715
     8  H    0.224439
     9  H    0.274073
    10  H    0.278446
    11  H    0.226492
    12  N    0.488957
    13  O   -0.459705
    14  O   -0.467691
    15  C   -0.172894
    16  C   -0.227107
    17  C   -0.176989
    18  C    0.157812
    19  C   -0.173515
    20  C   -0.219077
    21  H    0.224020
    22  H    0.246552
    23  H    0.283430
    24  H    0.271762
    25  H    0.219212
    26  N    0.487846
    27  O   -0.464321
    28  O   -0.460778
 Sum of Mulliken charges =  -0.00000

 Dipole moment (field-independent basis, Debye):
    X=             -5.3242    Y=             -3.1647    Z=             -3.3715  Tot=              7.0519
 Quadrupole moment (field-independent basis, Debye-Ang):
   XX=            -86.8267   YY=           -104.5916   ZZ=           -104.8793
   XY=            -24.6106   XZ=              6.7247   YZ=              4.0798

 Normal termination of Gaussian 16 at Thu May  6 00:26:34 2021.
