 Gaussian 16, Revision A.03,
 Gaussian 16:  EM64L-G16RevA.03 25-Dec-2016

 -------------
 #p 6-31g* mp2
 -------------

 ------------------------------------------------------
 Input file generated by CHIRIPA (05-May-2021 14:51:08)
 ------------------------------------------------------
 Symbolic Z-matrix:
 Charge =  0 Multiplicity = 1

                         Standard orientation:
 ---------------------------------------------------------------------
 Center     Atomic      Atomic             Coordinates (Angstroms)
 Number     Number       Type             X           Y           Z
 ---------------------------------------------------------------------
      1          6           0       -3.852208   -0.738084   -0.028237
      2          6           0       -2.425215   -1.225080    0.225756
      3          6           0       -2.288175   -2.743044    0.104105
      4          1           0       -4.531820   -1.227198    0.682986
      5          1           0       -4.167730   -1.056427   -1.031481
      6          1           0       -2.111978   -0.904722    1.227688
      7          1           0       -1.748894   -0.734604   -0.486030
      8          1           0       -2.574524   -3.076572   -0.898574
      9          1           0       -2.939672   -3.247657    0.824881
     10          1           0       -1.260105   -3.069470    0.289517
     11          6           0       -4.005190    0.777303    0.089781
     12          6           0       -5.432182    1.264299   -0.164212
     13          6           0       -5.569222    2.782263   -0.042561
     14          1           0       -3.689667    1.095646    1.093024
     15          1           0       -3.325577    1.266417   -0.621443
     16          1           0       -6.108504    0.773823    0.547573
     17          1           0       -5.745420    0.943941   -1.166145
     18          1           0       -4.917726    3.286876   -0.763338
     19          1           0       -5.282873    3.115792    0.960117
     20          1           0       -6.597293    3.108689   -0.227974
     21          6           0        3.186232   -0.195073    0.006465
     22          6           0        2.905785   -1.686938   -0.177045
     23          6           0        1.416010   -2.022246   -0.100007
     24          1           0        2.785365    0.130309    0.976195
     25          1           0        2.641905    0.370519   -0.762437
     26          1           0        3.451580   -2.249650    0.591121
     27          1           0        3.307534   -2.008849   -1.146367
     28          1           0        0.859922   -1.486512   -0.876123
     29          1           0        1.004786   -1.728681    0.871237
     30          1           0        1.238253   -3.093864   -0.233787
     31          6           0        4.671166    0.155854   -0.068008
     32          6           0        4.951613    1.647719    0.115501
     33          6           0        6.441388    1.983027    0.038463
     34          1           0        5.215492   -0.409738    0.700894
     35          1           0        5.072032   -0.169529   -1.037739
     36          1           0        4.549863    1.969630    1.084823
     37          1           0        4.405818    2.210430   -0.652665
     38          1           0        6.852612    1.689462   -0.932781
     39          1           0        6.997476    1.447294    0.814579
     40          1           0        6.619145    3.054644    0.172243
 ---------------------------------------------------------------------

 SCF Done:  E(RHF) =  -470.732777930     A.U. after   11 cycles
 E2 =    -0.1583007946D+01 EUMP2 =    -0.47231578587596D+03

 The electronic state is 1-A.
 Alpha  occ. eigenvalues --  -11.21608 -11.21607 -11.21564 -11.21483 -11.21415
 Alpha  occ. eigenvalues --  -11.21356 -11.21342 -11.21276 -11.21092 -11.21077
 Alpha  occ. eigenvalues --  -11.21044 -11.20866  -1.08444  -1.08356  -1.03568
 Alpha  occ. eigenvalues --   -1.03425  -0.96057  -0.95841  -0.87078  -0.86858
 Alpha  occ. eigenvalues --   -0.79620  -0.79512  -0.78265  -0.78160  -0.65079
 Alpha  occ. eigenvalues --   -0.64986  -0.60979  -0.60813  -0.59506  -0.59170
 Alpha  occ. eigenvalues --   -0.57677  -0.57450  -0.55319  -0.55151  -0.52987
 Alpha  occ. eigenvalues --   -0.52451  -0.52443  -0.52096  -0.49942  -0.49837
 Alpha  occ. eigenvalues --   -0.47958  -0.47790  -0.46680  -0.46507  -0.45824
 Alpha  occ. eigenvalues --   -0.45730  -0.45682  -0.45604  -0.43919  -0.43557
 Alpha virt. eigenvalues --    0.22032   0.23004   0.23475   0.24860   0.26014
 Alpha virt. eigenvalues --    0.26659   0.26956   0.27350   0.27819   0.29256
 Alpha virt. eigenvalues --    0.29787   0.30401   0.31386   0.31725   0.32470

 Mulliken charges:
               1
     1  C   -0.298384
     2  C   -0.299370
     3  C   -0.482599
     4  H    0.149366
     5  H    0.149174
     6  H    0.150735
     7  H    0.153208
     8  H    0.153729
     9  H    0.153687
    10  H    0.170523
    11  C   -0.298094
    12  C   -0.299557
    13  C   -0.475644
    14  H    0.149318
    15  H    0.149304
    16  H    0.151880
    17  H    0.151808
    18  H    0.155051
    19  H    0.155100
    20  H    0.160112
    21  C   -0.298403
    22  C   -0.300892
    23  C   -0.477920
    24  H    0.149818
    25  H    0.149334
    26  H    0.151906
    27  H    0.151894
    28  H    0.157895
    29  H    0.156887
    30  H    0.160023
    31  C   -0.298313
    32  C   -0.299611
    33  C   -0.475710
    34  H    0.149553
    35  H    0.149640
    36  H    0.151988
    37  H    0.151913
    38  H    0.155172
    39  H    0.155193
    40  H    0.160287
 Sum of Mulliken charges =  -0.00000

 Dipole moment (field-independent basis, Debye):
    X=              0.0538    Y=             -0.0090    Z=              0.0004  Tot=              0.0545
 Quadrupole moment (field-independent basis, Debye-Ang):
   XX=            -86.1629   YY=            -86.1366   ZZ=            -82.7396
   XY=             -0.1849   XZ=             -0.0797   YZ=             -0.2946

 Normal termination of Gaussian 16 at Thu May  6 05:17:02 2021.
