 Gaussian 16, Revision A.03,
 Gaussian 16:  EM64L-G16RevA.03 25-Dec-2016

 -------------
 #p 6-31g* mp2
 -------------

 ------------------------------------------------------
 Input file generated by CHIRIPA (05-May-2021 14:57:26)
 ------------------------------------------------------
 Symbolic Z-matrix:
 Charge =  0 Multiplicity = 1

                         Standard orientation:
 ---------------------------------------------------------------------
 Center     Atomic      Atomic             Coordinates (Angstroms)
 Number     Number       Type             X           Y           Z
 ---------------------------------------------------------------------
      1          6           0        5.612379    0.626687   -0.296635
      2          6           0        5.129593   -0.461895   -1.030412
      3          6           0        3.856216   -0.980350   -0.776906
      4          6           0        3.088988   -0.383127    0.222082
      5          6           0        3.541962    0.702397    0.970241
      6          6           0        4.818422    1.204340    0.699593
      7          1           0        6.602766    1.023021   -0.500223
      8          1           0        5.743987   -0.912515   -1.804690
      9          1           0        3.457719   -1.822261   -1.329901
     10          1           0        2.906297    1.130456    1.735822
     11          1           0        5.190767    2.049834    1.271033
     12          7           0        1.739289   -0.923252    0.499531
     13          8           0        1.082953   -0.379250    1.384924
     14          8           0        1.363289   -1.880375   -0.173652
     15          6           0       -4.662353   -1.803579    0.198682
     16          6           0       -5.240257   -0.549521    0.422037
     17          6           0       -4.501174    0.619436    0.217479
     18          6           0       -3.180834    0.496905   -0.212612
     19          6           0       -2.576892   -0.738040   -0.443819
     20          6           0       -3.334855   -1.893677   -0.232772
     21          1           0       -5.243825   -2.706479    0.360109
     22          1           0       -6.270998   -0.476519    0.757131
     23          1           0       -4.923717    1.603084    0.382740
     24          1           0       -1.547177   -0.778881   -0.777641
     25          1           0       -2.883444   -2.866254   -0.407034
     26          7           0       -2.388404    1.727376   -0.432603
     27          8           0       -1.227059    1.592468   -0.811697
     28          8           0       -2.943650    2.803430   -0.221774
 ---------------------------------------------------------------------

 SCF Done:  E(RHF) =  -868.340399913     A.U. after   16 cycles
 E2 =    -0.2599027926D+01 EUMP2 =    -0.87093942783957D+03

 The electronic state is 1-A.
 Alpha  occ. eigenvalues --  -20.60850 -20.60773 -20.59819 -20.59787 -15.85823
 Alpha  occ. eigenvalues --  -15.84851 -11.30977 -11.30016 -11.27562 -11.27495
 Alpha  occ. eigenvalues --  -11.27270 -11.26694 -11.26538 -11.26492 -11.26434
 Alpha  occ. eigenvalues --  -11.26409 -11.25694 -11.25509  -1.59855  -1.58875
 Alpha  occ. eigenvalues --   -1.39415  -1.38433  -1.19136  -1.18208  -1.08578
 Alpha  occ. eigenvalues --   -1.07663  -1.04517  -1.03574  -0.95449  -0.94515
 Alpha  occ. eigenvalues --   -0.85927  -0.84998  -0.82294  -0.81350  -0.77356
 Alpha  occ. eigenvalues --   -0.76395  -0.72065  -0.71196  -0.71026  -0.70266
 Alpha  occ. eigenvalues --   -0.70175  -0.69346  -0.64805  -0.64536  -0.63874
 Alpha  occ. eigenvalues --   -0.63596  -0.61871  -0.60904  -0.55051  -0.54157
 Alpha  occ. eigenvalues --   -0.52844  -0.52619  -0.51937  -0.51673  -0.48835
 Alpha  occ. eigenvalues --   -0.48799  -0.47844  -0.47826  -0.44874  -0.43862
 Alpha  occ. eigenvalues --   -0.37107  -0.36233  -0.36102  -0.35160
 Alpha virt. eigenvalues --    0.05156   0.06129   0.11556   0.12481   0.16682
 Alpha virt. eigenvalues --    0.17619   0.21644   0.22565   0.27570   0.28409
 Alpha virt. eigenvalues --    0.28608   0.29462   0.31195   0.32052   0.32782

 Mulliken charges:
               1
     1  C   -0.169963
     2  C   -0.218654
     3  C   -0.170163
     4  C    0.161265
     5  C   -0.167004
     6  C   -0.218574
     7  H    0.225319
     8  H    0.222434
     9  H    0.273209
    10  H    0.278125
    11  H    0.224134
    12  N    0.491244
    13  O   -0.454642
    14  O   -0.472884
    15  C   -0.171047
    16  C   -0.219969
    17  C   -0.171842
    18  C    0.156726
    19  C   -0.164931
    20  C   -0.220932
    21  H    0.221654
    22  H    0.218669
    23  H    0.271389
    24  H    0.288026
    25  H    0.226378
    26  N    0.489114
    27  O   -0.460628
    28  O   -0.466454
 Sum of Mulliken charges =  -0.00000

 Dipole moment (field-independent basis, Debye):
    X=              2.3392    Y=             -2.4250    Z=             -0.1311  Tot=              3.3719
 Quadrupole moment (field-independent basis, Debye-Ang):
   XX=            -56.7139   YY=           -107.9766   ZZ=           -103.8919
   XY=             14.3521   XZ=             -5.5777   YZ=              5.9597

 Normal termination of Gaussian 16 at Thu May  6 21:23:05 2021.
