 Gaussian 16, Revision A.03,
 Gaussian 16:  EM64L-G16RevA.03 25-Dec-2016

 -------------
 #p 6-31g* mp2
 -------------

 ------------------------------------------------------
 Input file generated by CHIRIPA (05-May-2021 14:51:11)
 ------------------------------------------------------
 Symbolic Z-matrix:
 Charge =  0 Multiplicity = 1

                         Standard orientation:
 ---------------------------------------------------------------------
 Center     Atomic      Atomic             Coordinates (Angstroms)
 Number     Number       Type             X           Y           Z
 ---------------------------------------------------------------------
      1          6           0       -3.886764    0.893277   -0.173173
      2          6           0       -3.014973    2.090005    0.208677
      3          6           0       -3.714275    3.429410   -0.025342
      4          1           0       -4.173519    0.979066   -1.230224
      5          1           0       -4.819060    0.927579    0.407380
      6          1           0       -2.083998    2.052696   -0.371417
      7          1           0       -2.730102    2.001259    1.264891
      8          1           0       -4.633860    3.492278    0.565431
      9          1           0       -3.984084    3.544007   -1.080174
     10          1           0       -3.073196    4.271256    0.254255
     11          6           0       -3.201470   -0.452824    0.055104
     12          6           0       -4.073260   -1.649552   -0.326746
     13          6           0       -3.373959   -2.988957   -0.092727
     14          1           0       -2.269173   -0.487126   -0.525449
     15          1           0       -2.914715   -0.538612    1.112155
     16          1           0       -4.358131   -1.560805   -1.382960
     17          1           0       -5.004236   -1.612242    0.253348
     18          1           0       -3.104150   -3.103554    0.962105
     19          1           0       -2.454374   -3.051824   -0.683500
     20          1           0       -4.015038   -3.830802   -0.372324
     21          6           0        4.198314    0.034924    0.359627
     22          6           0        5.277049    0.316975   -0.686683
     23          6           0        6.579928    0.826756   -0.069899
     24          1           0        4.001033    0.952768    0.930228
     25          1           0        4.578698   -0.704191    1.078246
     26          1           0        4.894240    1.054306   -1.403911
     27          1           0        5.471648   -0.601599   -1.254987
     28          1           0        6.987862    0.091416    0.631148
     29          1           0        6.407173    1.756728    0.481377
     30          1           0        7.337185    1.021943   -0.835617
     31          6           0        2.889919   -0.475377   -0.241559
     32          6           0        1.811185   -0.757429    0.804752
     33          6           0        0.508305   -1.267208    0.187967
     34          1           0        2.509536    0.263737   -0.960177
     35          1           0        3.087200   -1.393222   -0.812159
     36          1           0        1.616586    0.161146    1.373056
     37          1           0        2.193994   -1.494759    1.521979
     38          1           0        0.681061   -2.197182   -0.363309
     39          1           0        0.100372   -0.531869   -0.513079
     40          1           0       -0.248951   -1.462396    0.953686
 ---------------------------------------------------------------------

 SCF Done:  E(RHF) =  -470.732353732     A.U. after   11 cycles
 E2 =    -0.1583495604D+01 EUMP2 =    -0.47231584933585D+03

 The electronic state is 1-A.
 Alpha  occ. eigenvalues --  -11.21598 -11.21592 -11.21566 -11.21526 -11.21396
 Alpha  occ. eigenvalues --  -11.21337 -11.21329 -11.21216 -11.21069 -11.21065
 Alpha  occ. eigenvalues --  -11.20999 -11.20999  -1.08427  -1.08364  -1.03530
 Alpha  occ. eigenvalues --   -1.03469  -0.95985  -0.95912  -0.87023  -0.86920
 Alpha  occ. eigenvalues --   -0.79676  -0.79487  -0.78281  -0.78112  -0.65087
 Alpha  occ. eigenvalues --   -0.64978  -0.60929  -0.60877  -0.59443  -0.59194
 Alpha  occ. eigenvalues --   -0.57574  -0.57552  -0.55378  -0.55112  -0.52753
 Alpha  occ. eigenvalues --   -0.52597  -0.52401  -0.52324  -0.50034  -0.49762
 Alpha  occ. eigenvalues --   -0.47922  -0.47857  -0.46688  -0.46573  -0.45875
 Alpha  occ. eigenvalues --   -0.45734  -0.45696  -0.45385  -0.43741  -0.43672
 Alpha virt. eigenvalues --    0.21796   0.23056   0.23683   0.24369   0.25182
 Alpha virt. eigenvalues --    0.26520   0.26749   0.27689   0.27796   0.29686
 Alpha virt. eigenvalues --    0.30157   0.31308   0.31647   0.32013   0.32284

 Mulliken charges:
               1
     1  C   -0.297979
     2  C   -0.299570
     3  C   -0.475600
     4  H    0.149130
     5  H    0.149037
     6  H    0.150969
     7  H    0.151811
     8  H    0.155322
     9  H    0.155123
    10  H    0.159963
    11  C   -0.303752
    12  C   -0.299155
    13  C   -0.477162
    14  H    0.159389
    15  H    0.148141
    16  H    0.151337
    17  H    0.151197
    18  H    0.154327
    19  H    0.157933
    20  H    0.159676
    21  C   -0.298213
    22  C   -0.299611
    23  C   -0.475695
    24  H    0.149648
    25  H    0.149544
    26  H    0.151824
    27  H    0.151901
    28  H    0.155190
    29  H    0.155175
    30  H    0.160218
    31  C   -0.298526
    32  C   -0.300440
    33  C   -0.478019
    34  H    0.149218
    35  H    0.149515
    36  H    0.152076
    37  H    0.151673
    38  H    0.154079
    39  H    0.155045
    40  H    0.165264
 Sum of Mulliken charges =  -0.00000

 Dipole moment (field-independent basis, Debye):
    X=              0.0154    Y=             -0.0138    Z=             -0.0013  Tot=              0.0208
 Quadrupole moment (field-independent basis, Debye-Ang):
   XX=            -85.9684   YY=            -85.1517   ZZ=            -83.9678
   XY=             -0.3077   XZ=             -0.6407   YZ=             -0.0953

 Normal termination of Gaussian 16 at Wed May  5 19:49:16 2021.
