 Gaussian 16, Revision A.03,
 Gaussian 16:  EM64L-G16RevA.03 25-Dec-2016

 -------------
 #p 6-31g* mp2
 -------------

 ------------------------------------------------------
 Input file generated by CHIRIPA (05-May-2021 14:53:15)
 ------------------------------------------------------
 Symbolic Z-matrix:
 Charge =  0 Multiplicity = 1

                         Standard orientation:
 ---------------------------------------------------------------------
 Center     Atomic      Atomic             Coordinates (Angstroms)
 Number     Number       Type             X           Y           Z
 ---------------------------------------------------------------------
      1          6           0        4.944300   -0.232442    0.147721
      2          6           0        5.464450    0.821692   -0.830149
      3          6           0        6.940141    1.155598   -0.609605
      4          1           0        5.090892    0.126205    1.175743
      5          1           0        5.546947   -1.145641    0.046344
      6          1           0        4.860119    1.732160   -0.727933
      7          1           0        5.316428    0.460577   -1.855966
      8          1           0        7.559873    0.261382   -0.731712
      9          1           0        7.100973    1.540190    0.402730
     10          1           0        7.291207    1.911180   -1.319328
     11          6           0        3.470569   -0.576856   -0.060184
     12          6           0        2.950419   -1.630989    0.917686
     13          6           0        1.474728   -1.964895    0.697142
     14          1           0        2.867922    0.336344    0.041194
     15          1           0        3.323977   -0.935502   -1.088206
     16          1           0        3.098441   -1.269874    1.943503
     17          1           0        3.554750   -2.541457    0.815470
     18          1           0        1.313896   -2.349487   -0.315193
     19          1           0        0.854996   -1.070679    0.819249
     20          1           0        1.123662   -2.720478    1.406866
     21          6           0       -2.249772    2.536538    0.565604
     22          6           0       -3.592669    2.472767    0.179491
     23          6           0       -4.177869    1.247945   -0.155025
     24          6           0       -3.387339    0.101471   -0.092180
     25          6           0       -2.046732    0.132489    0.288739
     26          6           0       -1.482442    1.368255    0.618902
     27          1           0       -1.803297    3.492260    0.823773
     28          1           0       -4.190995    3.378451    0.137200
     29          1           0       -5.215160    1.169882   -0.457269
     30          1           0       -1.475650   -0.787412    0.321404
     31          1           0       -0.439286    1.414772    0.918412
     32          7           0       -3.995796   -1.200986   -0.444013
     33          8           0       -3.277929   -2.196620   -0.380632
     34          8           0       -5.179049   -1.201556   -0.776500
 ---------------------------------------------------------------------

 SCF Done:  E(RHF) =  -669.535304922     A.U. after   15 cycles
 E2 =    -0.2091376387D+01 EUMP2 =    -0.67162668130860D+03

 The electronic state is 1-A.
 Alpha  occ. eigenvalues --  -20.60700 -20.60694 -15.85752 -11.31106 -11.27696
 Alpha  occ. eigenvalues --  -11.27636 -11.27452 -11.26713 -11.26702 -11.22133
 Alpha  occ. eigenvalues --  -11.21994 -11.21928 -11.21801 -11.21732 -11.21398
 Alpha  occ. eigenvalues --   -1.59775  -1.39328  -1.19290  -1.08914  -1.08691
 Alpha  occ. eigenvalues --   -1.04700  -1.04008  -0.96470  -0.95523  -0.87490
 Alpha  occ. eigenvalues --   -0.86094  -0.82362  -0.80078  -0.78723  -0.77399
 Alpha  occ. eigenvalues --   -0.71972  -0.71098  -0.70411  -0.65552  -0.64948
 Alpha  occ. eigenvalues --   -0.64709  -0.62133  -0.61355  -0.59816  -0.58061
 Alpha  occ. eigenvalues --   -0.55779  -0.55197  -0.53159  -0.53028  -0.52953
 Alpha  occ. eigenvalues --   -0.52694  -0.50414  -0.48732  -0.48725  -0.48379
 Alpha  occ. eigenvalues --   -0.47105  -0.46263  -0.46185  -0.44736  -0.44252
 Alpha  occ. eigenvalues --   -0.37281  -0.36298
 Alpha virt. eigenvalues --    0.05134   0.11353   0.16618   0.19577   0.22527
 Alpha virt. eigenvalues --    0.23716   0.25262   0.26080   0.26926   0.28229
 Alpha virt. eigenvalues --    0.29179   0.29495   0.31353   0.31556   0.31984

 Mulliken charges:
               1
     1  C   -0.298657
     2  C   -0.299659
     3  C   -0.475953
     4  H    0.149415
     5  H    0.151890
     6  H    0.149870
     7  H    0.153437
     8  H    0.156516
     9  H    0.155083
    10  H    0.161061
    11  C   -0.297519
    12  C   -0.301152
    13  C   -0.479088
    14  H    0.142254
    15  H    0.152874
    16  H    0.151836
    17  H    0.156488
    18  H    0.163368
    19  H    0.141154
    20  H    0.168212
    21  C   -0.170549
    22  C   -0.219099
    23  C   -0.170408
    24  C    0.159141
    25  C   -0.177665
    26  C   -0.222269
    27  H    0.225215
    28  H    0.223177
    29  H    0.275343
    30  H    0.285267
    31  H    0.223476
    32  N    0.488042
    33  O   -0.460237
    34  O   -0.460864
 Sum of Mulliken charges =  -0.00000

 Dipole moment (field-independent basis, Debye):
    X=              2.3130    Y=              4.4497    Z=              1.2105  Tot=              5.1590
 Quadrupole moment (field-independent basis, Debye-Ang):
   XX=           -106.1970   YY=            -92.4799   ZZ=            -95.2547
   XY=            -18.6064   XZ=             -3.7856   YZ=             -0.3064

 Normal termination of Gaussian 16 at Wed May  5 18:40:22 2021.
