 Gaussian 16, Revision A.03,
 Gaussian 16:  EM64L-G16RevA.03 25-Dec-2016

 -------------
 #p 6-31g* mp2
 -------------

 ------------------------------------------------------
 Input file generated by CHIRIPA (05-May-2021 14:55:22)
 ------------------------------------------------------
 Symbolic Z-matrix:
 Charge =  0 Multiplicity = 1

                         Standard orientation:
 ---------------------------------------------------------------------
 Center     Atomic      Atomic             Coordinates (Angstroms)
 Number     Number       Type             X           Y           Z
 ---------------------------------------------------------------------
      1          6           0        1.294341   -1.504783    0.575224
      2          6           0        1.277853   -0.147015    0.239494
      3          6           0        2.462581    0.516583   -0.093079
      4          6           0        3.651240   -0.211567   -0.079688
      5          6           0        3.700205   -1.565059    0.250390
      6          6           0        2.503334   -2.208231    0.579593
      7          1           0        0.369299   -2.012348    0.832266
      8          1           0        0.340403    0.401816    0.235266
      9          1           0        2.478527    1.567091   -0.356889
     10          1           0        4.650188   -2.085568    0.245796
     11          1           0        2.519148   -3.262758    0.839916
     12          7           0        4.911886    0.480143   -0.429985
     13          8           0        5.946022   -0.183808   -0.410751
     14          8           0        4.841976    1.673159   -0.717148
     15          6           0       -4.051794    1.092319    0.008585
     16          6           0       -2.701445    1.087346    0.725883
     17          6           0       -2.001730    2.445993    0.678199
     18          1           0       -3.903032    1.393231   -1.037487
     19          1           0       -4.698378    1.854985    0.464289
     20          1           0       -2.058084    0.323965    0.269864
     21          1           0       -2.853414    0.786225    1.770319
     22          1           0       -2.621011    3.215058    1.151095
     23          1           0       -1.821162    2.750170   -0.357886
     24          1           0       -1.038342    2.419842    1.196908
     25          6           0       -4.763488   -0.258864    0.047620
     26          6           0       -6.113838   -0.253890   -0.669678
     27          6           0       -6.813553   -1.612536   -0.621994
     28          1           0       -4.116905   -1.021530   -0.408083
     29          1           0       -4.912251   -0.559775    1.093692
     30          1           0       -5.961870    0.047229   -1.714114
     31          1           0       -6.757199    0.509491   -0.213659
     32          1           0       -6.994120   -1.916715    0.414091
     33          1           0       -6.194272   -2.381602   -1.094890
     34          1           0       -7.776941   -1.586385   -1.140703
 ---------------------------------------------------------------------

 SCF Done:  E(RHF) =  -669.535412247     A.U. after   15 cycles
 E2 =    -0.2091466561D+01 EUMP2 =    -0.67162687880763D+03

 The electronic state is 1-A.
 Alpha  occ. eigenvalues --  -20.60715 -20.60710 -15.85767 -11.31122 -11.27694
 Alpha  occ. eigenvalues --  -11.27676 -11.27422 -11.26709 -11.26636 -11.22787
 Alpha  occ. eigenvalues --  -11.22267 -11.22222 -11.22161 -11.22138 -11.21611
 Alpha  occ. eigenvalues --   -1.59791  -1.39345  -1.19291  -1.09293  -1.08688
 Alpha  occ. eigenvalues --   -1.04697  -1.04392  -0.96822  -0.95526  -0.87833
 Alpha  occ. eigenvalues --   -0.86094  -0.82358  -0.80483  -0.79080  -0.77409
 Alpha  occ. eigenvalues --   -0.71986  -0.71114  -0.70402  -0.65961  -0.64941
 Alpha  occ. eigenvalues --   -0.64721  -0.62190  -0.61669  -0.60181  -0.58423
 Alpha  occ. eigenvalues --   -0.56090  -0.55183  -0.53539  -0.53263  -0.53021
 Alpha  occ. eigenvalues --   -0.52715  -0.50753  -0.48800  -0.48742  -0.48731
 Alpha  occ. eigenvalues --   -0.47508  -0.46616  -0.46518  -0.44753  -0.44635
 Alpha  occ. eigenvalues --   -0.37274  -0.36295
 Alpha virt. eigenvalues --    0.05122   0.11331   0.16599   0.19447   0.22490
 Alpha virt. eigenvalues --    0.23691   0.25417   0.26158   0.26331   0.28390
 Alpha virt. eigenvalues --    0.28860   0.30548   0.30916   0.31237   0.31865

 Mulliken charges:
               1
     1  C   -0.173727
     2  C   -0.229471
     3  C   -0.173392
     4  C    0.159066
     5  C   -0.171447
     6  C   -0.218460
     7  H    0.225633
     8  H    0.239998
     9  H    0.275883
    10  H    0.275340
    11  H    0.223079
    12  N    0.487970
    13  O   -0.460713
    14  O   -0.460485
    15  C   -0.297951
    16  C   -0.304707
    17  C   -0.481833
    18  H    0.152210
    19  H    0.153429
    20  H    0.142017
    21  H    0.155657
    22  H    0.163460
    23  H    0.158215
    24  H    0.157612
    25  C   -0.298840
    26  C   -0.300342
    27  C   -0.476161
    28  H    0.147456
    29  H    0.150264
    30  H    0.153441
    31  H    0.153666
    32  H    0.155602
    33  H    0.154988
    34  H    0.162541
 Sum of Mulliken charges =  -0.00000

 Dipole moment (field-independent basis, Debye):
    X=             -4.7201    Y=             -2.3554    Z=              1.2406  Tot=              5.4191
 Quadrupole moment (field-independent basis, Debye-Ang):
   XX=           -125.6020   YY=            -90.7492   ZZ=            -94.9205
   XY=            -11.4789   XZ=              4.8431   YZ=             -0.5428

 Normal termination of Gaussian 16 at Thu May  6 03:01:53 2021.
