 Gaussian 16, Revision A.03,
 Gaussian 16:  EM64L-G16RevA.03 25-Dec-2016

 -------------
 #p 6-31g* mp2
 -------------

 ------------------------------------------------------
 Input file generated by CHIRIPA (05-May-2021 14:57:26)
 ------------------------------------------------------
 Symbolic Z-matrix:
 Charge =  0 Multiplicity = 1

                         Standard orientation:
 ---------------------------------------------------------------------
 Center     Atomic      Atomic             Coordinates (Angstroms)
 Number     Number       Type             X           Y           Z
 ---------------------------------------------------------------------
      1          6           0        0.434856   -1.733054    1.121494
      2          6           0        0.741010   -0.472355    1.644397
      3          6           0        1.867443    0.226255    1.199827
      4          6           0        2.669438   -0.368282    0.226883
      5          6           0        2.390887   -1.622762   -0.313467
      6          6           0        1.259318   -2.303229    0.145951
      7          1           0       -0.442179   -2.268704    1.472613
      8          1           0        0.102520   -0.027103    2.402107
      9          1           0        2.127820    1.203645    1.587551
     10          1           0        3.046308   -2.040828   -1.067829
     11          1           0        1.024004   -3.282158   -0.261934
     12          7           0        3.864660    0.361702   -0.251622
     13          8           0        4.555226   -0.183854   -1.109599
     14          8           0        4.088278    1.465596    0.240363
     15          6           0       -4.249323   -1.297343   -0.167599
     16          6           0       -3.127522   -1.487462   -0.981195
     17          6           0       -2.136752   -0.504696   -1.065421
     18          6           0       -2.300669    0.661250   -0.319102
     19          6           0       -3.406870    0.880105    0.500478
     20          6           0       -4.385177   -0.116248    0.569341
     21          1           0       -5.014137   -2.066056   -0.108137
     22          1           0       -3.019373   -2.403715   -1.554629
     23          1           0       -1.258163   -0.625906   -1.687360
     24          1           0       -3.486843    1.804006    1.060325
     25          1           0       -5.255322    0.034123    1.202019
     26          7           0       -1.258382    1.708851   -0.400138
     27          8           0       -1.426294    2.727157    0.267318
     28          8           0       -0.293261    1.491820   -1.129572
 ---------------------------------------------------------------------

 SCF Done:  E(RHF) =  -868.336725564     A.U. after   16 cycles
 E2 =    -0.2604415467D+01 EUMP2 =    -0.87094114103066D+03

 The electronic state is 1-A.
 Alpha  occ. eigenvalues --  -20.61272 -20.61228 -20.60101 -20.60064 -15.86277
 Alpha  occ. eigenvalues --  -15.85149 -11.31753 -11.30597 -11.28387 -11.28334
 Alpha  occ. eigenvalues --  -11.28153 -11.27401 -11.27386 -11.27370 -11.27223
 Alpha  occ. eigenvalues --  -11.27171 -11.26410 -11.26262  -1.60316  -1.59151
 Alpha  occ. eigenvalues --   -1.39867  -1.38706  -1.19979  -1.18866  -1.09344
 Alpha  occ. eigenvalues --   -1.08264  -1.05393  -1.04323  -0.96154  -0.95063
 Alpha  occ. eigenvalues --   -0.86773  -0.85724  -0.82985  -0.81910  -0.78011
 Alpha  occ. eigenvalues --   -0.76903  -0.72517  -0.71681  -0.71384  -0.71066
 Alpha  occ. eigenvalues --   -0.70447  -0.70035  -0.65618  -0.65381  -0.64552
 Alpha  occ. eigenvalues --   -0.64367  -0.62723  -0.61665  -0.55885  -0.54900
 Alpha  occ. eigenvalues --   -0.53787  -0.53478  -0.52558  -0.52437  -0.49285
 Alpha  occ. eigenvalues --   -0.49259  -0.48151  -0.48114  -0.45229  -0.44094
 Alpha  occ. eigenvalues --   -0.38170  -0.37387  -0.36292  -0.35869
 Alpha virt. eigenvalues --    0.04425   0.05669   0.10637   0.11734   0.15957
 Alpha virt. eigenvalues --    0.17079   0.20788   0.21732   0.26647   0.27606
 Alpha virt. eigenvalues --    0.27744   0.28617   0.30389   0.31133   0.31943

 Mulliken charges:
               1
     1  C   -0.168892
     2  C   -0.232049
     3  C   -0.153324
     4  C    0.164516
     5  C   -0.168936
     6  C   -0.226587
     7  H    0.222047
     8  H    0.222915
     9  H    0.281378
    10  H    0.274000
    11  H    0.216748
    12  N    0.488872
    13  O   -0.464297
    14  O   -0.456720
    15  C   -0.171965
    16  C   -0.225107
    17  C   -0.166800
    18  C    0.155971
    19  C   -0.174312
    20  C   -0.220115
    21  H    0.226725
    22  H    0.222927
    23  H    0.279327
    24  H    0.276508
    25  H    0.224850
    26  N    0.488463
    27  O   -0.462134
    28  O   -0.454008
 Sum of Mulliken charges =  -0.00000

 Dipole moment (field-independent basis, Debye):
    X=             -7.7616    Y=             -5.9474    Z=              1.9024  Tot=              9.9616
 Quadrupole moment (field-independent basis, Debye-Ang):
   XX=           -109.9385   YY=           -104.5918   ZZ=           -101.2873
   XY=             -1.3582   XZ=              1.5451   YZ=              5.0556

 Normal termination of Gaussian 16 at Fri May  7 06:38:05 2021.
