 Gaussian 16, Revision A.03,
 Gaussian 16:  EM64L-G16RevA.03 25-Dec-2016

 -------------
 #p 6-31g* mp2
 -------------

 ------------------------------------------------------
 Input file generated by CHIRIPA (05-May-2021 14:51:07)
 ------------------------------------------------------
 Symbolic Z-matrix:
 Charge =  0 Multiplicity = 1

                         Standard orientation:
 ---------------------------------------------------------------------
 Center     Atomic      Atomic             Coordinates (Angstroms)
 Number     Number       Type             X           Y           Z
 ---------------------------------------------------------------------
      1          6           0        5.069819   -0.391825   -0.421467
      2          6           0        6.305797   -0.591193    0.456370
      3          6           0        7.262270   -1.646241   -0.100252
      4          1           0        4.542002   -1.349914   -0.523539
      5          1           0        5.389309   -0.101761   -1.432003
      6          1           0        5.984022   -0.879448    1.465323
      7          1           0        6.830628    0.367524    0.556521
      8          1           0        7.611595   -1.361457   -1.097985
      9          1           0        6.760179   -2.615513   -0.184020
     10          1           0        8.138813   -1.772674    0.542823
     11          6           0        4.104104    0.659805    0.121855
     12          6           0        2.868127    0.859173   -0.755981
     13          6           0        1.911654    1.914221   -0.199359
     14          1           0        3.784614    0.369741    1.132392
     15          1           0        4.631921    1.617894    0.223927
     16          1           0        2.343296   -0.099544   -0.856133
     17          1           0        3.189901    1.147428   -1.764934
     18          1           0        2.413744    2.883493   -0.115592
     19          1           0        1.562328    1.629436    0.798374
     20          1           0        1.035110    2.040654   -0.842434
     21          6           0       -5.261155    0.060277   -0.152114
     22          6           0       -6.325834   -1.027800   -0.008815
     23          6           0       -7.669090   -0.624342   -0.617649
     24          1           0       -5.620549    0.981376    0.326799
     25          1           0       -5.126598    0.293830   -1.217357
     26          1           0       -6.457352   -1.260213    1.055752
     27          1           0       -5.963784   -1.946472   -0.487958
     28          1           0       -7.559536   -0.411927   -1.686049
     29          1           0       -8.055908    0.278231   -0.133568
     30          1           0       -8.415527   -1.416676   -0.504072
     31          6           0       -3.912768   -0.328256    0.451725
     32          6           0       -2.848090    0.759819    0.308427
     33          6           0       -1.504833    0.356362    0.917261
     34          1           0       -4.047325   -0.561810    1.516969
     35          1           0       -3.553375   -1.249355   -0.027188
     36          1           0       -3.210139    1.678491    0.787569
     37          1           0       -2.716572    0.992233   -0.756141
     38          1           0       -1.118016   -0.546211    0.433179
     39          1           0       -1.614387    0.143947    1.985660
     40          1           0       -0.758396    1.148696    0.803684
 ---------------------------------------------------------------------

 SCF Done:  E(RHF) =  -470.732709172     A.U. after   11 cycles
 E2 =    -0.1582541835D+01 EUMP2 =    -0.47231525100676D+03

 The electronic state is 1-A.
 Alpha  occ. eigenvalues --  -11.21596 -11.21595 -11.21583 -11.21551 -11.21397
 Alpha  occ. eigenvalues --  -11.21373 -11.21338 -11.21312 -11.21066 -11.21057
 Alpha  occ. eigenvalues --  -11.21055 -11.20926  -1.08426  -1.08393  -1.03546
 Alpha  occ. eigenvalues --   -1.03470  -0.96036  -0.95884  -0.87089  -0.86872
 Alpha  occ. eigenvalues --   -0.79641  -0.79509  -0.78236  -0.78209  -0.65061
 Alpha  occ. eigenvalues --   -0.65023  -0.60985  -0.60873  -0.59500  -0.59176
 Alpha  occ. eigenvalues --   -0.57611  -0.57537  -0.55313  -0.55195  -0.52912
 Alpha  occ. eigenvalues --   -0.52490  -0.52390  -0.52263  -0.49906  -0.49848
 Alpha  occ. eigenvalues --   -0.47912  -0.47861  -0.46609  -0.46590  -0.45779
 Alpha  occ. eigenvalues --   -0.45752  -0.45700  -0.45678  -0.43866  -0.43601
 Alpha virt. eigenvalues --    0.22174   0.23030   0.23604   0.25026   0.26504
 Alpha virt. eigenvalues --    0.26686   0.27138   0.27458   0.27589   0.28993
 Alpha virt. eigenvalues --    0.30593   0.31064   0.31327   0.31938   0.32220

 Mulliken charges:
               1
     1  C   -0.298328
     2  C   -0.299666
     3  C   -0.475704
     4  H    0.149691
     5  H    0.149459
     6  H    0.152008
     7  H    0.151915
     8  H    0.155145
     9  H    0.155182
    10  H    0.160244
    11  C   -0.298801
    12  C   -0.299588
    13  C   -0.479319
    14  H    0.150098
    15  H    0.149588
    16  H    0.152570
    17  H    0.151786
    18  H    0.155027
    19  H    0.158597
    20  H    0.161207
    21  C   -0.298196
    22  C   -0.299587
    23  C   -0.475675
    24  H    0.149582
    25  H    0.149393
    26  H    0.151868
    27  H    0.151853
    28  H    0.155138
    29  H    0.155155
    30  H    0.160169
    31  C   -0.298309
    32  C   -0.299206
    33  C   -0.483410
    34  H    0.149391
    35  H    0.149387
    36  H    0.151732
    37  H    0.151271
    38  H    0.153808
    39  H    0.153772
    40  H    0.170753
 Sum of Mulliken charges =  -0.00000

 Dipole moment (field-independent basis, Debye):
    X=              0.0398    Y=              0.0205    Z=              0.0013  Tot=              0.0448
 Quadrupole moment (field-independent basis, Debye-Ang):
   XX=            -86.3211   YY=            -84.6635   ZZ=            -83.9417
   XY=              0.9501   XZ=             -0.6884   YZ=             -0.1419

 Normal termination of Gaussian 16 at Thu May  6 00:28:17 2021.
