 Gaussian 16, Revision A.03,
 Gaussian 16:  EM64L-G16RevA.03 25-Dec-2016

 -------------
 #p 6-31g* mp2
 -------------

 ------------------------------------------------------
 Input file generated by CHIRIPA (05-May-2021 14:57:25)
 ------------------------------------------------------
 Symbolic Z-matrix:
 Charge =  0 Multiplicity = 1

                         Standard orientation:
 ---------------------------------------------------------------------
 Center     Atomic      Atomic             Coordinates (Angstroms)
 Number     Number       Type             X           Y           Z
 ---------------------------------------------------------------------
      1          6           0        1.568877    0.766536    0.537406
      2          6           0        2.484722    1.794889    0.291972
      3          6           0        3.814462    1.500933   -0.024148
      4          6           0        4.195843    0.161551   -0.086558
      5          6           0        3.306939   -0.885286    0.152754
      6          6           0        1.982180   -0.567917    0.467138
      7          1           0        0.537838    1.003982    0.782301
      8          1           0        2.166558    2.832152    0.345840
      9          1           0        4.544281    2.277404   -0.218762
     10          1           0        3.653730   -1.909698    0.091648
     11          1           0        1.273102   -1.368609    0.657263
     12          7           0        5.600943   -0.162040   -0.420301
     13          8           0        5.911926   -1.350127   -0.469031
     14          8           0        6.364671    0.778544   -0.626840
     15          6           0       -1.974972   -1.408577    1.023383
     16          6           0       -2.587961   -0.366306    1.726543
     17          6           0       -3.690805    0.302149    1.186680
     18          6           0       -4.156584   -0.099481   -0.064334
     19          6           0       -3.567430   -1.134133   -0.789374
     20          6           0       -2.465798   -1.788495   -0.230122
     21          1           0       -1.118727   -1.922375    1.450292
     22          1           0       -2.208930   -0.069120    2.700228
     23          1           0       -4.184405    1.112385    1.709456
     24          1           0       -3.967920   -1.407861   -1.757930
     25          1           0       -1.991737   -2.597586   -0.778469
     26          7           0       -5.323473    0.600722   -0.646126
     27          8           0       -5.714701    0.227872   -1.750010
     28          8           0       -5.824760    1.509133    0.012766
 ---------------------------------------------------------------------

 SCF Done:  E(RHF) =  -868.337047640     A.U. after   16 cycles
 E2 =    -0.2600390834D+01 EUMP2 =    -0.87093743847354D+03

 The electronic state is 1-A.
 Alpha  occ. eigenvalues --  -20.61536 -20.61529 -20.61177 -20.61168 -15.86594
 Alpha  occ. eigenvalues --  -15.86234 -11.32175 -11.31681 -11.28762 -11.28718
 Alpha  occ. eigenvalues --  -11.28643 -11.28323 -11.28245 -11.28020 -11.27887
 Alpha  occ. eigenvalues --  -11.27821 -11.27408 -11.27247  -1.60606  -1.60249
 Alpha  occ. eigenvalues --   -1.40153  -1.39800  -1.20378  -1.19876  -1.09761
 Alpha  occ. eigenvalues --   -1.09251  -1.05792  -1.05306  -0.96551  -0.96066
 Alpha  occ. eigenvalues --   -0.87189  -0.86706  -0.83359  -0.82908  -0.78347
 Alpha  occ. eigenvalues --   -0.77948  -0.72807  -0.72451  -0.71932  -0.71575
 Alpha  occ. eigenvalues --   -0.71554  -0.70958  -0.66029  -0.65803  -0.65531
 Alpha  occ. eigenvalues --   -0.65328  -0.63110  -0.62667  -0.56385  -0.55781
 Alpha  occ. eigenvalues --   -0.54117  -0.53874  -0.53615  -0.53393  -0.49584
 Alpha  occ. eigenvalues --   -0.49549  -0.49216  -0.49199  -0.45509  -0.45188
 Alpha  occ. eigenvalues --   -0.38419  -0.37852  -0.37387  -0.36912
 Alpha virt. eigenvalues --    0.04126   0.04616   0.10149   0.10743   0.15428
 Alpha virt. eigenvalues --    0.16080   0.18540   0.21914   0.24747   0.26210
 Alpha virt. eigenvalues --    0.27732   0.28817   0.29441   0.31326   0.31906

 Mulliken charges:
               1
     1  C   -0.173068
     2  C   -0.218679
     3  C   -0.169745
     4  C    0.158802
     5  C   -0.170789
     6  C   -0.219872
     7  H    0.227479
     8  H    0.225915
     9  H    0.277535
    10  H    0.275528
    11  H    0.212980
    12  N    0.488052
    13  O   -0.460255
    14  O   -0.458678
    15  C   -0.178523
    16  C   -0.223951
    17  C   -0.171071
    18  C    0.159861
    19  C   -0.169631
    20  C   -0.217389
    21  H    0.223194
    22  H    0.225597
    23  H    0.278401
    24  H    0.279498
    25  H    0.226456
    26  N    0.487823
    27  O   -0.457165
    28  O   -0.458302
 Sum of Mulliken charges =  -0.00000

 Dipole moment (field-independent basis, Debye):
    X=             -1.0463    Y=             -1.2196    Z=              3.1022  Tot=              3.4937
 Quadrupole moment (field-independent basis, Debye-Ang):
   XX=           -180.0862   YY=            -97.7948   ZZ=           -103.0484
   XY=             15.1568   XZ=             -3.6454   YZ=              2.5445

 Normal termination of Gaussian 16 at Thu May  6 21:17:12 2021.
