 Gaussian 16, Revision A.03,
 Gaussian 16:  EM64L-G16RevA.03 25-Dec-2016

 -------------
 #p 6-31g* mp2
 -------------

 ------------------------------------------------------
 Input file generated by CHIRIPA (05-May-2021 14:53:15)
 ------------------------------------------------------
 Symbolic Z-matrix:
 Charge =  0 Multiplicity = 1

                         Standard orientation:
 ---------------------------------------------------------------------
 Center     Atomic      Atomic             Coordinates (Angstroms)
 Number     Number       Type             X           Y           Z
 ---------------------------------------------------------------------
      1          6           0        2.499170    1.274864   -0.559774
      2          6           0        1.994366    2.385346    0.362174
      3          6           0        1.311056    3.521275   -0.399763
      4          1           0        3.200444    1.702984   -1.289070
      5          1           0        1.654081    0.874338   -1.136661
      6          1           0        2.839919    2.782716    0.938154
      7          1           0        1.294358    1.954499    1.089481
      8          1           0        0.449882    3.145053   -0.961401
      9          1           0        2.004224    3.977976   -1.113587
     10          1           0        0.957914    4.304226    0.278571
     11          6           0        3.184659    0.132139    0.187228
     12          6           0        3.689463   -0.978342   -0.734721
     13          6           0        4.372773   -2.114271    0.027217
     14          1           0        4.029748    0.532666    0.764115
     15          1           0        2.483385   -0.295980    0.916524
     16          1           0        4.389470   -0.547495   -1.462028
     17          1           0        2.843910   -1.375712   -1.310701
     18          1           0        3.679605   -2.570972    0.741040
     19          1           0        5.233947   -1.738049    0.588854
     20          1           0        4.725915   -2.897222   -0.651118
     21          6           0       -4.455760    0.424492   -0.502176
     22          6           0       -3.863042    0.780195    0.713834
     23          6           0       -2.624649    0.246661    1.082985
     24          6           0       -2.004124   -0.643784    0.208143
     25          6           0       -2.569104   -1.017656   -1.010178
     26          6           0       -3.808042   -0.471717   -1.358791
     27          1           0       -5.417986    0.843773   -0.780965
     28          1           0       -4.363773    1.475975    1.381069
     29          1           0       -2.143232    0.504847    2.018398
     30          1           0       -2.045767   -1.713654   -1.654479
     31          1           0       -4.265991   -0.749762   -2.303787
     32          7           0       -0.692805   -1.215178    0.588076
     33          8           0       -0.166538   -1.997628   -0.200248
     34          8           0       -0.216088   -0.869769    1.666997
 ---------------------------------------------------------------------

 SCF Done:  E(RHF) =  -669.537305073     A.U. after   15 cycles
 E2 =    -0.2092981045D+01 EUMP2 =    -0.67163028611798D+03

 The electronic state is 1-A.
 Alpha  occ. eigenvalues --  -20.61226 -20.61218 -15.86202 -11.31428 -11.27972
 Alpha  occ. eigenvalues --  -11.27969 -11.27691 -11.26955 -11.26945 -11.20772
 Alpha  occ. eigenvalues --  -11.20591 -11.20366 -11.20116 -11.19796 -11.19668
 Alpha  occ. eigenvalues --   -1.60248  -1.39807  -1.19581  -1.09005  -1.07244
 Alpha  occ. eigenvalues --   -1.04960  -1.02425  -0.95862  -0.94907  -0.86365
 Alpha  occ. eigenvalues --   -0.85928  -0.82699  -0.78537  -0.77766  -0.76985
 Alpha  occ. eigenvalues --   -0.72415  -0.71560  -0.70688  -0.65237  -0.64964
 Alpha  occ. eigenvalues --   -0.63843  -0.62307  -0.59810  -0.58328  -0.56505
 Alpha  occ. eigenvalues --   -0.55469  -0.54200  -0.53291  -0.53049  -0.51662
 Alpha  occ. eigenvalues --   -0.51335  -0.49289  -0.49189  -0.48741  -0.46853
 Alpha  occ. eigenvalues --   -0.45607  -0.45339  -0.44547  -0.44147  -0.42650
 Alpha  occ. eigenvalues --   -0.37550  -0.36553
 Alpha virt. eigenvalues --    0.04699   0.11092   0.16174   0.21192   0.23774
 Alpha virt. eigenvalues --    0.25400   0.27124   0.27512   0.28218   0.28810
 Alpha virt. eigenvalues --    0.29005   0.30978   0.32000   0.32508   0.32577

 Mulliken charges:
               1
     1  C   -0.296727
     2  C   -0.302782
     3  C   -0.474610
     4  H    0.144857
     5  H    0.144770
     6  H    0.150414
     7  H    0.157590
     8  H    0.150453
     9  H    0.154011
    10  H    0.155801
    11  C   -0.309469
    12  C   -0.298989
    13  C   -0.476499
    14  H    0.141891
    15  H    0.177595
    16  H    0.142380
    17  H    0.161293
    18  H    0.165249
    19  H    0.148882
    20  H    0.154471
    21  C   -0.170141
    22  C   -0.218424
    23  C   -0.170442
    24  C    0.158593
    25  C   -0.170728
    26  C   -0.218579
    27  H    0.226638
    28  H    0.224508
    29  H    0.276189
    30  H    0.276086
    31  H    0.224399
    32  N    0.489102
    33  O   -0.458816
    34  O   -0.458966
 Sum of Mulliken charges =  -0.00000

 Dipole moment (field-independent basis, Debye):
    X=             -4.9771    Y=              1.7727    Z=             -1.1996  Tot=              5.4179
 Quadrupole moment (field-independent basis, Debye-Ang):
   XX=            -77.2787   YY=            -97.7597   ZZ=            -92.0432
   XY=             -0.5949   XZ=              1.8226   YZ=              4.2682

 Normal termination of Gaussian 16 at Wed May  5 17:10:57 2021.
