 Gaussian 16, Revision A.03,
 Gaussian 16:  EM64L-G16RevA.03 25-Dec-2016

 -------------
 #p 6-31g* mp2
 -------------

 ------------------------------------------------------
 Input file generated by CHIRIPA (05-May-2021 14:51:13)
 ------------------------------------------------------
 Symbolic Z-matrix:
 Charge =  0 Multiplicity = 1

                         Standard orientation:
 ---------------------------------------------------------------------
 Center     Atomic      Atomic             Coordinates (Angstroms)
 Number     Number       Type             X           Y           Z
 ---------------------------------------------------------------------
      1          6           0        2.957635   -1.180156    0.427122
      2          6           0        1.482718   -0.926956    0.740961
      3          6           0        0.808108   -2.122130    1.414946
      4          1           0        3.041734   -2.063670   -0.220393
      5          1           0        3.486950   -1.423847    1.358699
      6          1           0        0.956618   -0.682460   -0.190734
      7          1           0        1.402107   -0.043829    1.387648
      8          1           0        1.306999   -2.364227    2.358926
      9          1           0        0.858979   -3.006487    0.771576
     10          1           0       -0.245639   -1.919464    1.630360
     11          6           0        3.645818    0.005542   -0.246860
     12          6           0        5.120735   -0.247658   -0.560700
     13          6           0        5.795345    0.947515   -1.234685
     14          1           0        3.116503    0.249232   -1.178437
     15          1           0        3.561719    0.889056    0.400654
     16          1           0        5.201346   -1.130786   -1.207386
     17          1           0        5.646835   -0.492154    0.370996
     18          1           0        5.744474    1.831872   -0.591315
     19          1           0        5.296454    1.189613   -2.178665
     20          1           0        6.849092    0.744850   -1.450098
     21          6           0       -3.552479    0.022137   -0.538615
     22          6           0       -5.017815   -0.340466   -0.295103
     23          6           0       -5.504837   -1.472736   -1.199851
     24          1           0       -3.422579    0.310004   -1.590853
     25          1           0       -2.930058   -0.869269   -0.379299
     26          1           0       -5.637145    0.551700   -0.453482
     27          1           0       -5.144278   -0.627318    0.756723
     28          1           0       -4.911792   -2.378425   -1.036668
     29          1           0       -5.407460   -1.192707   -2.253750
     30          1           0       -6.554779   -1.715750   -1.009003
     31          6           0       -3.050974    1.152477    0.358354
     32          6           0       -1.585639    1.515081    0.114841
     33          6           0       -1.098617    2.647351    1.019589
     34          1           0       -3.673395    2.043884    0.199038
     35          1           0       -3.180873    0.864611    1.410591
     36          1           0       -1.459175    1.801933   -0.936985
     37          1           0       -0.966308    0.622914    0.273221
     38          1           0       -1.195992    2.367322    2.073488
     39          1           0       -1.691660    3.553039    0.856407
     40          1           0       -0.048673    2.890365    0.828742
 ---------------------------------------------------------------------

 SCF Done:  E(RHF) =  -470.732877901     A.U. after   11 cycles
 E2 =    -0.1583417141D+01 EUMP2 =    -0.47231629504205D+03

 The electronic state is 1-A.
 Alpha  occ. eigenvalues --  -11.21629 -11.21617 -11.21586 -11.21465 -11.21429
 Alpha  occ. eigenvalues --  -11.21374 -11.21369 -11.21306 -11.21154 -11.21082
 Alpha  occ. eigenvalues --  -11.21059 -11.21024  -1.08472  -1.08382  -1.03596
 Alpha  occ. eigenvalues --   -1.03464  -0.96023  -0.95942  -0.87033  -0.86960
 Alpha  occ. eigenvalues --   -0.79748  -0.79471  -0.78357  -0.78116  -0.65099
 Alpha  occ. eigenvalues --   -0.65027  -0.60976  -0.60918  -0.59465  -0.59229
 Alpha  occ. eigenvalues --   -0.57675  -0.57502  -0.55303  -0.55233  -0.52723
 Alpha  occ. eigenvalues --   -0.52628  -0.52444  -0.52368  -0.49977  -0.49875
 Alpha  occ. eigenvalues --   -0.48147  -0.47753  -0.46746  -0.46525  -0.45967
 Alpha  occ. eigenvalues --   -0.45764  -0.45707  -0.45358  -0.43818  -0.43738
 Alpha virt. eigenvalues --    0.20924   0.23008   0.23775   0.24556   0.25912
 Alpha virt. eigenvalues --    0.26568   0.26726   0.27315   0.28564   0.29100
 Alpha virt. eigenvalues --    0.30994   0.31357   0.31545   0.31777   0.32678

 Mulliken charges:
               1
     1  C   -0.297099
     2  C   -0.304752
     3  C   -0.477813
     4  H    0.149682
     5  H    0.149475
     6  H    0.154687
     7  H    0.154025
     8  H    0.155931
     9  H    0.155721
    10  H    0.160098
    11  C   -0.298478
    12  C   -0.299677
    13  C   -0.475732
    14  H    0.149779
    15  H    0.149538
    16  H    0.151997
    17  H    0.151974
    18  H    0.155208
    19  H    0.155227
    20  H    0.160322
    21  C   -0.298811
    22  C   -0.299533
    23  C   -0.475722
    24  H    0.149506
    25  H    0.149257
    26  H    0.151994
    27  H    0.151876
    28  H    0.155208
    29  H    0.155075
    30  H    0.160217
    31  C   -0.297323
    32  C   -0.310637
    33  C   -0.475428
    34  H    0.149138
    35  H    0.148925
    36  H    0.150659
    37  H    0.166070
    38  H    0.154331
    39  H    0.154857
    40  H    0.160229
 Sum of Mulliken charges =  -0.00000

 Dipole moment (field-independent basis, Debye):
    X=              0.0447    Y=             -0.0204    Z=             -0.0032  Tot=              0.0492
 Quadrupole moment (field-independent basis, Debye-Ang):
   XX=            -85.3889   YY=            -85.5063   ZZ=            -84.0236
   XY=             -0.9591   XZ=              0.4739   YZ=             -0.2441

 Normal termination of Gaussian 16 at Thu May  6 03:58:47 2021.
