 Gaussian 16, Revision A.03,
 Gaussian 16:  EM64L-G16RevA.03 25-Dec-2016

 -------------
 #p 6-31g* mp2
 -------------

 ------------------------------------------------------
 Input file generated by CHIRIPA (05-May-2021 14:51:14)
 ------------------------------------------------------
 Symbolic Z-matrix:
 Charge =  0 Multiplicity = 1

                         Standard orientation:
 ---------------------------------------------------------------------
 Center     Atomic      Atomic             Coordinates (Angstroms)
 Number     Number       Type             X           Y           Z
 ---------------------------------------------------------------------
      1          6           0        2.621229    0.544129    0.143042
      2          6           0        3.606771    1.162112   -0.849323
      3          6           0        3.580854    2.690800   -0.833945
      4          1           0        1.607153    0.897430   -0.088848
      5          1           0        2.854573    0.905575    1.154132
      6          1           0        3.372502    0.798525   -1.858055
      7          1           0        4.618594    0.807148   -0.615162
      8          1           0        3.836125    3.070432    0.160700
      9          1           0        2.582953    3.061761   -1.089255
     10          1           0        4.292884    3.111626   -1.550728
     11          6           0        2.635479   -0.983455    0.139353
     12          6           0        1.649938   -1.601438    1.131719
     13          6           0        1.675855   -3.130125    1.116340
     14          1           0        2.402136   -1.344901   -0.871737
     15          1           0        3.649555   -1.336756    0.371243
     16          1           0        0.638115   -1.246474    0.897558
     17          1           0        1.884207   -1.237851    2.140450
     18          1           0        2.673756   -3.501086    1.371650
     19          1           0        1.420584   -3.509758    0.121696
     20          1           0        0.963825   -3.550951    1.833123
     21          6           0       -2.216481   -0.400410   -0.312378
     22          6           0       -3.063756   -1.574317   -0.804368
     23          6           0       -2.225534   -2.807455   -1.142819
     24          1           0       -1.476488   -0.142476   -1.082328
     25          1           0       -1.648496   -0.713546    0.574601
     26          1           0       -3.631028   -1.258642   -1.689335
     27          1           0       -3.801945   -1.829362   -0.033236
     28          1           0       -1.671080   -3.149699   -0.263017
     29          1           0       -1.499192   -2.575737   -1.928527
     30          1           0       -2.851217   -3.634587   -1.492436
     31          6           0       -3.040227    0.839736    0.029982
     32          6           0       -2.192953    2.013643    0.521973
     33          6           0       -3.031175    3.246781    0.860424
     34          1           0       -3.608213    1.152872   -0.856996
     35          1           0       -3.780222    0.581802    0.799933
     36          1           0       -1.454763    2.268687   -0.249159
     37          1           0       -1.625680    1.697968    1.406941
     38          1           0       -3.757516    3.015063    1.646131
     39          1           0       -3.585628    3.589025   -0.019378
     40          1           0       -2.405492    4.073913    1.210041
 ---------------------------------------------------------------------

 SCF Done:  E(RHF) =  -470.733315362     A.U. after   11 cycles
 E2 =    -0.1583853889D+01 EUMP2 =    -0.47231716925068D+03

 The electronic state is 1-A.
 Alpha  occ. eigenvalues --  -11.21662 -11.21653 -11.21571 -11.21493 -11.21473
 Alpha  occ. eigenvalues --  -11.21412 -11.21346 -11.21287 -11.21114 -11.21103
 Alpha  occ. eigenvalues --  -11.21053 -11.21024  -1.08503  -1.08369  -1.03586
 Alpha  occ. eigenvalues --   -1.03478  -0.96032  -0.95934  -0.87057  -0.86942
 Alpha  occ. eigenvalues --   -0.79658  -0.79541  -0.78406  -0.78104  -0.65156
 Alpha  occ. eigenvalues --   -0.64985  -0.61022  -0.60848  -0.59407  -0.59291
 Alpha  occ. eigenvalues --   -0.57648  -0.57545  -0.55326  -0.55219  -0.52721
 Alpha  occ. eigenvalues --   -0.52633  -0.52476  -0.52355  -0.50031  -0.49815
 Alpha  occ. eigenvalues --   -0.48053  -0.47804  -0.46764  -0.46615  -0.46162
 Alpha  occ. eigenvalues --   -0.45761  -0.45691  -0.45176  -0.43839  -0.43734
 Alpha virt. eigenvalues --    0.20602   0.22492   0.23474   0.24830   0.25238
 Alpha virt. eigenvalues --    0.26118   0.26713   0.27519   0.28829   0.30234
 Alpha virt. eigenvalues --    0.30896   0.31252   0.31635   0.31674   0.32348

 Mulliken charges:
               1
     1  C   -0.300301
     2  C   -0.299591
     3  C   -0.475530
     4  H    0.151787
     5  H    0.149237
     6  H    0.151558
     7  H    0.151901
     8  H    0.155204
     9  H    0.154853
    10  H    0.160077
    11  C   -0.297259
    12  C   -0.309299
    13  C   -0.476116
    14  H    0.149174
    15  H    0.149268
    16  H    0.161685
    17  H    0.150869
    18  H    0.154934
    19  H    0.156727
    20  H    0.158849
    21  C   -0.305236
    22  C   -0.299253
    23  C   -0.478448
    24  H    0.149247
    25  H    0.156112
    26  H    0.152139
    27  H    0.152141
    28  H    0.158490
    29  H    0.154536
    30  H    0.160684
    31  C   -0.297545
    32  C   -0.300739
    33  C   -0.475796
    34  H    0.149710
    35  H    0.149914
    36  H    0.151755
    37  H    0.152970
    38  H    0.155362
    39  H    0.155232
    40  H    0.160699
 Sum of Mulliken charges =  -0.00000

 Dipole moment (field-independent basis, Debye):
    X=             -0.0589    Y=              0.0053    Z=              0.0033  Tot=              0.0592
 Quadrupole moment (field-independent basis, Debye-Ang):
   XX=            -84.4824   YY=            -86.8526   ZZ=            -83.4522
   XY=              0.4158   XZ=              0.5266   YZ=             -0.4223

 Normal termination of Gaussian 16 at Wed May  5 23:16:01 2021.
