 Gaussian 16, Revision A.03,
 Gaussian 16:  EM64L-G16RevA.03 25-Dec-2016

 -------------
 #p 6-31g* mp2
 -------------

 ------------------------------------------------------
 Input file generated by CHIRIPA (05-May-2021 14:55:22)
 ------------------------------------------------------
 Symbolic Z-matrix:
 Charge =  0 Multiplicity = 1

                         Standard orientation:
 ---------------------------------------------------------------------
 Center     Atomic      Atomic             Coordinates (Angstroms)
 Number     Number       Type             X           Y           Z
 ---------------------------------------------------------------------
      1          6           0        1.718334    2.252148    0.441742
      2          6           0        1.401492    0.974563    0.914932
      3          6           0        2.274152   -0.097199    0.704365
      4          6           0        3.460410    0.145461    0.013570
      5          6           0        3.804277    1.406822   -0.470179
      6          6           0        2.916604    2.463827   -0.248088
      7          1           0        1.034600    3.078986    0.609792
      8          1           0        0.471604    0.807234    1.450986
      9          1           0        2.053735   -1.096434    1.059841
     10          1           0        4.738649    1.542673   -1.001133
     11          1           0        3.165275    3.454949   -0.616711
     12          7           0        4.392204   -0.981354   -0.215448
     13          8           0        5.431040   -0.741440   -0.826919
     14          8           0        4.066063   -2.083129    0.220855
     15          6           0       -3.481966   -0.343465    0.049547
     16          6           0       -2.711983   -1.662253   -0.027315
     17          6           0       -1.211231   -1.484989    0.205312
     18          1           0       -3.074349    0.355607   -0.693483
     19          1           0       -3.314164    0.114187    1.034326
     20          1           0       -2.882300   -2.117960   -1.011154
     21          1           0       -3.121606   -2.358333    0.715853
     22          1           0       -1.022958   -1.052864    1.193452
     23          1           0       -0.782292   -0.811125   -0.543368
     24          1           0       -0.680191   -2.440150    0.145953
     25          6           0       -4.983544   -0.504340   -0.180913
     26          6           0       -5.753527    0.814449   -0.104053
     27          6           0       -7.254278    0.637185   -0.336679
     28          1           0       -5.151345   -0.961992   -1.165694
     29          1           0       -5.391160   -1.203411    0.562116
     30          1           0       -5.343903    1.510528   -0.847220
     31          1           0       -5.583209    1.270155    0.879786
     32          1           0       -7.683217   -0.036679    0.412000
     33          1           0       -7.442551    0.205059   -1.324820
     34          1           0       -7.785318    1.592346   -0.277321
 ---------------------------------------------------------------------

 SCF Done:  E(RHF) =  -669.534857174     A.U. after   15 cycles
 E2 =    -0.2091984398D+01 EUMP2 =    -0.67162684157238D+03

 The electronic state is 1-A.
 Alpha  occ. eigenvalues --  -20.60700 -20.60695 -15.85752 -11.31097 -11.27665
 Alpha  occ. eigenvalues --  -11.27629 -11.27395 -11.26690 -11.26612 -11.22183
 Alpha  occ. eigenvalues --  -11.22060 -11.22008 -11.21853 -11.21830 -11.21442
 Alpha  occ. eigenvalues --   -1.59776  -1.39330  -1.19268  -1.08979  -1.08668
 Alpha  occ. eigenvalues --   -1.04675  -1.04071  -0.96551  -0.95505  -0.87583
 Alpha  occ. eigenvalues --   -0.86062  -0.82344  -0.80158  -0.78796  -0.77372
 Alpha  occ. eigenvalues --   -0.71971  -0.71099  -0.70375  -0.65607  -0.64918
 Alpha  occ. eigenvalues --   -0.64688  -0.62054  -0.61456  -0.59902  -0.58144
 Alpha  occ. eigenvalues --   -0.55852  -0.55172  -0.53299  -0.53215  -0.52875
 Alpha  occ. eigenvalues --   -0.52557  -0.50485  -0.48735  -0.48726  -0.48434
 Alpha  occ. eigenvalues --   -0.47171  -0.46330  -0.46248  -0.44739  -0.44326
 Alpha  occ. eigenvalues --   -0.37256  -0.36222
 Alpha virt. eigenvalues --    0.05128   0.11370   0.16580   0.20477   0.22470
 Alpha virt. eigenvalues --    0.23829   0.25425   0.26421   0.26888   0.28178
 Alpha virt. eigenvalues --    0.28961   0.29581   0.31300   0.31530   0.32225

 Mulliken charges:
               1
     1  C   -0.172924
     2  C   -0.217665
     3  C   -0.171252
     4  C    0.157966
     5  C   -0.171546
     6  C   -0.218604
     7  H    0.225336
     8  H    0.227152
     9  H    0.276854
    10  H    0.275145
    11  H    0.222899
    12  N    0.488199
    13  O   -0.460830
    14  O   -0.460608
    15  C   -0.298664
    16  C   -0.300402
    17  C   -0.482064
    18  H    0.148993
    19  H    0.145177
    20  H    0.156166
    21  H    0.154310
    22  H    0.143685
    23  H    0.161066
    24  H    0.167543
    25  C   -0.298557
    26  C   -0.299869
    27  C   -0.475983
    28  H    0.151627
    29  H    0.151168
    30  H    0.151460
    31  H    0.150901
    32  H    0.156104
    33  H    0.156334
    34  H    0.160884
 Sum of Mulliken charges =  -0.00000

 Dipole moment (field-independent basis, Debye):
    X=             -3.4405    Y=              3.8906    Z=              0.7362  Tot=              5.2456
 Quadrupole moment (field-independent basis, Debye-Ang):
   XX=           -116.8664   YY=            -91.9609   ZZ=            -93.3238
   XY=             15.7545   XZ=              0.8950   YZ=             -1.6035

 Normal termination of Gaussian 16 at Wed May  5 22:16:42 2021.
