 Gaussian 16, Revision A.03,
 Gaussian 16:  EM64L-G16RevA.03 25-Dec-2016

 -------------
 #p 6-31g* mp2
 -------------

 ------------------------------------------------------
 Input file generated by CHIRIPA (05-May-2021 14:53:15)
 ------------------------------------------------------
 Symbolic Z-matrix:
 Charge =  0 Multiplicity = 1

                         Standard orientation:
 ---------------------------------------------------------------------
 Center     Atomic      Atomic             Coordinates (Angstroms)
 Number     Number       Type             X           Y           Z
 ---------------------------------------------------------------------
      1          6           0        4.561512   -0.112759   -0.276045
      2          6           0        5.472076    1.106261   -0.427208
      3          6           0        6.567519    0.899731   -1.473699
      4          1           0        5.170409   -0.985838   -0.004159
      5          1           0        4.102918   -0.341933   -1.247933
      6          1           0        5.927742    1.333907    0.544987
      7          1           0        4.860916    1.976581   -0.698577
      8          1           0        6.128631    0.694937   -2.455553
      9          1           0        7.201518    0.048611   -1.204923
     10          1           0        7.206794    1.783341   -1.565468
     11          6           0        3.461390    0.078388    0.766511
     12          6           0        2.550826   -1.140631    0.917674
     13          6           0        1.455382   -0.934102    1.964165
     14          1           0        3.919983    0.307562    1.738399
     15          1           0        2.852493    0.951468    0.494625
     16          1           0        3.161986   -2.010952    1.189044
     17          1           0        2.095160   -1.368277   -0.054520
     18          1           0        0.821383   -0.082982    1.695389
     19          1           0        1.894271   -0.729308    2.946019
     20          1           0        0.816108   -1.817712    2.055935
     21          6           0       -4.249391    2.242880    0.197307
     22          6           0       -4.931854    1.227521   -0.480787
     23          6           0       -4.323631   -0.011719   -0.701918
     24          6           0       -3.026109   -0.202110   -0.229185
     25          6           0       -2.320112    0.789789    0.449781
     26          6           0       -2.947993    2.021165    0.659612
     27          1           0       -4.729509    3.202496    0.364698
     28          1           0       -5.942622    1.396885   -0.840940
     29          1           0       -4.828992   -0.815184   -1.223907
     30          1           0       -1.313413    0.591225    0.796980
     31          1           0       -2.415575    2.807882    1.186540
     32          7           0       -2.371805   -1.509874   -0.457305
     33          8           0       -1.227940   -1.652505   -0.030849
     34          8           0       -3.015216   -2.367506   -1.058243
 ---------------------------------------------------------------------

 SCF Done:  E(RHF) =  -669.535315812     A.U. after   15 cycles
 E2 =    -0.2091998870D+01 EUMP2 =    -0.67162731468190D+03

 The electronic state is 1-A.
 Alpha  occ. eigenvalues --  -20.60856 -20.60843 -15.85894 -11.31228 -11.27798
 Alpha  occ. eigenvalues --  -11.27778 -11.27539 -11.26809 -11.26796 -11.21333
 Alpha  occ. eigenvalues --  -11.20995 -11.20919 -11.20834 -11.20801 -11.20331
 Alpha  occ. eigenvalues --   -1.59925  -1.39479  -1.19401  -1.08804  -1.07970
 Alpha  occ. eigenvalues --   -1.04800  -1.03022  -0.95677  -0.95460  -0.86526
 Alpha  occ. eigenvalues --   -0.86198  -0.82477  -0.79113  -0.77778  -0.77520
 Alpha  occ. eigenvalues --   -0.72131  -0.71242  -0.70518  -0.65063  -0.64827
 Alpha  occ. eigenvalues --   -0.64587  -0.62176  -0.60403  -0.58845  -0.57069
 Alpha  occ. eigenvalues --   -0.55322  -0.54800  -0.53132  -0.52904  -0.52143
 Alpha  occ. eigenvalues --   -0.51917  -0.49511  -0.48873  -0.48821  -0.47420
 Alpha  occ. eigenvalues --   -0.46146  -0.45335  -0.45235  -0.44869  -0.43262
 Alpha  occ. eigenvalues --   -0.37383  -0.36401
 Alpha virt. eigenvalues --    0.04989   0.11252   0.16474   0.20638   0.23223
 Alpha virt. eigenvalues --    0.24219   0.26188   0.27347   0.27770   0.28012
 Alpha virt. eigenvalues --    0.29431   0.30675   0.31490   0.32239   0.32567

 Mulliken charges:
               1
     1  C   -0.298089
     2  C   -0.298984
     3  C   -0.475460
     4  H    0.149974
     5  H    0.150950
     6  H    0.150780
     7  H    0.149727
     8  H    0.155400
     9  H    0.155396
    10  H    0.158689
    11  C   -0.297358
    12  C   -0.302131
    13  C   -0.470939
    14  H    0.146731
    15  H    0.143578
    16  H    0.150692
    17  H    0.164997
    18  H    0.140283
    19  H    0.146700
    20  H    0.177126
    21  C   -0.170209
    22  C   -0.219210
    23  C   -0.169624
    24  C    0.153947
    25  C   -0.175851
    26  C   -0.222971
    27  H    0.225814
    28  H    0.223564
    29  H    0.275710
    30  H    0.290180
    31  H    0.224235
    32  N    0.491105
    33  O   -0.464974
    34  O   -0.459778
 Sum of Mulliken charges =  -0.00000

 Dipole moment (field-independent basis, Debye):
    X=             -2.4498    Y=              4.4256    Z=              0.7355  Tot=              5.1116
 Quadrupole moment (field-independent basis, Debye-Ang):
   XX=            -78.5029   YY=            -96.3254   ZZ=            -94.9998
   XY=            -12.8007   XZ=              1.1978   YZ=             -0.6892

 Normal termination of Gaussian 16 at Wed May  5 23:29:18 2021.
