 Gaussian 16, Revision A.03,
 Gaussian 16:  EM64L-G16RevA.03 25-Dec-2016

 -------------
 #p 6-31g* mp2
 -------------

 ------------------------------------------------------
 Input file generated by CHIRIPA (05-May-2021 14:51:13)
 ------------------------------------------------------
 Symbolic Z-matrix:
 Charge =  0 Multiplicity = 1

                         Standard orientation:
 ---------------------------------------------------------------------
 Center     Atomic      Atomic             Coordinates (Angstroms)
 Number     Number       Type             X           Y           Z
 ---------------------------------------------------------------------
      1          6           0        1.706849   -1.079409    0.085276
      2          6           0        2.027500   -2.520887   -0.311347
      3          6           0        0.829755   -3.457965   -0.152964
      4          1           0        1.360453   -1.061064    1.127686
      5          1           0        0.871293   -0.714897   -0.528216
      6          1           0        2.863109   -2.882106    0.301755
      7          1           0        2.373355   -2.535778   -1.352874
      8          1           0       -0.005469   -3.124503   -0.777308
      9          1           0        0.487069   -3.472798    0.886723
     10          1           0        1.081165   -4.483209   -0.441971
     11          6           0        2.894316   -0.130580   -0.067605
     12          6           0        2.573664    1.310897    0.329018
     13          6           0        3.771410    2.247975    0.170635
     14          1           0        3.729872   -0.495092    0.545887
     15          1           0        3.240711   -0.148925   -1.110015
     16          1           0        2.227810    1.325788    1.370545
     17          1           0        1.738055    1.672116   -0.284084
     18          1           0        4.114096    2.262809   -0.869051
     19          1           0        4.606634    1.914513    0.794979
     20          1           0        3.519999    3.273220    0.459642
     21          6           0       -2.787731    0.037672    0.146932
     22          6           0       -2.176224   -1.352504   -0.030418
     23          6           0       -3.163050   -2.477019    0.284912
     24          1           0       -3.148810    0.143488    1.179100
     25          1           0       -3.668802    0.128720   -0.503312
     26          1           0       -1.295757   -1.440414    0.618941
     27          1           0       -1.816386   -1.454953   -1.062230
     28          1           0       -4.037349   -2.417594   -0.371344
     29          1           0       -3.513761   -2.402971    1.319378
     30          1           0       -2.705132   -3.462111    0.151622
     31          6           0       -1.813434    1.172317   -0.164604
     32          6           0       -2.424941    2.562494    0.012746
     33          6           0       -1.438114    3.687009   -0.302583
     34          1           0       -0.932362    1.081270    0.485641
     35          1           0       -1.452355    1.066501   -1.196772
     36          1           0       -2.784779    2.664943    1.044558
     37          1           0       -3.305408    2.650403   -0.636612
     38          1           0       -1.087404    3.612960   -1.337049
     39          1           0       -0.563816    3.627584    0.353673
     40          1           0       -1.896032    4.672100   -0.169294
 ---------------------------------------------------------------------

 SCF Done:  E(RHF) =  -470.730917305     A.U. after   11 cycles
 E2 =    -0.1586533310D+01 EUMP2 =    -0.47231745061526D+03

 The electronic state is 1-A.
 Alpha  occ. eigenvalues --  -11.21587 -11.21574 -11.21558 -11.21473 -11.21356
 Alpha  occ. eigenvalues --  -11.21355 -11.21295 -11.21278 -11.21069 -11.21054
 Alpha  occ. eigenvalues --  -11.21001 -11.20957  -1.08488  -1.08314  -1.03600
 Alpha  occ. eigenvalues --   -1.03400  -0.96027  -0.95866  -0.86980  -0.86948
 Alpha  occ. eigenvalues --   -0.79837  -0.79360  -0.78666  -0.77774  -0.65056
 Alpha  occ. eigenvalues --   -0.65007  -0.60976  -0.60859  -0.59556  -0.59098
 Alpha  occ. eigenvalues --   -0.57913  -0.57238  -0.55260  -0.55186  -0.52650
 Alpha  occ. eigenvalues --   -0.52640  -0.52487  -0.52243  -0.49921  -0.49862
 Alpha  occ. eigenvalues --   -0.48297  -0.47557  -0.46664  -0.46653  -0.46500
 Alpha  occ. eigenvalues --   -0.45916  -0.45430  -0.44658  -0.43776  -0.43682
 Alpha virt. eigenvalues --    0.21481   0.22211   0.23400   0.24695   0.24937
 Alpha virt. eigenvalues --    0.25622   0.25915   0.27723   0.29081   0.29512
 Alpha virt. eigenvalues --    0.30711   0.30880   0.31488   0.31947   0.32241

 Mulliken charges:
               1
     1  C   -0.305497
     2  C   -0.298515
     3  C   -0.481545
     4  H    0.147202
     5  H    0.159341
     6  H    0.151255
     7  H    0.151296
     8  H    0.163935
     9  H    0.153986
    10  H    0.159250
    11  C   -0.297443
    12  C   -0.303932
    13  C   -0.475594
    14  H    0.149040
    15  H    0.149314
    16  H    0.150412
    17  H    0.157149
    18  H    0.155217
    19  H    0.155032
    20  H    0.160234
    21  C   -0.296909
    22  C   -0.306177
    23  C   -0.477801
    24  H    0.149074
    25  H    0.148684
    26  H    0.162968
    27  H    0.148669
    28  H    0.154592
    29  H    0.154762
    30  H    0.162559
    31  C   -0.303687
    32  C   -0.299369
    33  C   -0.477289
    34  H    0.156567
    35  H    0.147666
    36  H    0.151857
    37  H    0.151757
    38  H    0.154563
    39  H    0.157129
    40  H    0.160251
 Sum of Mulliken charges =  -0.00000

 Dipole moment (field-independent basis, Debye):
    X=             -0.0062    Y=              0.0021    Z=             -0.0001  Tot=              0.0065
 Quadrupole moment (field-independent basis, Debye-Ang):
   XX=            -85.8835   YY=            -86.3889   ZZ=            -82.9277
   XY=             -1.1350   XZ=              0.6413   YZ=              0.0665

 Normal termination of Gaussian 16 at Thu May  6 02:24:38 2021.
