 Gaussian 16, Revision A.03,
 Gaussian 16:  EM64L-G16RevA.03 25-Dec-2016

 -------------
 #p 6-31g* mp2
 -------------

 ------------------------------------------------------
 Input file generated by CHIRIPA (05-May-2021 14:57:24)
 ------------------------------------------------------
 Symbolic Z-matrix:
 Charge =  0 Multiplicity = 1

                         Standard orientation:
 ---------------------------------------------------------------------
 Center     Atomic      Atomic             Coordinates (Angstroms)
 Number     Number       Type             X           Y           Z
 ---------------------------------------------------------------------
      1          6           0        0.761817    1.884410   -0.390626
      2          6           0        0.628008    0.561830   -0.825827
      3          6           0        1.720398   -0.310073   -0.793984
      4          6           0        2.937357    0.176152   -0.318708
      5          6           0        3.102319    1.488417    0.121792
      6          6           0        1.996369    2.342674    0.080963
      7          1           0       -0.092045    2.554872   -0.418853
      8          1           0       -0.329554    0.203195   -1.192571
      9          1           0        1.644731   -1.338783   -1.124815
     10          1           0        4.069589    1.817031    0.482098
     11          1           0        2.103214    3.369302    0.419584
     12          7           0        4.100999   -0.737552   -0.280240
     13          8           0        5.162398   -0.284794    0.142938
     14          8           0        3.929630   -1.889171   -0.673997
     15          6           0       -0.906014   -0.934785    1.941286
     16          6           0       -1.292168   -1.840141    0.947436
     17          6           0       -2.310209   -1.513876    0.046497
     18          6           0       -2.923416   -0.267959    0.168796
     19          6           0       -2.561096    0.655511    1.148193
     20          6           0       -1.540592    0.307960    2.038322
     21          1           0       -0.114219   -1.196504    2.636959
     22          1           0       -0.801108   -2.805989    0.869707
     23          1           0       -2.628933   -2.195854   -0.732438
     24          1           0       -3.069164    1.610773    1.200708
     25          1           0       -1.242774    1.013054    2.809160
     26          7           0       -4.002475    0.088710   -0.779265
     27          8           0       -4.527045    1.192734   -0.650441
     28          8           0       -4.303237   -0.742508   -1.633229
 ---------------------------------------------------------------------

 SCF Done:  E(RHF) =  -868.335650945     A.U. after   16 cycles
 E2 =    -0.2605726954D+01 EUMP2 =    -0.87094137789918D+03

 The electronic state is 1-A.
 Alpha  occ. eigenvalues --  -20.61685 -20.61673 -20.61159 -20.61147 -15.86740
 Alpha  occ. eigenvalues --  -15.86203 -11.32189 -11.31503 -11.28731 -11.28683
 Alpha  occ. eigenvalues --  -11.28289 -11.28016 -11.27978 -11.27659 -11.27658
 Alpha  occ. eigenvalues --  -11.27625 -11.27054 -11.26864  -1.60766  -1.60235
 Alpha  occ. eigenvalues --   -1.40312  -1.39790  -1.20363  -1.19627  -1.09675
 Alpha  occ. eigenvalues --   -1.09036  -1.05731  -1.05012  -0.96506  -0.95891
 Alpha  occ. eigenvalues --   -0.87087  -0.86421  -0.83324  -0.82723  -0.78400
 Alpha  occ. eigenvalues --   -0.77803  -0.72932  -0.72419  -0.72123  -0.71565
 Alpha  occ. eigenvalues --   -0.71329  -0.70728  -0.65933  -0.65656  -0.65271
 Alpha  occ. eigenvalues --   -0.65056  -0.63042  -0.62423  -0.56097  -0.55518
 Alpha  occ. eigenvalues --   -0.54654  -0.53754  -0.53242  -0.52560  -0.49704
 Alpha  occ. eigenvalues --   -0.49697  -0.49184  -0.49162  -0.45694  -0.45210
 Alpha  occ. eigenvalues --   -0.38585  -0.37987  -0.36920  -0.36254
 Alpha virt. eigenvalues --    0.03998   0.04774   0.10157   0.11099   0.15478
 Alpha virt. eigenvalues --    0.16408   0.20414   0.21428   0.25926   0.27121
 Alpha virt. eigenvalues --    0.27512   0.28347   0.30097   0.30748   0.31759

 Mulliken charges:
               1
     1  C   -0.174065
     2  C   -0.209810
     3  C   -0.177726
     4  C    0.157098
     5  C   -0.174033
     6  C   -0.220826
     7  H    0.225898
     8  H    0.230071
     9  H    0.271135
    10  H    0.275048
    11  H    0.223005
    12  N    0.487814
    13  O   -0.459700
    14  O   -0.462245
    15  C   -0.164283
    16  C   -0.219001
    17  C   -0.184456
    18  C    0.155286
    19  C   -0.179527
    20  C   -0.212736
    21  H    0.232417
    22  H    0.230253
    23  H    0.278592
    24  H    0.275624
    25  H    0.226040
    26  N    0.487187
    27  O   -0.459717
    28  O   -0.457346
 Sum of Mulliken charges =  -0.00000

 Dipole moment (field-independent basis, Debye):
    X=             -0.4592    Y=              1.8686    Z=              3.3845  Tot=              3.8932
 Quadrupole moment (field-independent basis, Debye-Ang):
   XX=           -151.2090   YY=            -96.7233   ZZ=           -102.7712
   XY=             13.4195   XZ=             -7.3456   YZ=              1.5366

 Normal termination of Gaussian 16 at Thu May  6 05:05:10 2021.
