 Gaussian 16, Revision A.03,
 Gaussian 16:  EM64L-G16RevA.03 25-Dec-2016

 -------------
 #p 6-31g* mp2
 -------------

 ------------------------------------------------------
 Input file generated by CHIRIPA (05-May-2021 14:55:20)
 ------------------------------------------------------
 Symbolic Z-matrix:
 Charge =  0 Multiplicity = 1

                         Standard orientation:
 ---------------------------------------------------------------------
 Center     Atomic      Atomic             Coordinates (Angstroms)
 Number     Number       Type             X           Y           Z
 ---------------------------------------------------------------------
      1          6           0        4.237095   -2.013899   -0.629934
      2          6           0        4.487221   -0.698585   -1.034788
      3          6           0        3.684477    0.350224   -0.576367
      4          6           0        2.635406    0.046387    0.289902
      5          6           0        2.360841   -1.253713    0.711379
      6          6           0        3.176573   -2.286784    0.240323
      7          1           0        4.865731   -2.822526   -0.990954
      8          1           0        5.310138   -0.483704   -1.710568
      9          1           0        3.855742    1.377654   -0.873811
     10          1           0        1.533156   -1.436777    1.385800
     11          1           0        2.979977   -3.307315    0.556413
     12          7           0        1.778701    1.148384    0.781900
     13          8           0        0.860683    0.854412    1.544435
     14          8           0        2.041457    2.285234    0.395677
     15          6           0       -3.004002    0.529957   -0.659117
     16          6           0       -2.617928    1.884982   -0.065115
     17          6           0       -1.516345    2.586671   -0.860063
     18          1           0       -2.113641   -0.112314   -0.700217
     19          1           0       -3.334246    0.673234   -1.697291
     20          1           0       -2.289824    1.739371    0.972074
     21          1           0       -3.509352    2.524036   -0.025248
     22          1           0       -1.837424    2.760942   -1.892119
     23          1           0       -0.610967    1.971818   -0.889130
     24          1           0       -1.255875    3.553403   -0.417970
     25          6           0       -4.104096   -0.183755    0.124550
     26          6           0       -4.490171   -1.538780   -0.469452
     27          6           0       -5.591753   -2.240470    0.325496
     28          1           0       -3.773852   -0.327032    1.162725
     29          1           0       -4.994458    0.458516    0.165649
     30          1           0       -3.598747   -2.177834   -0.509319
     31          1           0       -4.818275   -1.393169   -1.506641
     32          1           0       -6.497132   -1.625616    0.354563
     33          1           0       -5.270675   -2.414740    1.357552
     34          1           0       -5.852224   -3.207201   -0.116598
 ---------------------------------------------------------------------

 SCF Done:  E(RHF) =  -669.535938694     A.U. after   15 cycles
 E2 =    -0.2091851867D+01 EUMP2 =    -0.67162779056143D+03

 The electronic state is 1-A.
 Alpha  occ. eigenvalues --  -20.60969 -20.60960 -15.85979 -11.31311 -11.27876
 Alpha  occ. eigenvalues --  -11.27868 -11.27608 -11.26878 -11.26867 -11.21151
 Alpha  occ. eigenvalues --  -11.20720 -11.20703 -11.20508 -11.20305 -11.19655
 Alpha  occ. eigenvalues --   -1.60023  -1.39576  -1.19478  -1.08882  -1.07628
 Alpha  occ. eigenvalues --   -1.04873  -1.02656  -0.95725  -0.95116  -0.86274
 Alpha  occ. eigenvalues --   -0.86142  -0.82558  -0.78776  -0.77612  -0.77395
 Alpha  occ. eigenvalues --   -0.72202  -0.71368  -0.70585  -0.65132  -0.64876
 Alpha  occ. eigenvalues --   -0.64253  -0.62220  -0.60035  -0.58547  -0.56710
 Alpha  occ. eigenvalues --   -0.55380  -0.54413  -0.53200  -0.52964  -0.51799
 Alpha  occ. eigenvalues --   -0.51558  -0.49214  -0.48967  -0.48818  -0.47077
 Alpha  occ. eigenvalues --   -0.45831  -0.45003  -0.44949  -0.44767  -0.42915
 Alpha  occ. eigenvalues --   -0.37456  -0.36474
 Alpha virt. eigenvalues --    0.04884   0.11179   0.16364   0.21302   0.23585
 Alpha virt. eigenvalues --    0.25173   0.27183   0.27343   0.28216   0.28304
 Alpha virt. eigenvalues --    0.28814   0.30868   0.32177   0.32378   0.32510

 Mulliken charges:
               1
     1  C   -0.170488
     2  C   -0.218553
     3  C   -0.170689
     4  C    0.158176
     5  C   -0.171025
     6  C   -0.218513
     7  H    0.226126
     8  H    0.223987
     9  H    0.276157
    10  H    0.275512
    11  H    0.223904
    12  N    0.486273
    13  O   -0.460214
    14  O   -0.456891
    15  C   -0.296510
    16  C   -0.301977
    17  C   -0.468623
    18  H    0.146503
    19  H    0.145097
    20  H    0.166095
    21  H    0.145476
    22  H    0.144361
    23  H    0.155309
    24  H    0.166212
    25  C   -0.298153
    26  C   -0.298401
    27  C   -0.475187
    28  H    0.151250
    29  H    0.148449
    30  H    0.148466
    31  H    0.150551
    32  H    0.155170
    33  H    0.154593
    34  H    0.157555
 Sum of Mulliken charges =  -0.00000

 Dipole moment (field-independent basis, Debye):
    X=              3.2916    Y=             -3.7961    Z=             -1.5966  Tot=              5.2720
 Quadrupole moment (field-independent basis, Debye-Ang):
   XX=            -78.6424   YY=            -93.4729   ZZ=            -95.0822
   XY=             -9.2314   XZ=             -5.1267   YZ=             -2.9270

 Normal termination of Gaussian 16 at Thu May  6 09:17:45 2021.
