 Gaussian 16, Revision A.03,
 Gaussian 16:  EM64L-G16RevA.03 25-Dec-2016

 -------------
 #p 6-31g* mp2
 -------------

 ------------------------------------------------------
 Input file generated by CHIRIPA (05-May-2021 14:55:19)
 ------------------------------------------------------
 Symbolic Z-matrix:
 Charge =  0 Multiplicity = 1

                         Standard orientation:
 ---------------------------------------------------------------------
 Center     Atomic      Atomic             Coordinates (Angstroms)
 Number     Number       Type             X           Y           Z
 ---------------------------------------------------------------------
      1          6           0        5.017623   -1.367403    0.836143
      2          6           0        3.703379   -1.654790    1.219148
      3          6           0        2.629935   -0.968265    0.643865
      4          6           0        2.908314    0.003846   -0.315717
      5          6           0        4.206661    0.312881   -0.718309
      6          6           0        5.264634   -0.386215   -0.129661
      7          1           0        5.845491   -1.905594    1.288228
      8          1           0        3.508562   -2.416287    1.968956
      9          1           0        1.602728   -1.170717    0.921849
     10          1           0        4.369411    1.077312   -1.468360
     11          1           0        6.284270   -0.160926   -0.429049
     12          7           0        1.780096    0.737293   -0.931818
     13          8           0        2.051903    1.589222   -1.775011
     14          8           0        0.645355    0.446352   -0.559859
     15          6           0       -3.241857    0.401534    0.332473
     16          6           0       -3.106227    1.653053    1.200395
     17          6           0       -1.662359    2.144553    1.307485
     18          1           0       -2.611501   -0.395960    0.749127
     19          1           0       -2.851182    0.616203   -0.671860
     20          1           0       -3.498313    1.436504    2.202388
     21          1           0       -3.737128    2.447600    0.781736
     22          1           0       -1.263796    2.387871    0.317260
     23          1           0       -1.023625    1.371030    1.745984
     24          1           0       -1.588403    3.040039    1.932380
     25          6           0       -4.679441   -0.101924    0.215817
     26          6           0       -4.815073   -1.353443   -0.652105
     27          6           0       -6.258940   -1.844943   -0.759194
     28          1           0       -5.070117   -0.316593    1.220150
     29          1           0       -5.309799    0.695569   -0.200837
     30          1           0       -4.184171   -2.147990   -0.233446
     31          1           0       -4.422986   -1.136894   -1.654099
     32          1           0       -6.897674   -1.071420   -1.197694
     33          1           0       -6.657503   -2.088261    0.231031
     34          1           0       -6.332896   -2.740429   -1.384090
 ---------------------------------------------------------------------

 SCF Done:  E(RHF) =  -669.535602269     A.U. after   15 cycles
 E2 =    -0.2091648973D+01 EUMP2 =    -0.67162725124240D+03

 The electronic state is 1-A.
 Alpha  occ. eigenvalues --  -20.60927 -20.60891 -15.85932 -11.31275 -11.27841
 Alpha  occ. eigenvalues --  -11.27835 -11.27578 -11.26850 -11.26840 -11.20897
 Alpha  occ. eigenvalues --  -11.20526 -11.20518 -11.20454 -11.20184 -11.19531
 Alpha  occ. eigenvalues --   -1.59973  -1.39528  -1.19444  -1.08846  -1.07451
 Alpha  occ. eigenvalues --   -1.04843  -1.02542  -0.95690  -0.94968  -0.86243
 Alpha  occ. eigenvalues --   -0.85984  -0.82523  -0.78646  -0.77586  -0.77187
 Alpha  occ. eigenvalues --   -0.72157  -0.71284  -0.70553  -0.65100  -0.64848
 Alpha  occ. eigenvalues --   -0.64097  -0.62192  -0.59953  -0.58386  -0.56569
 Alpha  occ. eigenvalues --   -0.55347  -0.54256  -0.53174  -0.52936  -0.51709
 Alpha  occ. eigenvalues --   -0.51377  -0.49087  -0.48922  -0.48757  -0.46939
 Alpha  occ. eigenvalues --   -0.45681  -0.45002  -0.44675  -0.44563  -0.42804
 Alpha  occ. eigenvalues --   -0.37421  -0.36444
 Alpha virt. eigenvalues --    0.04946   0.11208   0.16429   0.21246   0.23723
 Alpha virt. eigenvalues --    0.25128   0.26962   0.27582   0.28006   0.28638
 Alpha virt. eigenvalues --    0.29185   0.30893   0.31872   0.32568   0.32844

 Mulliken charges:
               1
     1  C   -0.170641
     2  C   -0.218493
     3  C   -0.170785
     4  C    0.158353
     5  C   -0.170722
     6  C   -0.218545
     7  H    0.225914
     8  H    0.223714
     9  H    0.275394
    10  H    0.275806
    11  H    0.223744
    12  N    0.489705
    13  O   -0.460214
    14  O   -0.459083
    15  C   -0.295788
    16  C   -0.300577
    17  C   -0.473109
    18  H    0.146695
    19  H    0.160760
    20  H    0.144376
    21  H    0.148326
    22  H    0.174727
    23  H    0.151004
    24  H    0.148973
    25  C   -0.298034
    26  C   -0.298490
    27  C   -0.475062
    28  H    0.145325
    29  H    0.147941
    30  H    0.149317
    31  H    0.153788
    32  H    0.154619
    33  H    0.153151
    34  H    0.157908
 Sum of Mulliken charges =  -0.00000

 Dipole moment (field-independent basis, Debye):
    X=              4.2838    Y=             -2.5706    Z=              1.9910  Tot=              5.3780
 Quadrupole moment (field-independent basis, Debye-Ang):
   XX=            -72.0598   YY=            -94.1900   ZZ=            -94.8840
   XY=             -6.3727   XZ=              3.5284   YZ=             -1.9543

 Normal termination of Gaussian 16 at Thu May  6 06:06:03 2021.
