 Gaussian 16, Revision A.03,
 Gaussian 16:  EM64L-G16RevA.03 25-Dec-2016

 -------------
 #p 6-31g* mp2
 -------------

 ------------------------------------------------------
 Input file generated by CHIRIPA (05-May-2021 14:55:19)
 ------------------------------------------------------
 Symbolic Z-matrix:
 Charge =  0 Multiplicity = 1

                         Standard orientation:
 ---------------------------------------------------------------------
 Center     Atomic      Atomic             Coordinates (Angstroms)
 Number     Number       Type             X           Y           Z
 ---------------------------------------------------------------------
      1          6           0       -2.155017   -2.639335    0.012598
      2          6           0       -1.671534   -1.973366    1.143637
      3          6           0       -1.643053   -0.576275    1.186909
      4          6           0       -2.107895    0.126528    0.076378
      5          6           0       -2.595523   -0.508119   -1.064995
      6          6           0       -2.614659   -1.905879   -1.086171
      7          1           0       -2.173512   -3.724889   -0.012435
      8          1           0       -1.313933   -2.540392    1.998417
      9          1           0       -1.273981   -0.035226    2.049736
     10          1           0       -2.945282    0.084366   -1.901683
     11          1           0       -2.990686   -2.420409   -1.965891
     12          7           0       -2.082690    1.605920    0.110492
     13          8           0       -2.497885    2.202087   -0.880888
     14          8           0       -1.648216    2.141288    1.127965
     15          6           0        2.898448    0.855438   -0.309531
     16          6           0        1.957428    1.937237    0.221675
     17          6           0        2.360681    3.342852   -0.224899
     18          1           0        3.921429    1.069851    0.028822
     19          1           0        2.916195    0.901450   -1.407239
     20          1           0        1.940395    1.888296    1.318000
     21          1           0        0.936537    1.720118   -0.117822
     22          1           0        2.359432    3.415190   -1.317313
     23          1           0        3.368993    3.584322    0.126668
     24          1           0        1.674532    4.100614    0.166067
     25          6           0        2.508397   -0.555167    0.128397
     26          6           0        3.449417   -1.636965   -0.402808
     27          6           0        3.046163   -3.042580    0.043766
     28          1           0        2.490649   -0.601179    1.226105
     29          1           0        1.485416   -0.769579   -0.209955
     30          1           0        4.470307   -1.419847   -0.063312
     31          1           0        3.466449   -1.588024   -1.499134
     32          1           0        2.037851   -3.284051   -0.307801
     33          1           0        3.047412   -3.114918    1.136178
     34          1           0        3.732313   -3.800343   -0.347201
 ---------------------------------------------------------------------

 SCF Done:  E(RHF) =  -669.535838364     A.U. after   15 cycles
 E2 =    -0.2093142892D+01 EUMP2 =    -0.67162898125598D+03

 The electronic state is 1-A.
 Alpha  occ. eigenvalues --  -20.60882 -20.60867 -15.85902 -11.31262 -11.27828
 Alpha  occ. eigenvalues --  -11.27823 -11.27568 -11.26836 -11.26826 -11.21666
 Alpha  occ. eigenvalues --  -11.21336 -11.21300 -11.21056 -11.20959 -11.20307
 Alpha  occ. eigenvalues --   -1.59945  -1.39497  -1.19435  -1.08832  -1.08219
 Alpha  occ. eigenvalues --   -1.04828  -1.03262  -0.95732  -0.95668  -0.86758
 Alpha  occ. eigenvalues --   -0.86226  -0.82497  -0.79371  -0.78002  -0.77536
 Alpha  occ. eigenvalues --   -0.72131  -0.71280  -0.70533  -0.65085  -0.64857
 Alpha  occ. eigenvalues --   -0.64824  -0.62172  -0.60667  -0.59135  -0.57302
 Alpha  occ. eigenvalues --   -0.55330  -0.55050  -0.53174  -0.52916  -0.52402
 Alpha  occ. eigenvalues --   -0.52161  -0.49710  -0.48896  -0.48893  -0.47677
 Alpha  occ. eigenvalues --   -0.46432  -0.45657  -0.45454  -0.44689  -0.43509
 Alpha  occ. eigenvalues --   -0.37410  -0.36405
 Alpha virt. eigenvalues --    0.04966   0.11192   0.16438   0.21277   0.22941
 Alpha virt. eigenvalues --    0.24488   0.26475   0.26814   0.27647   0.28151
 Alpha virt. eigenvalues --    0.28558   0.30827   0.31394   0.31734   0.32468

 Mulliken charges:
               1
     1  C   -0.171343
     2  C   -0.217809
     3  C   -0.169083
     4  C    0.155408
     5  C   -0.171436
     6  C   -0.218806
     7  H    0.226260
     8  H    0.224517
     9  H    0.276478
    10  H    0.275776
    11  H    0.223734
    12  N    0.487985
    13  O   -0.459488
    14  O   -0.457082
    15  C   -0.298872
    16  C   -0.295977
    17  C   -0.476831
    18  H    0.148321
    19  H    0.148603
    20  H    0.151777
    21  H    0.152156
    22  H    0.153484
    23  H    0.150573
    24  H    0.170754
    25  C   -0.300325
    26  C   -0.298734
    27  C   -0.475336
    28  H    0.145387
    29  H    0.150748
    30  H    0.152786
    31  H    0.152201
    32  H    0.151307
    33  H    0.152663
    34  H    0.160205
 Sum of Mulliken charges =  -0.00000

 Dipole moment (field-independent basis, Debye):
    X=             -0.2296    Y=             -5.0864    Z=             -0.0868  Tot=              5.0923
 Quadrupole moment (field-independent basis, Debye-Ang):
   XX=            -94.3948   YY=            -97.6318   ZZ=            -89.9955
   XY=             11.0809   XZ=              2.8437   YZ=             -0.1381

 Normal termination of Gaussian 16 at Thu May  6 12:23:17 2021.
