 Gaussian 16, Revision A.03,
 Gaussian 16:  EM64L-G16RevA.03 25-Dec-2016

 -------------
 #p 6-31g* mp2
 -------------

 ------------------------------------------------------
 Input file generated by CHIRIPA (05-May-2021 14:55:20)
 ------------------------------------------------------
 Symbolic Z-matrix:
 Charge =  0 Multiplicity = 1

                         Standard orientation:
 ---------------------------------------------------------------------
 Center     Atomic      Atomic             Coordinates (Angstroms)
 Number     Number       Type             X           Y           Z
 ---------------------------------------------------------------------
      1          6           0       -1.902244    2.444041    0.274907
      2          6           0       -3.293470    2.465109    0.418314
      3          6           0       -4.045684    1.304035    0.216747
      4          6           0       -3.371070    0.134103   -0.128862
      5          6           0       -1.986195    0.081156   -0.279226
      6          6           0       -1.254189    1.254229   -0.072793
      7          1           0       -1.325755    3.350651    0.433379
      8          1           0       -3.799435    3.387698    0.688267
      9          1           0       -5.123819    1.292148    0.321165
     10          1           0       -1.510030   -0.853639   -0.549121
     11          1           0       -0.173859    1.234912   -0.184858
     12          7           0       -4.156709   -1.101425   -0.344828
     13          8           0       -3.538560   -2.119377   -0.648642
     14          8           0       -5.375765   -1.028485   -0.206199
     15          6           0        4.852923   -0.202510    0.307659
     16          6           0        5.580032    0.517386   -0.828583
     17          6           0        6.986577    0.971016   -0.436607
     18          1           0        4.795155    0.464861    1.178420
     19          1           0        5.446268   -1.073061    0.619876
     20          1           0        4.984818    1.385527   -1.139496
     21          1           0        5.635908   -0.151708   -1.696804
     22          1           0        7.601205    0.112815   -0.146220
     23          1           0        6.946416    1.658783    0.414254
     24          1           0        7.488225    1.483277   -1.263528
     25          6           0        3.445540   -0.662087   -0.068893
     26          6           0        2.718431   -1.381983    1.067350
     27          6           0        1.311886   -1.835613    0.675374
     28          1           0        2.852195    0.208463   -0.381109
     29          1           0        3.503309   -1.329458   -0.939653
     30          1           0        2.662555   -0.712890    1.935571
     31          1           0        3.313645   -2.250124    1.378263
     32          1           0        1.352047   -2.523381   -0.175487
     33          1           0        0.697258   -0.977411    0.384987
     34          1           0        0.810238   -2.347875    1.502294
 ---------------------------------------------------------------------

 SCF Done:  E(RHF) =  -669.534660600     A.U. after   15 cycles
 E2 =    -0.2092118859D+01 EUMP2 =    -0.67162677945883D+03

 The electronic state is 1-A.
 Alpha  occ. eigenvalues --  -20.60716 -20.60710 -15.85769 -11.31132 -11.27724
 Alpha  occ. eigenvalues --  -11.27671 -11.27477 -11.26738 -11.26722 -11.22215
 Alpha  occ. eigenvalues --  -11.22081 -11.22060 -11.21904 -11.21756 -11.21469
 Alpha  occ. eigenvalues --   -1.59791  -1.39344  -1.19320  -1.09016  -1.08716
 Alpha  occ. eigenvalues --   -1.04739  -1.04086  -0.96552  -0.95547  -0.87572
 Alpha  occ. eigenvalues --   -0.86124  -0.82395  -0.80162  -0.78830  -0.77425
 Alpha  occ. eigenvalues --   -0.71989  -0.71114  -0.70438  -0.65669  -0.64980
 Alpha  occ. eigenvalues --   -0.64738  -0.62237  -0.61381  -0.59895  -0.58139
 Alpha  occ. eigenvalues --   -0.55860  -0.55221  -0.53239  -0.53085  -0.52941
 Alpha  occ. eigenvalues --   -0.52781  -0.50490  -0.48751  -0.48743  -0.48458
 Alpha  occ. eigenvalues --   -0.47186  -0.46365  -0.46290  -0.44749  -0.44338
 Alpha  occ. eigenvalues --   -0.37307  -0.36310
 Alpha virt. eigenvalues --    0.05094   0.11318   0.16507   0.19617   0.22514
 Alpha virt. eigenvalues --    0.23721   0.25264   0.26158   0.26806   0.28335
 Alpha virt. eigenvalues --    0.29245   0.29609   0.31290   0.31505   0.31872

 Mulliken charges:
               1
     1  C   -0.171104
     2  C   -0.218894
     3  C   -0.170762
     4  C    0.157430
     5  C   -0.172180
     6  C   -0.222316
     7  H    0.225395
     8  H    0.223266
     9  H    0.275462
    10  H    0.281052
    11  H    0.225208
    12  N    0.488334
    13  O   -0.460247
    14  O   -0.460766
    15  C   -0.298600
    16  C   -0.299748
    17  C   -0.475997
    18  H    0.149371
    19  H    0.152322
    20  H    0.149834
    21  H    0.153573
    22  H    0.156645
    23  H    0.155060
    24  H    0.161406
    25  C   -0.298227
    26  C   -0.300941
    27  C   -0.480691
    28  H    0.140837
    29  H    0.153017
    30  H    0.151983
    31  H    0.156499
    32  H    0.160706
    33  H    0.144411
    34  H    0.168662
 Sum of Mulliken charges =  -0.00000

 Dipole moment (field-independent basis, Debye):
    X=              2.9142    Y=              4.2330    Z=              0.8016  Tot=              5.2013
 Quadrupole moment (field-independent basis, Debye-Ang):
   XX=           -110.3471   YY=            -91.8467   ZZ=            -95.4689
   XY=            -17.8501   XZ=             -4.1444   YZ=              0.3142

 Normal termination of Gaussian 16 at Wed May  5 15:54:25 2021.
