 Gaussian 16, Revision A.03,
 Gaussian 16:  EM64L-G16RevA.03 25-Dec-2016

 -------------
 #p 6-31g* mp2
 -------------

 ------------------------------------------------------
 Input file generated by CHIRIPA (05-May-2021 14:53:18)
 ------------------------------------------------------
 Symbolic Z-matrix:
 Charge =  0 Multiplicity = 1

                         Standard orientation:
 ---------------------------------------------------------------------
 Center     Atomic      Atomic             Coordinates (Angstroms)
 Number     Number       Type             X           Y           Z
 ---------------------------------------------------------------------
      1          6           0       -3.407946    0.809267   -0.508487
      2          6           0       -2.089634    1.581312   -0.571599
      3          6           0       -2.169158    2.814258   -1.472329
      4          1           0       -3.696442    0.505239   -1.524007
      5          1           0       -4.200010    1.478973   -0.145826
      6          1           0       -1.300008    0.909970   -0.932718
      7          1           0       -1.804144    1.883372    0.444212
      8          1           0       -2.937006    3.506159   -1.111379
      9          1           0       -2.430005    2.527227   -2.496132
     10          1           0       -1.215964    3.351234   -1.502942
     11          6           0       -3.344273   -0.425989    0.388072
     12          6           0       -4.662585   -1.198034    0.451184
     13          6           0       -4.583061   -2.430980    1.351914
     14          1           0       -2.552209   -1.095694    0.025411
     15          1           0       -3.055777   -0.121961    1.403593
     16          1           0       -4.948075   -1.500094   -0.564627
     17          1           0       -5.452211   -0.526692    0.812303
     18          1           0       -4.322214   -2.143949    2.375718
     19          1           0       -3.815213   -3.122881    0.990964
     20          1           0       -5.536255   -2.967956    1.382528
     21          6           0        2.628550    1.457955    1.991575
     22          6           0        3.499895    0.363752    1.992006
     23          6           0        3.513511   -0.533458    0.919917
     24          6           0        2.638459   -0.305142   -0.140954
     25          6           0        1.758616    0.775731   -0.170626
     26          6           0        1.762220    1.660095    0.912163
     27          1           0        2.624662    2.149940    2.828557
     28          1           0        4.173800    0.204277    2.828944
     29          1           0        4.177753   -1.388767    0.894446
     30          1           0        1.098436    0.908469   -1.019131
     31          1           0        1.084440    2.509007    0.909124
     32          7           0        2.643759   -1.248178   -1.281591
     33          8           0        1.863042   -1.024884   -2.204228
     34          8           0        3.428529   -2.192770   -1.231388
 ---------------------------------------------------------------------

 SCF Done:  E(RHF) =  -669.535403555     A.U. after   15 cycles
 E2 =    -0.2091843958D+01 EUMP2 =    -0.67162724751341D+03

 The electronic state is 1-A.
 Alpha  occ. eigenvalues --  -20.60766 -20.60759 -15.85816 -11.31148 -11.27726
 Alpha  occ. eigenvalues --  -11.27689 -11.27465 -11.26740 -11.26713 -11.22162
 Alpha  occ. eigenvalues --  -11.21679 -11.21669 -11.21621 -11.21510 -11.21092
 Alpha  occ. eigenvalues --   -1.59839  -1.39394  -1.19325  -1.08728  -1.08695
 Alpha  occ. eigenvalues --   -1.04725  -1.03825  -0.96252  -0.95566  -0.87266
 Alpha  occ. eigenvalues --   -0.86126  -0.82401  -0.79928  -0.78496  -0.77432
 Alpha  occ. eigenvalues --   -0.72036  -0.71162  -0.70447  -0.65345  -0.64978
 Alpha  occ. eigenvalues --   -0.64713  -0.62123  -0.61195  -0.59640  -0.57868
 Alpha  occ. eigenvalues --   -0.55515  -0.55229  -0.53071  -0.52966  -0.52837
 Alpha  occ. eigenvalues --   -0.52666  -0.50170  -0.48794  -0.48791  -0.48215
 Alpha  occ. eigenvalues --   -0.46928  -0.46027  -0.45914  -0.44804  -0.44062
 Alpha  occ. eigenvalues --   -0.37311  -0.36304
 Alpha virt. eigenvalues --    0.05062   0.11275   0.16539   0.19773   0.22888
 Alpha virt. eigenvalues --    0.23817   0.25680   0.26083   0.27425   0.28057
 Alpha virt. eigenvalues --    0.29423   0.29580   0.31304   0.31688   0.31906

 Mulliken charges:
               1
     1  C   -0.297686
     2  C   -0.307493
     3  C   -0.476581
     4  H    0.154075
     5  H    0.149585
     6  H    0.155301
     7  H    0.146503
     8  H    0.157324
     9  H    0.162003
    10  H    0.153326
    11  C   -0.299692
    12  C   -0.300064
    13  C   -0.476153
    14  H    0.154554
    15  H    0.147458
    16  H    0.154043
    17  H    0.151005
    18  H    0.153879
    19  H    0.157750
    20  H    0.160793
    21  C   -0.171043
    22  C   -0.218544
    23  C   -0.170874
    24  C    0.158542
    25  C   -0.173376
    26  C   -0.220253
    27  H    0.225381
    28  H    0.223248
    29  H    0.275388
    30  H    0.280063
    31  H    0.225355
    32  N    0.487984
    33  O   -0.461450
    34  O   -0.460356
 Sum of Mulliken charges =  -0.00000

 Dipole moment (field-independent basis, Debye):
    X=             -0.1401    Y=              3.2518    Z=              3.9731  Tot=              5.1361
 Quadrupole moment (field-independent basis, Debye-Ang):
   XX=            -92.2606   YY=            -96.5088   ZZ=            -95.1244
   XY=              6.4482   XZ=             12.7309   YZ=             -2.0177

 Normal termination of Gaussian 16 at Wed May  5 18:49:51 2021.
