 Gaussian 16, Revision A.03,
 Gaussian 16:  EM64L-G16RevA.03 25-Dec-2016

 -------------
 #p 6-31g* mp2
 -------------

 ------------------------------------------------------
 Input file generated by CHIRIPA (05-May-2021 14:55:18)
 ------------------------------------------------------
 Symbolic Z-matrix:
 Charge =  0 Multiplicity = 1

                         Standard orientation:
 ---------------------------------------------------------------------
 Center     Atomic      Atomic             Coordinates (Angstroms)
 Number     Number       Type             X           Y           Z
 ---------------------------------------------------------------------
      1          6           0       -3.080529    1.899920   -1.195835
      2          6           0       -4.101126    1.081876   -0.700149
      3          6           0       -3.798612   -0.135282   -0.082444
      4          6           0       -2.458674   -0.505036    0.023088
      5          6           0       -1.419437    0.288142   -0.460799
      6          6           0       -1.745295    1.501145   -1.074791
      7          1           0       -3.324596    2.843824   -1.674242
      8          1           0       -5.138975    1.389021   -0.792760
      9          1           0       -4.568969   -0.787873    0.310104
     10          1           0       -0.394226   -0.044890   -0.353795
     11          1           0       -0.950615    2.134427   -1.458825
     12          7           0       -2.126059   -1.791387    0.675060
     13          8           0       -0.937662   -2.094468    0.755636
     14          8           0       -3.060050   -2.472191    1.093154
     15          6           0        3.639602    0.016223   -0.417647
     16          6           0        3.687583   -1.499902   -0.225165
     17          6           0        4.536310   -2.203716   -1.284458
     18          1           0        3.241429    0.240177   -1.416771
     19          1           0        4.663358    0.414584   -0.392652
     20          1           0        2.663938   -1.895112   -0.249133
     21          1           0        4.085509   -1.720268    0.773688
     22          1           0        5.567636   -1.837314   -1.257635
     23          1           0        4.137986   -2.013151   -2.286269
     24          1           0        4.556863   -3.286733   -1.127890
     25          6           0        2.794939    0.733933    0.633622
     26          6           0        2.746958    2.250057    0.441140
     27          6           0        1.898231    2.953872    1.500433
     28          1           0        1.771183    0.335571    0.608626
     29          1           0        3.193112    0.509979    1.632745
     30          1           0        2.349033    2.470424   -0.557715
     31          1           0        3.770604    2.645267    0.465107
     32          1           0        2.296555    2.763306    2.502243
     33          1           0        0.866907    2.587469    1.473609
     34          1           0        1.877679    4.036888    1.343864
 ---------------------------------------------------------------------

 SCF Done:  E(RHF) =  -669.535727512     A.U. after   15 cycles
 E2 =    -0.2092069534D+01 EUMP2 =    -0.67162779704592D+03

 The electronic state is 1-A.
 Alpha  occ. eigenvalues --  -20.60831 -20.60826 -15.85881 -11.31241 -11.27811
 Alpha  occ. eigenvalues --  -11.27807 -11.27550 -11.26832 -11.26821 -11.22001
 Alpha  occ. eigenvalues --  -11.21609 -11.21455 -11.21431 -11.21324 -11.20856
 Alpha  occ. eigenvalues --   -1.59901  -1.39456  -1.19416  -1.08810  -1.08566
 Alpha  occ. eigenvalues --   -1.04821  -1.03614  -0.96078  -0.95646  -0.87094
 Alpha  occ. eigenvalues --   -0.86218  -0.82478  -0.79690  -0.78333  -0.77522
 Alpha  occ. eigenvalues --   -0.72099  -0.71222  -0.70534  -0.65274  -0.65065
 Alpha  occ. eigenvalues --   -0.64798  -0.62172  -0.61005  -0.59457  -0.57661
 Alpha  occ. eigenvalues --   -0.55427  -0.55285  -0.53145  -0.52931  -0.52757
 Alpha  occ. eigenvalues --   -0.52470  -0.50035  -0.48859  -0.48854  -0.47989
 Alpha  occ. eigenvalues --   -0.46745  -0.45863  -0.45767  -0.44859  -0.43881
 Alpha  occ. eigenvalues --   -0.37392  -0.36416
 Alpha virt. eigenvalues --    0.04974   0.11210   0.16428   0.19013   0.23063
 Alpha virt. eigenvalues --    0.23871   0.25273   0.26358   0.27754   0.28119
 Alpha virt. eigenvalues --    0.29588   0.31111   0.31530   0.31749   0.32511

 Mulliken charges:
               1
     1  C   -0.170546
     2  C   -0.218663
     3  C   -0.170083
     4  C    0.158004
     5  C   -0.179085
     6  C   -0.222430
     7  H    0.226062
     8  H    0.223770
     9  H    0.275859
    10  H    0.287199
    11  H    0.225125
    12  N    0.487439
    13  O   -0.461875
    14  O   -0.459743
    15  C   -0.298210
    16  C   -0.303279
    17  C   -0.475767
    18  H    0.144437
    19  H    0.149906
    20  H    0.163194
    21  H    0.153953
    22  H    0.153330
    23  H    0.153208
    24  H    0.163266
    25  C   -0.305132
    26  C   -0.299680
    27  C   -0.476996
    28  H    0.151067
    29  H    0.155650
    30  H    0.142982
    31  H    0.154975
    32  H    0.159645
    33  H    0.153361
    34  H    0.159058
 Sum of Mulliken charges =  -0.00000

 Dipole moment (field-independent basis, Debye):
    X=             -1.1555    Y=              4.4257    Z=             -2.2012  Tot=              5.0762
 Quadrupole moment (field-independent basis, Debye-Ang):
   XX=            -83.5157   YY=           -100.2554   ZZ=            -95.6400
   XY=             -9.5263   XZ=              6.1423   YZ=              0.6889

 Normal termination of Gaussian 16 at Thu May  6 06:03:54 2021.
