 Gaussian 16, Revision A.03,
 Gaussian 16:  EM64L-G16RevA.03 25-Dec-2016

 -------------
 #p 6-31g* mp2
 -------------

 ------------------------------------------------------
 Input file generated by CHIRIPA (05-May-2021 14:51:08)
 ------------------------------------------------------
 Symbolic Z-matrix:
 Charge =  0 Multiplicity = 1

                         Standard orientation:
 ---------------------------------------------------------------------
 Center     Atomic      Atomic             Coordinates (Angstroms)
 Number     Number       Type             X           Y           Z
 ---------------------------------------------------------------------
      1          6           0        2.292542   -0.955951    0.072120
      2          6           0        1.860239   -1.742571    1.309993
      3          6           0        0.455320   -2.330774    1.175775
      4          1           0        1.571183   -0.147929   -0.111420
      5          1           0        2.252641   -1.615905   -0.805527
      6          1           0        1.902271   -1.081705    2.185268
      7          1           0        2.582815   -2.548696    1.490719
      8          1           0        0.402912   -3.011743    0.320127
      9          1           0       -0.281499   -1.536417    1.018621
     10          1           0        0.166507   -2.888978    2.071797
     11          6           0        3.694859   -0.361754    0.191129
     12          6           0        4.127163    0.424866   -1.046743
     13          6           0        5.532081    1.013069   -0.912526
     14          1           0        3.734760    0.298200    1.068776
     15          1           0        4.416218   -1.169776    0.374669
     16          1           0        3.404586    1.230991   -1.227470
     17          1           0        4.085131   -0.236000   -1.922018
     18          1           0        6.268900    0.218713   -0.755372
     19          1           0        5.584489    1.694039   -0.056877
     20          1           0        5.820894    1.571273   -1.808548
     21          6           0       -2.988398   -0.018359   -0.484880
     22          6           0       -4.329046   -0.750148   -0.413236
     23          6           0       -4.302616   -2.103386   -1.124461
     24          1           0       -2.711915    0.124870   -1.538440
     25          1           0       -2.208472   -0.652051   -0.040421
     26          1           0       -5.106457   -0.114688   -0.856449
     27          1           0       -4.602462   -0.891481    0.640275
     28          1           0       -3.547556   -2.758525   -0.678055
     29          1           0       -4.054415   -1.977319   -2.183283
     30          1           0       -5.271056   -2.609299   -1.060922
     31          6           0       -2.999003    1.336063    0.221631
     32          6           0       -1.658356    2.067852    0.149987
     33          6           0       -1.684784    3.421091    0.861212
     34          1           0       -3.778929    1.969756   -0.222829
     35          1           0       -3.275486    1.192835    1.275190
     36          1           0       -1.384940    2.209185   -0.903524
     37          1           0       -0.880944    1.432392    0.593200
     38          1           0       -1.932987    3.295023    1.920033
     39          1           0       -2.439845    4.076230    0.414805
     40          1           0       -0.716345    3.927003    0.797672
 ---------------------------------------------------------------------

 SCF Done:  E(RHF) =  -470.733328012     A.U. after   11 cycles
 E2 =    -0.1583276766D+01 EUMP2 =    -0.47231660477785D+03

 The electronic state is 1-A.
 Alpha  occ. eigenvalues --  -11.21667 -11.21632 -11.21597 -11.21579 -11.21411
 Alpha  occ. eigenvalues --  -11.21406 -11.21346 -11.21331 -11.21120 -11.21116
 Alpha  occ. eigenvalues --  -11.21069 -11.21032  -1.08455  -1.08427  -1.03548
 Alpha  occ. eigenvalues --   -1.03540  -0.96012  -0.95973  -0.87033  -0.86987
 Alpha  occ. eigenvalues --   -0.79623  -0.79599  -0.78321  -0.78181  -0.65178
 Alpha  occ. eigenvalues --   -0.64982  -0.60952  -0.60933  -0.59368  -0.59351
 Alpha  occ. eigenvalues --   -0.57666  -0.57548  -0.55400  -0.55171  -0.52694
 Alpha  occ. eigenvalues --   -0.52685  -0.52499  -0.52343  -0.50047  -0.49833
 Alpha  occ. eigenvalues --   -0.47979  -0.47913  -0.46734  -0.46641  -0.46012
 Alpha  occ. eigenvalues --   -0.45760  -0.45734  -0.45309  -0.43799  -0.43791
 Alpha virt. eigenvalues --    0.20096   0.22989   0.23973   0.24256   0.25494
 Alpha virt. eigenvalues --    0.26671   0.27109   0.27578   0.27957   0.29481
 Alpha virt. eigenvalues --    0.30810   0.31627   0.31671   0.31849   0.32042

 Mulliken charges:
               1
     1  C   -0.301381
     2  C   -0.298953
     3  C   -0.484120
     4  H    0.152654
     5  H    0.149739
     6  H    0.151634
     7  H    0.152203
     8  H    0.155756
     9  H    0.161868
    10  H    0.160369
    11  C   -0.298191
    12  C   -0.299730
    13  C   -0.475716
    14  H    0.149437
    15  H    0.149647
    16  H    0.152219
    17  H    0.151949
    18  H    0.155152
    19  H    0.155162
    20  H    0.160248
    21  C   -0.307650
    22  C   -0.298901
    23  C   -0.476076
    24  H    0.149693
    25  H    0.158533
    26  H    0.151739
    27  H    0.151838
    28  H    0.156204
    29  H    0.155006
    30  H    0.160044
    31  C   -0.297695
    32  C   -0.303466
    33  C   -0.475614
    34  H    0.149826
    35  H    0.149523
    36  H    0.152407
    37  H    0.153582
    38  H    0.155347
    39  H    0.155656
    40  H    0.160059
 Sum of Mulliken charges =  -0.00000

 Dipole moment (field-independent basis, Debye):
    X=             -0.0021    Y=             -0.0043    Z=             -0.0073  Tot=              0.0087
 Quadrupole moment (field-independent basis, Debye-Ang):
   XX=            -85.5932   YY=            -85.0593   ZZ=            -84.0940
   XY=             -1.1148   XZ=              0.0602   YZ=             -0.4874

 Normal termination of Gaussian 16 at Wed May  5 21:18:15 2021.
