 Gaussian 16, Revision A.03,
 Gaussian 16:  EM64L-G16RevA.03 25-Dec-2016

 -------------
 #p 6-31g* mp2
 -------------

 ------------------------------------------------------
 Input file generated by CHIRIPA (05-May-2021 14:57:21)
 ------------------------------------------------------
 Symbolic Z-matrix:
 Charge =  0 Multiplicity = 1

                         Standard orientation:
 ---------------------------------------------------------------------
 Center     Atomic      Atomic             Coordinates (Angstroms)
 Number     Number       Type             X           Y           Z
 ---------------------------------------------------------------------
      1          6           0       -1.933775    2.479637    0.910366
      2          6           0       -2.252436    1.544550    1.900613
      3          6           0       -2.714728    0.271787    1.552895
      4          6           0       -2.847052   -0.033618    0.199193
      5          6           0       -2.537756    0.876278   -0.810617
      6          6           0       -2.077199    2.143110   -0.439708
      7          1           0       -1.575330    3.466046    1.189489
      8          1           0       -2.142029    1.803137    2.949893
      9          1           0       -2.968653   -0.471322    2.299038
     10          1           0       -2.658119    0.589379   -1.848220
     11          1           0       -1.830481    2.867298   -1.210893
     12          7           0       -3.335542   -1.377895   -0.181196
     13          8           0       -3.443420   -1.622367   -1.380876
     14          8           0       -3.601292   -2.161614    0.727539
     15          6           0        4.913772   -0.466067    1.033481
     16          6           0        3.874772   -1.388652    1.194220
     17          6           0        2.680632   -1.244450    0.481631
     18          6           0        2.558957   -0.161047   -0.387117
     19          6           0        3.575968    0.774861   -0.568927
     20          6           0        4.761323    0.610846    0.153971
     21          1           0        5.837997   -0.585783    1.591041
     22          1           0        3.990372   -2.225963    1.876563
     23          1           0        1.860239   -1.943935    0.586958
     24          1           0        3.431287    1.599353   -1.256457
     25          1           0        5.566544    1.328883    0.027135
     26          7           0        1.299425    0.002100   -1.146959
     27          8           0        1.217089    0.965177   -1.906133
     28          8           0        0.418388   -0.836188   -0.968964
 ---------------------------------------------------------------------

 SCF Done:  E(RHF) =  -868.338769631     A.U. after   16 cycles
 E2 =    -0.2601112414D+01 EUMP2 =    -0.87093988204593D+03

 The electronic state is 1-A.
 Alpha  occ. eigenvalues --  -20.61170 -20.61112 -20.59587 -20.59529 -15.86156
 Alpha  occ. eigenvalues --  -15.84609 -11.31442 -11.29867 -11.28024 -11.27964
 Alpha  occ. eigenvalues --  -11.27731 -11.27014 -11.26972 -11.26586 -11.26378
 Alpha  occ. eigenvalues --  -11.26334 -11.25640 -11.25421  -1.60191  -1.58623
 Alpha  occ. eigenvalues --   -1.39752  -1.38184  -1.19607  -1.18085  -1.09020
 Alpha  occ. eigenvalues --   -1.07522  -1.04995  -1.03492  -0.95871  -0.94366
 Alpha  occ. eigenvalues --   -0.86397  -0.84908  -0.82708  -0.81208  -0.77761
 Alpha  occ. eigenvalues --   -0.76234  -0.72413  -0.71503  -0.70858  -0.70714
 Alpha  occ. eigenvalues --   -0.69896  -0.69277  -0.65262  -0.64998  -0.63770
 Alpha  occ. eigenvalues --   -0.63536  -0.62340  -0.60852  -0.55506  -0.54090
 Alpha  occ. eigenvalues --   -0.53341  -0.53085  -0.51861  -0.51612  -0.49160
 Alpha  occ. eigenvalues --   -0.49106  -0.47615  -0.47586  -0.45176  -0.43616
 Alpha  occ. eigenvalues --   -0.37594  -0.36599  -0.36074  -0.35019
 Alpha virt. eigenvalues --    0.04758   0.06326   0.11058   0.12603   0.16270
 Alpha virt. eigenvalues --    0.17784   0.21217   0.22509   0.27134   0.28105
 Alpha virt. eigenvalues --    0.28462   0.29394   0.30780   0.31968   0.32354

 Mulliken charges:
               1
     1  C   -0.174978
     2  C   -0.221472
     3  C   -0.174145
     4  C    0.165312
     5  C   -0.151324
     6  C   -0.216613
     7  H    0.219351
     8  H    0.216053
     9  H    0.269695
    10  H    0.278560
    11  H    0.224615
    12  N    0.489363
    13  O   -0.457471
    14  O   -0.469192
    15  C   -0.170682
    16  C   -0.218931
    17  C   -0.170858
    18  C    0.158733
    19  C   -0.171653
    20  C   -0.218819
    21  H    0.226299
    22  H    0.225198
    23  H    0.279059
    24  H    0.273852
    25  H    0.223351
    26  N    0.490317
    27  O   -0.466687
    28  O   -0.456931
 Sum of Mulliken charges =  -0.00000

 Dipole moment (field-independent basis, Debye):
    X=              6.3561    Y=              4.0027    Z=              3.6969  Tot=              8.3719
 Quadrupole moment (field-independent basis, Debye-Ang):
   XX=            -93.0090   YY=           -102.5619   ZZ=           -101.8123
   XY=            -14.0804   XZ=              1.5400   YZ=             -3.0501

 Normal termination of Gaussian 16 at Wed May  5 19:18:34 2021.
