 Gaussian 16, Revision A.03,
 Gaussian 16:  EM64L-G16RevA.03 25-Dec-2016

 -------------
 #p 6-31g* mp2
 -------------

 ------------------------------------------------------
 Input file generated by CHIRIPA (05-May-2021 14:55:24)
 ------------------------------------------------------
 Symbolic Z-matrix:
 Charge =  0 Multiplicity = 1

                         Standard orientation:
 ---------------------------------------------------------------------
 Center     Atomic      Atomic             Coordinates (Angstroms)
 Number     Number       Type             X           Y           Z
 ---------------------------------------------------------------------
      1          6           0        1.789671    1.538548    1.668909
      2          6           0        1.155829    1.041533    0.525343
      3          6           0        1.823241    0.159450   -0.329664
      4          6           0        3.129731   -0.206230   -0.009268
      5          6           0        3.788226    0.271789    1.122621
      6          6           0        3.101533    1.152770    1.963379
      7          1           0        1.263720    2.223343    2.327565
      8          1           0        0.137070    1.339405    0.294156
      9          1           0        1.356352   -0.240473   -1.221569
     10          1           0        4.804313   -0.043351    1.326758
     11          1           0        3.596279    1.537170    2.850795
     12          7           0        3.846496   -1.139468   -0.906884
     13          8           0        4.997061   -1.446262   -0.602392
     14          8           0        3.244160   -1.546476   -1.897930
     15          6           0       -4.350291   -0.513160   -0.213090
     16          6           0       -4.263069   -1.459310    0.984899
     17          6           0       -5.260412   -2.615063    0.899234
     18          1           0       -5.371341   -0.113815   -0.283259
     19          1           0       -4.173659   -1.083510   -1.135532
     20          1           0       -4.438444   -0.887087    1.904910
     21          1           0       -3.242058   -1.856302    1.052336
     22          1           0       -5.083361   -3.210679   -0.002151
     23          1           0       -6.286544   -2.235956    0.855267
     24          1           0       -5.180875   -3.279030    1.765653
     25          6           0       -3.359404    0.647357   -0.141904
     26          6           0       -3.446625    1.593507   -1.339893
     27          6           0       -2.449282    2.749259   -1.254229
     28          1           0       -3.536035    1.217707    0.780538
     29          1           0       -2.338353    0.248011   -0.071735
     30          1           0       -4.467637    1.990500   -1.407331
     31          1           0       -3.271250    1.021283   -2.259903
     32          1           0       -1.423151    2.370153   -1.210261
     33          1           0       -2.626334    3.344876   -0.352843
     34          1           0       -2.528819    3.413227   -2.120647
 ---------------------------------------------------------------------

 SCF Done:  E(RHF) =  -669.535470965     A.U. after   15 cycles
 E2 =    -0.2091403191D+01 EUMP2 =    -0.67162687415658D+03

 The electronic state is 1-A.
 Alpha  occ. eigenvalues --  -20.60744 -20.60738 -15.85797 -11.31155 -11.27727
 Alpha  occ. eigenvalues --  -11.27721 -11.27454 -11.26736 -11.26686 -11.22387
 Alpha  occ. eigenvalues --  -11.22228 -11.22069 -11.22065 -11.21947 -11.21410
 Alpha  occ. eigenvalues --   -1.59819  -1.39373  -1.19325  -1.09119  -1.08718
 Alpha  occ. eigenvalues --   -1.04730  -1.04186  -0.96653  -0.95556  -0.87668
 Alpha  occ. eigenvalues --   -0.86126  -0.82394  -0.80260  -0.78924  -0.77439
 Alpha  occ. eigenvalues --   -0.72015  -0.71142  -0.70432  -0.65777  -0.64975
 Alpha  occ. eigenvalues --   -0.64731  -0.62138  -0.61528  -0.60019  -0.58254
 Alpha  occ. eigenvalues --   -0.55965  -0.55222  -0.53316  -0.53148  -0.53036
 Alpha  occ. eigenvalues --   -0.52794  -0.50597  -0.48792  -0.48771  -0.48540
 Alpha  occ. eigenvalues --   -0.47278  -0.46448  -0.46357  -0.44781  -0.44438
 Alpha  occ. eigenvalues --   -0.37300  -0.36329
 Alpha virt. eigenvalues --    0.05088   0.11288   0.16536   0.19350   0.22632
 Alpha virt. eigenvalues --    0.23669   0.25223   0.26480   0.27215   0.28330
 Alpha virt. eigenvalues --    0.28956   0.30232   0.31153   0.31380   0.32225

 Mulliken charges:
               1
     1  C   -0.172332
     2  C   -0.227867
     3  C   -0.173707
     4  C    0.158707
     5  C   -0.171075
     6  C   -0.218407
     7  H    0.226366
     8  H    0.237072
     9  H    0.274551
    10  H    0.275497
    11  H    0.223248
    12  N    0.488144
    13  O   -0.460571
    14  O   -0.460656
    15  C   -0.298678
    16  C   -0.300427
    17  C   -0.476222
    18  H    0.151815
    19  H    0.152386
    20  H    0.151268
    21  H    0.152848
    22  H    0.157127
    23  H    0.155701
    24  H    0.161830
    25  C   -0.301029
    26  C   -0.300785
    27  C   -0.479829
    28  H    0.149022
    29  H    0.144146
    30  H    0.156009
    31  H    0.155571
    32  H    0.148318
    33  H    0.154993
    34  H    0.166969
 Sum of Mulliken charges =  -0.00000

 Dipole moment (field-independent basis, Debye):
    X=             -2.7367    Y=              3.2779    Z=              3.1334  Tot=              5.2965
 Quadrupole moment (field-independent basis, Debye-Ang):
   XX=           -106.7046   YY=            -97.1273   ZZ=            -93.1355
   XY=             10.1337   XZ=             12.7391   YZ=             -0.2132

 Normal termination of Gaussian 16 at Thu May  6 19:18:59 2021.
