 Gaussian 16, Revision A.03,
 Gaussian 16:  EM64L-G16RevA.03 25-Dec-2016

 -------------
 #p 6-31g* mp2
 -------------

 ------------------------------------------------------
 Input file generated by CHIRIPA (05-May-2021 14:55:23)
 ------------------------------------------------------
 Symbolic Z-matrix:
 Charge =  0 Multiplicity = 1

                         Standard orientation:
 ---------------------------------------------------------------------
 Center     Atomic      Atomic             Coordinates (Angstroms)
 Number     Number       Type             X           Y           Z
 ---------------------------------------------------------------------
      1          6           0        4.414634    0.757377   -0.242679
      2          6           0        3.683523    0.879211    0.943556
      3          6           0        2.525317    0.122464    1.144656
      4          6           0        2.125229   -0.750289    0.133953
      5          6           0        2.832197   -0.894001   -1.058873
      6          6           0        3.987391   -0.127281   -1.238352
      7          1           0        5.313187    1.349111   -0.390501
      8          1           0        4.012959    1.565448    1.718537
      9          1           0        1.940382    0.197084    2.053337
     10          1           0        2.478864   -1.586509   -1.813198
     11          1           0        4.553198   -0.223963   -2.160610
     12          7           0        0.900682   -1.556703    0.335404
     13          8           0        0.569255   -2.318481   -0.570404
     14          8           0        0.295497   -1.411723    1.395295
     15          6           0       -3.548161    0.433340   -0.491830
     16          6           0       -4.485715   -0.324506    0.448727
     17          6           0       -5.620009   -1.033327   -0.292047
     18          1           0       -4.129609    1.168588   -1.064782
     19          1           0       -3.126502   -0.270104   -1.223106
     20          1           0       -4.904409    0.379905    1.178874
     21          1           0       -3.901936   -1.057903    1.019645
     22          1           0       -5.218883   -1.757643   -1.008332
     23          1           0       -6.227053   -0.311665   -0.848198
     24          1           0       -6.278126   -1.568752    0.399373
     25          6           0       -2.409084    1.147160    0.233907
     26          6           0       -1.471530    1.905006   -0.706651
     27          6           0       -0.337236    2.613826    0.034123
     28          1           0       -2.830743    1.850604    0.965183
     29          1           0       -1.827636    0.411912    0.806859
     30          1           0       -2.055310    2.638403   -1.277568
     31          1           0       -1.052836    1.200595   -1.436798
     32          1           0        0.269808    1.892165    0.590275
     33          1           0       -0.738362    3.338142    0.750408
     34          1           0        0.320881    3.149252   -0.657296
 ---------------------------------------------------------------------

 SCF Done:  E(RHF) =  -669.536006432     A.U. after   15 cycles
 E2 =    -0.2093590080D+01 EUMP2 =    -0.67162959651233D+03

 The electronic state is 1-A.
 Alpha  occ. eigenvalues --  -20.61064 -20.61053 -15.86068 -11.31333 -11.27891
 Alpha  occ. eigenvalues --  -11.27885 -11.27615 -11.26883 -11.26873 -11.21064
 Alpha  occ. eigenvalues --  -11.20759 -11.20632 -11.20460 -11.20379 -11.20242
 Alpha  occ. eigenvalues --   -1.60109  -1.39668  -1.19503  -1.08913  -1.07600
 Alpha  occ. eigenvalues --   -1.04892  -1.02828  -0.95766  -0.95279  -0.86356
 Alpha  occ. eigenvalues --   -0.86252  -0.82600  -0.78893  -0.77670  -0.77369
 Alpha  occ. eigenvalues --   -0.72294  -0.71432  -0.70614  -0.65158  -0.64890
 Alpha  occ. eigenvalues --   -0.64204  -0.62244  -0.60236  -0.58668  -0.56890
 Alpha  occ. eigenvalues --   -0.55396  -0.54663  -0.53174  -0.52979  -0.52021
 Alpha  occ. eigenvalues --   -0.51701  -0.49245  -0.49063  -0.49029  -0.47222
 Alpha  occ. eigenvalues --   -0.45998  -0.45319  -0.44922  -0.44432  -0.43027
 Alpha  occ. eigenvalues --   -0.37454  -0.36442
 Alpha virt. eigenvalues --    0.04811   0.11086   0.16297   0.21229   0.23496
 Alpha virt. eigenvalues --    0.24841   0.26895   0.27436   0.28011   0.28739
 Alpha virt. eigenvalues --    0.28784   0.30807   0.31666   0.32221   0.32472

 Mulliken charges:
               1
     1  C   -0.170362
     2  C   -0.217173
     3  C   -0.172807
     4  C    0.161541
     5  C   -0.170906
     6  C   -0.218218
     7  H    0.226308
     8  H    0.224535
     9  H    0.276231
    10  H    0.275801
    11  H    0.224008
    12  N    0.488150
    13  O   -0.458546
    14  O   -0.459849
    15  C   -0.297476
    16  C   -0.301237
    17  C   -0.475630
    18  H    0.144012
    19  H    0.154013
    20  H    0.147741
    21  H    0.162339
    22  H    0.156971
    23  H    0.151394
    24  H    0.158278
    25  C   -0.310112
    26  C   -0.300025
    27  C   -0.477891
    28  H    0.144383
    29  H    0.171978
    30  H    0.149644
    31  H    0.150427
    32  H    0.153523
    33  H    0.153380
    34  H    0.155573
 Sum of Mulliken charges =  -0.00000

 Dipole moment (field-independent basis, Debye):
    X=              4.5304    Y=              2.6156    Z=             -0.6497  Tot=              5.2714
 Quadrupole moment (field-independent basis, Debye-Ang):
   XX=            -77.7834   YY=            -98.8651   ZZ=            -91.1813
   XY=              2.0900   XZ=             -2.1967   YZ=              3.0311

 Normal termination of Gaussian 16 at Wed May  5 20:42:12 2021.
