 Gaussian 16, Revision A.03,
 Gaussian 16:  EM64L-G16RevA.03 25-Dec-2016

 -------------
 #p 6-31g* mp2
 -------------

 ------------------------------------------------------
 Input file generated by CHIRIPA (05-May-2021 14:57:24)
 ------------------------------------------------------
 Symbolic Z-matrix:
 Charge =  0 Multiplicity = 1

                         Standard orientation:
 ---------------------------------------------------------------------
 Center     Atomic      Atomic             Coordinates (Angstroms)
 Number     Number       Type             X           Y           Z
 ---------------------------------------------------------------------
      1          6           0        1.779397    0.406018    0.480396
      2          6           0        2.728106    1.433844    0.473475
      3          6           0        4.072599    1.157302    0.208127
      4          6           0        4.435064   -0.164318   -0.047278
      5          6           0        3.513364   -1.210148   -0.047522
      6          6           0        2.174358   -0.910376    0.220334
      7          1           0        0.737093    0.629866    0.687499
      8          1           0        2.424245    2.457104    0.675100
      9          1           0        4.827813    1.933790    0.196468
     10          1           0        3.846523   -2.220377   -0.252120
     11          1           0        1.439754   -1.710613    0.225049
     12          7           0        5.855514   -0.469377   -0.329518
     13          8           0        6.149303   -1.642005   -0.551484
     14          8           0        6.648179    0.469923   -0.323427
     15          6           0       -2.324151    1.780623    0.257715
     16          6           0       -2.361767    0.638805    1.064782
     17          6           0       -3.396890   -0.291356    0.931111
     18          6           0       -4.382399   -0.047079   -0.024080
     19          6           0       -4.372629    1.080996   -0.843007
     20          6           0       -3.327932    1.997691   -0.691930
     21          1           0       -1.516323    2.497965    0.368315
     22          1           0       -1.583566    0.467637    1.803124
     23          1           0       -3.450460   -1.183738    1.542833
     24          1           0       -5.162590    1.224330   -1.570217
     25          1           0       -3.301281    2.883560   -1.320080
     26          7           0       -5.483305   -1.024671   -0.174805
     27          8           0       -6.339541   -0.786418   -1.023766
     28          8           0       -5.469114   -2.010651    0.558871
 ---------------------------------------------------------------------

 SCF Done:  E(RHF) =  -868.336421578     A.U. after   16 cycles
 E2 =    -0.2600339171D+01 EUMP2 =    -0.87093676074926D+03

 The electronic state is 1-A.
 Alpha  occ. eigenvalues --  -20.61490 -20.61482 -20.61198 -20.61191 -15.86550
 Alpha  occ. eigenvalues --  -15.86255 -11.32111 -11.31747 -11.28748 -11.28670
 Alpha  occ. eigenvalues --  -11.28581 -11.28339 -11.28301 -11.28183 -11.27881
 Alpha  occ. eigenvalues --  -11.27720 -11.27448 -11.27372  -1.60560  -1.60269
 Alpha  occ. eigenvalues --   -1.40108  -1.39819  -1.20322  -1.19942  -1.09702
 Alpha  occ. eigenvalues --   -1.09335  -1.05753  -1.05358  -0.96495  -0.96144
 Alpha  occ. eigenvalues --   -0.87162  -0.86765  -0.83314  -0.82969  -0.78315
 Alpha  occ. eigenvalues --   -0.77973  -0.72767  -0.72471  -0.71886  -0.71594
 Alpha  occ. eigenvalues --   -0.71524  -0.71077  -0.65985  -0.65791  -0.65604
 Alpha  occ. eigenvalues --   -0.65364  -0.63090  -0.62697  -0.56304  -0.55971
 Alpha  occ. eigenvalues --   -0.54044  -0.53838  -0.53682  -0.53461  -0.49540
 Alpha  occ. eigenvalues --   -0.49506  -0.49241  -0.49217  -0.45469  -0.45196
 Alpha  occ. eigenvalues --   -0.38340  -0.37956  -0.37346  -0.36952
 Alpha virt. eigenvalues --    0.04213   0.04558   0.10098   0.10689   0.15630
 Alpha virt. eigenvalues --    0.15996   0.18300   0.22015   0.25219   0.25793
 Alpha virt. eigenvalues --    0.27386   0.29510   0.29642   0.30586   0.32338

 Mulliken charges:
               1
     1  C   -0.174424
     2  C   -0.219653
     3  C   -0.169876
     4  C    0.159076
     5  C   -0.169855
     6  C   -0.220011
     7  H    0.220681
     8  H    0.219908
     9  H    0.276926
    10  H    0.278083
    11  H    0.225648
    12  N    0.487889
    13  O   -0.458412
    14  O   -0.459353
    15  C   -0.170851
    16  C   -0.224436
    17  C   -0.170377
    18  C    0.159287
    19  C   -0.169120
    20  C   -0.217724
    21  H    0.221498
    22  H    0.219255
    23  H    0.277823
    24  H    0.279162
    25  H    0.226961
    26  N    0.487954
    27  O   -0.457395
    28  O   -0.458663
 Sum of Mulliken charges =  -0.00000

 Dipole moment (field-independent basis, Debye):
    X=             -1.2838    Y=              4.4256    Z=              1.3877  Tot=              4.8124
 Quadrupole moment (field-independent basis, Debye-Ang):
   XX=           -181.2509   YY=            -99.5466   ZZ=           -103.5310
   XY=             -9.9828   XZ=              4.2279   YZ=             -2.2772

 Normal termination of Gaussian 16 at Thu May  6 22:48:21 2021.
