 Gaussian 16, Revision A.03,
 Gaussian 16:  EM64L-G16RevA.03 25-Dec-2016

 -------------
 #p 6-31g* mp2
 -------------

 ------------------------------------------------------
 Input file generated by CHIRIPA (05-May-2021 14:53:13)
 ------------------------------------------------------
 Symbolic Z-matrix:
 Charge =  0 Multiplicity = 1

                         Standard orientation:
 ---------------------------------------------------------------------
 Center     Atomic      Atomic             Coordinates (Angstroms)
 Number     Number       Type             X           Y           Z
 ---------------------------------------------------------------------
      1          6           0       -3.923757    0.538056    0.322483
      2          6           0       -3.065663    1.624607   -0.326414
      3          6           0       -2.009479    2.189832    0.623738
      4          1           0       -4.414375    0.951134    1.214450
      5          1           0       -3.271665   -0.274206    0.672345
      6          1           0       -3.719311    2.433941   -0.676186
      7          1           0       -2.577181    1.208947   -1.217048
      8          1           0       -1.333842    1.398219    0.963539
      9          1           0       -2.482461    2.630172    1.507474
     10          1           0       -1.407439    2.964980    0.139432
     11          6           0       -4.984220   -0.036797   -0.614902
     12          6           0       -5.842313   -1.123348    0.033995
     13          6           0       -6.898497   -1.688573   -0.916157
     14          1           0       -5.636311    0.775465   -0.964764
     15          1           0       -4.493601   -0.449875   -1.506868
     16          1           0       -6.330795   -0.707689    0.924629
     17          1           0       -5.188666   -1.932682    0.383767
     18          1           0       -6.425515   -2.128913   -1.799893
     19          1           0       -7.574134   -0.896960   -1.255958
     20          1           0       -7.500537   -2.463721   -0.431851
     21          6           0        1.457255   -0.135632    1.621578
     22          6           0        2.334447   -1.224065    1.670266
     23          6           0        3.458173   -1.268025    0.839692
     24          6           0        3.675199   -0.201621   -0.031499
     25          6           0        2.819724    0.896692   -0.103334
     26          6           0        1.702261    0.919412    0.736493
     27          1           0        0.586751   -0.109732    2.270382
     28          1           0        2.146677   -2.044835    2.356650
     29          1           0        4.153583   -2.098405    0.856802
     30          1           0        3.033294    1.700028   -0.797926
     31          1           0        1.022733    1.765987    0.696524
     32          7           0        4.861521   -0.236918   -0.915690
     33          8           0        5.030440    0.715122   -1.674454
     34          8           0        5.599981   -1.215955   -0.833210
 ---------------------------------------------------------------------

 SCF Done:  E(RHF) =  -669.535136457     A.U. after   15 cycles
 E2 =    -0.2091549987D+01 EUMP2 =    -0.67162668644392D+03

 The electronic state is 1-A.
 Alpha  occ. eigenvalues --  -20.60732 -20.60727 -15.85783 -11.31143 -11.27706
 Alpha  occ. eigenvalues --  -11.27683 -11.27439 -11.26733 -11.26638 -11.22472
 Alpha  occ. eigenvalues --  -11.22300 -11.22141 -11.22101 -11.21945 -11.21470
 Alpha  occ. eigenvalues --   -1.59807  -1.39361  -1.19308  -1.09126  -1.08708
 Alpha  occ. eigenvalues --   -1.04708  -1.04260  -0.96745  -0.95545  -0.87780
 Alpha  occ. eigenvalues --   -0.86102  -0.82373  -0.80341  -0.78903  -0.77421
 Alpha  occ. eigenvalues --   -0.72003  -0.71130  -0.70431  -0.65773  -0.64960
 Alpha  occ. eigenvalues --   -0.64731  -0.62135  -0.61575  -0.60127  -0.58324
 Alpha  occ. eigenvalues --   -0.56033  -0.55217  -0.53497  -0.53182  -0.53025
 Alpha  occ. eigenvalues --   -0.52734  -0.50648  -0.48761  -0.48759  -0.48642
 Alpha  occ. eigenvalues --   -0.47338  -0.46455  -0.46350  -0.44768  -0.44502
 Alpha  occ. eigenvalues --   -0.37289  -0.36302
 Alpha virt. eigenvalues --    0.05095   0.11277   0.16581   0.20269   0.22463
 Alpha virt. eigenvalues --    0.23872   0.25406   0.26126   0.26458   0.27601
 Alpha virt. eigenvalues --    0.28904   0.29665   0.31077   0.31551   0.32063

 Mulliken charges:
               1
     1  C   -0.298876
     2  C   -0.299411
     3  C   -0.482578
     4  H    0.150360
     5  H    0.147259
     6  H    0.156004
     7  H    0.155540
     8  H    0.148582
     9  H    0.159455
    10  H    0.159838
    11  C   -0.299064
    12  C   -0.300028
    13  C   -0.476125
    14  H    0.151191
    15  H    0.151569
    16  H    0.152194
    17  H    0.151502
    18  H    0.156296
    19  H    0.156104
    20  H    0.161402
    21  C   -0.174626
    22  C   -0.218440
    23  C   -0.171447
    24  C    0.158740
    25  C   -0.172683
    26  C   -0.221845
    27  H    0.226114
    28  H    0.223137
    29  H    0.275344
    30  H    0.275479
    31  H    0.232020
    32  N    0.488060
    33  O   -0.460475
    34  O   -0.460593
 Sum of Mulliken charges =  -0.00000

 Dipole moment (field-independent basis, Debye):
    X=             -4.4079    Y=              0.1426    Z=              3.0559  Tot=              5.3655
 Quadrupole moment (field-independent basis, Debye-Ang):
   XX=           -125.3454   YY=            -90.7171   ZZ=            -95.1101
   XY=             -0.9929   XZ=             11.7154   YZ=             -2.7408

 Normal termination of Gaussian 16 at Wed May  5 20:10:28 2021.
