 Gaussian 16, Revision A.03,
 Gaussian 16:  EM64L-G16RevA.03 25-Dec-2016

 -------------
 #p 6-31g* mp2
 -------------

 ------------------------------------------------------
 Input file generated by CHIRIPA (05-May-2021 14:51:14)
 ------------------------------------------------------
 Symbolic Z-matrix:
 Charge =  0 Multiplicity = 1

                         Standard orientation:
 ---------------------------------------------------------------------
 Center     Atomic      Atomic             Coordinates (Angstroms)
 Number     Number       Type             X           Y           Z
 ---------------------------------------------------------------------
      1          6           0       -2.888858    0.898362   -0.029278
      2          6           0       -4.078217    1.848340    0.115466
      3          6           0       -3.655404    3.314561    0.211486
      4          1           0       -2.214799    1.031693    0.827935
      5          1           0       -2.314604    1.174711   -0.924409
      6          1           0       -4.650840    1.569416    1.009289
      7          1           0       -4.749619    1.712596   -0.742094
      8          1           0       -3.102849    3.615619   -0.684420
      9          1           0       -3.003509    3.471626    1.076914
     10          1           0       -4.521189    3.976138    0.314403
     11          6           0       -3.295457   -0.570978   -0.126468
     12          6           0       -2.106097   -1.520956   -0.271211
     13          6           0       -2.528910   -2.987176   -0.367232
     14          1           0       -3.869710   -0.847327    0.768663
     15          1           0       -3.969515   -0.704308   -0.983680
     16          1           0       -1.434695   -1.385211    0.586348
     17          1           0       -1.533474   -1.242031   -1.165035
     18          1           0       -3.180805   -3.144241   -1.232659
     19          1           0       -3.081465   -3.288235    0.528675
     20          1           0       -1.663125   -3.648753   -0.470148
     21          6           0        3.001084   -0.907965   -0.067716
     22          6           0        1.771760   -1.512661    0.611322
     23          6           0        1.603071   -3.002253    0.310565
     24          1           0        2.923339   -1.057802   -1.153280
     25          1           0        3.897363   -1.452870    0.259632
     26          1           0        0.878217   -0.965887    0.283856
     27          1           0        1.852348   -1.361197    1.695379
     28          1           0        2.476940   -3.565807    0.653143
     29          1           0        1.497275   -3.168250   -0.766400
     30          1           0        0.718252   -3.414135    0.805850
     31          6           0        3.183231    0.580580    0.223461
     32          6           0        4.412554    1.185277   -0.455577
     33          6           0        4.581243    2.674869   -0.154819
     34          1           0        2.286952    1.125485   -0.103887
     35          1           0        3.260975    0.730418    1.309026
     36          1           0        4.331966    1.033813   -1.539634
     37          1           0        5.306097    0.638502   -0.128110
     38          1           0        4.687039    2.840866    0.922146
     39          1           0        3.707374    3.238422   -0.497398
     40          1           0        5.466062    3.086750   -0.650105
 ---------------------------------------------------------------------

 SCF Done:  E(RHF) =  -470.732712383     A.U. after   11 cycles
 E2 =    -0.1583618472D+01 EUMP2 =    -0.47231633085427D+03

 The electronic state is 1-A.
 Alpha  occ. eigenvalues --  -11.21621 -11.21589 -11.21580 -11.21495 -11.21424
 Alpha  occ. eigenvalues --  -11.21367 -11.21362 -11.21306 -11.21086 -11.21054
 Alpha  occ. eigenvalues --  -11.21049 -11.21043  -1.08461  -1.08380  -1.03589
 Alpha  occ. eigenvalues --   -1.03450  -0.96028  -0.95913  -0.87035  -0.86938
 Alpha  occ. eigenvalues --   -0.79726  -0.79471  -0.78344  -0.78123  -0.65101
 Alpha  occ. eigenvalues --   -0.65011  -0.61014  -0.60880  -0.59588  -0.59116
 Alpha  occ. eigenvalues --   -0.57758  -0.57358  -0.55276  -0.55219  -0.52811
 Alpha  occ. eigenvalues --   -0.52566  -0.52428  -0.52296  -0.49949  -0.49886
 Alpha  occ. eigenvalues --   -0.48170  -0.47737  -0.46749  -0.46519  -0.45980
 Alpha  occ. eigenvalues --   -0.45747  -0.45717  -0.45320  -0.43853  -0.43672
 Alpha virt. eigenvalues --    0.21299   0.23152   0.23308   0.25230   0.25813
 Alpha virt. eigenvalues --    0.26332   0.26862   0.27205   0.28726   0.29215
 Alpha virt. eigenvalues --    0.30584   0.31062   0.31190   0.31579   0.32433

 Mulliken charges:
               1
     1  C   -0.298815
     2  C   -0.299537
     3  C   -0.475747
     4  H    0.149849
     5  H    0.148887
     6  H    0.152069
     7  H    0.152024
     8  H    0.155031
     9  H    0.155340
    10  H    0.160354
    11  C   -0.297648
    12  C   -0.304238
    13  C   -0.479031
    14  H    0.149519
    15  H    0.149557
    16  H    0.158165
    17  H    0.151256
    18  H    0.154942
    19  H    0.154693
    20  H    0.164201
    21  C   -0.297749
    22  C   -0.306267
    23  C   -0.477866
    24  H    0.149236
    25  H    0.149089
    26  H    0.160170
    27  H    0.150514
    28  H    0.154943
    29  H    0.154857
    30  H    0.162553
    31  C   -0.298410
    32  C   -0.299575
    33  C   -0.475696
    34  H    0.149774
    35  H    0.149395
    36  H    0.151808
    37  H    0.151875
    38  H    0.155105
    39  H    0.155217
    40  H    0.160154
 Sum of Mulliken charges =  -0.00000

 Dipole moment (field-independent basis, Debye):
    X=             -0.0286    Y=             -0.0016    Z=              0.0048  Tot=              0.0290
 Quadrupole moment (field-independent basis, Debye-Ang):
   XX=            -84.7113   YY=            -87.1300   ZZ=            -83.0805
   XY=             -0.5544   XZ=              0.4534   YZ=             -0.4952

 Normal termination of Gaussian 16 at Thu May  6 00:49:51 2021.
