 Gaussian 16, Revision A.03,
 Gaussian 16:  EM64L-G16RevA.03 25-Dec-2016

 -------------
 #p 6-31g* mp2
 -------------

 ------------------------------------------------------
 Input file generated by CHIRIPA (05-May-2021 14:53:18)
 ------------------------------------------------------
 Symbolic Z-matrix:
 Charge =  0 Multiplicity = 1

                         Standard orientation:
 ---------------------------------------------------------------------
 Center     Atomic      Atomic             Coordinates (Angstroms)
 Number     Number       Type             X           Y           Z
 ---------------------------------------------------------------------
      1          6           0       -3.316670   -0.467758    0.059455
      2          6           0       -4.283441   -1.595535   -0.303116
      3          6           0       -3.804544   -2.963816    0.182948
      4          1           0       -2.329934   -0.686669   -0.371095
      5          1           0       -3.183716   -0.444603    1.149952
      6          1           0       -4.415607   -1.615669   -1.392493
      7          1           0       -5.268041   -1.373819    0.128186
      8          1           0       -3.690440   -2.967566    1.271786
      9          1           0       -2.833163   -3.210791   -0.257534
     10          1           0       -4.510542   -3.755397   -0.086914
     11          6           0       -3.781651    0.906255   -0.419719
     12          6           0       -2.814880    2.034032   -0.057148
     13          6           0       -3.293778    3.402313   -0.543212
     14          1           0       -3.914605    0.883100   -1.510216
     15          1           0       -4.768388    1.125166    0.010830
     16          1           0       -1.830281    1.812316   -0.488450
     17          1           0       -2.682715    2.054167    1.032229
     18          1           0       -4.265159    3.649288   -0.102731
     19          1           0       -3.407881    3.406063   -1.632050
     20          1           0       -2.587779    4.193894   -0.273350
     21          6           0        5.102005    0.178004   -0.764057
     22          6           0        4.696508    0.839852    0.399580
     23          6           0        3.408307    0.653834    0.909951
     24          6           0        2.547601   -0.205056    0.228199
     25          6           0        2.922094   -0.878715   -0.933364
     26          6           0        4.215068   -0.677659   -1.425649
     27          1           0        6.104565    0.328348   -1.153501
     28          1           0        5.383192    1.504960    0.915469
     29          1           0        3.068344    1.153647    1.808856
     30          1           0        2.215185   -1.535518   -1.425611
     31          1           0        4.527251   -1.192975   -2.329548
     32          7           0        1.181313   -0.409945    0.758933
     33          8           0        0.441933   -1.171871    0.139721
     34          8           0        0.875668    0.195267    1.784085
 ---------------------------------------------------------------------

 SCF Done:  E(RHF) =  -669.536123799     A.U. after   15 cycles
 E2 =    -0.2091445258D+01 EUMP2 =    -0.67162756905757D+03

 The electronic state is 1-A.
 Alpha  occ. eigenvalues --  -20.60982 -20.60976 -15.86012 -11.31326 -11.27889
 Alpha  occ. eigenvalues --  -11.27883 -11.27622 -11.26892 -11.26882 -11.20444
 Alpha  occ. eigenvalues --  -11.20327 -11.20226 -11.20153 -11.19814 -11.19650
 Alpha  occ. eigenvalues --   -1.60036  -1.39594  -1.19492  -1.08897  -1.07107
 Alpha  occ. eigenvalues --   -1.04888  -1.02343  -0.95740  -0.94788  -0.86288
 Alpha  occ. eigenvalues --   -0.85809  -0.82576  -0.78400  -0.77629  -0.76843
 Alpha  occ. eigenvalues --   -0.72229  -0.71349  -0.70601  -0.65149  -0.64890
 Alpha  occ. eigenvalues --   -0.63749  -0.62235  -0.59758  -0.58168  -0.56389
 Alpha  occ. eigenvalues --   -0.55391  -0.54084  -0.53219  -0.52979  -0.51552
 Alpha  occ. eigenvalues --   -0.51206  -0.49041  -0.48982  -0.48702  -0.46716
 Alpha  occ. eigenvalues --   -0.45442  -0.45067  -0.44389  -0.44174  -0.42545
 Alpha  occ. eigenvalues --   -0.37470  -0.36488
 Alpha virt. eigenvalues --    0.04880   0.11167   0.16369   0.21299   0.24102
 Alpha virt. eigenvalues --    0.25419   0.27222   0.27870   0.28216   0.28832
 Alpha virt. eigenvalues --    0.29191   0.30912   0.32366   0.32529   0.32792

 Mulliken charges:
               1
     1  C   -0.305638
     2  C   -0.298915
     3  C   -0.474410
     4  H    0.172808
     5  H    0.152868
     6  H    0.146068
     7  H    0.146274
     8  H    0.155711
     9  H    0.160439
    10  H    0.152787
    11  C   -0.298108
    12  C   -0.296933
    13  C   -0.475095
    14  H    0.143674
    15  H    0.144510
    16  H    0.151383
    17  H    0.156971
    18  H    0.153031
    19  H    0.151500
    20  H    0.156463
    21  C   -0.170548
    22  C   -0.218558
    23  C   -0.170571
    24  C    0.157861
    25  C   -0.170846
    26  C   -0.218512
    27  H    0.226121
    28  H    0.223958
    29  H    0.275987
    30  H    0.275455
    31  H    0.223903
    32  N    0.489471
    33  O   -0.460924
    34  O   -0.458183
 Sum of Mulliken charges =  -0.00000

 Dipole moment (field-independent basis, Debye):
    X=              5.2062    Y=              0.6496    Z=             -1.7524  Tot=              5.5315
 Quadrupole moment (field-independent basis, Debye-Ang):
   XX=            -71.9405   YY=            -95.4885   ZZ=            -92.4485
   XY=              1.8560   XZ=             -3.8372   YZ=              3.9170

 Normal termination of Gaussian 16 at Thu May  6 01:16:36 2021.
