 Gaussian 16, Revision A.03,
 Gaussian 16:  EM64L-G16RevA.03 25-Dec-2016

 -------------
 #p 6-31g* mp2
 -------------

 ------------------------------------------------------
 Input file generated by CHIRIPA (05-May-2021 14:51:10)
 ------------------------------------------------------
 Symbolic Z-matrix:
 Charge =  0 Multiplicity = 1

                         Standard orientation:
 ---------------------------------------------------------------------
 Center     Atomic      Atomic             Coordinates (Angstroms)
 Number     Number       Type             X           Y           Z
 ---------------------------------------------------------------------
      1          6           0       -3.438985   -0.016772    0.346988
      2          6           0       -2.184047   -0.578638   -0.321909
      3          6           0       -0.893275   -0.054837    0.308435
      4          1           0       -3.418839    1.080024    0.287173
      5          1           0       -3.421899   -0.271892    1.415640
      6          1           0       -2.204175   -0.323724   -1.389256
      7          1           0       -2.207277   -1.674231   -0.260664
      8          1           0       -0.846574   -0.321871    1.369148
      9          1           0       -0.843455    1.036310    0.234143
     10          1           0       -0.008592   -0.469223   -0.185002
     11          6           0       -4.737400   -0.531147   -0.272097
     12          6           0       -5.992338    0.030718    0.396800
     13          6           0       -7.283110   -0.493083   -0.233544
     14          1           0       -4.754486   -0.276028   -1.340749
     15          1           0       -4.757546   -1.627943   -0.212282
     16          1           0       -5.969108    1.126312    0.335555
     17          1           0       -5.972209   -0.224196    1.464147
     18          1           0       -7.332929   -1.584229   -0.159253
     19          1           0       -7.329810   -0.226048   -1.294257
     20          1           0       -8.167793   -0.078696    0.259893
     21          6           0        3.401313    0.578457   -0.174960
     22          6           0        3.343631    2.084869    0.080730
     23          6           0        1.963022    2.679487   -0.198814
     24          1           0        3.118849    0.378889   -1.217712
     25          1           0        2.651467    0.077986    0.453255
     26          1           0        4.094309    2.582212   -0.546763
     27          1           0        3.626451    2.280890    1.122942
     28          1           0        1.205455    2.210061    0.437057
     29          1           0        1.675972    2.513095   -1.242135
     30          1           0        1.944297    3.757304   -0.009554
     31          6           0        4.775072   -0.030537    0.100070
     32          6           0        4.832755   -1.536950   -0.155621
     33          6           0        6.213363   -2.131568    0.123923
     34          1           0        5.524917    0.469933   -0.528146
     35          1           0        5.057537    0.169030    1.142823
     36          1           0        4.549934   -1.732971   -1.197833
     37          1           0        4.082076   -2.034293    0.471872
     38          1           0        6.500413   -1.965176    1.167244
     39          1           0        6.970930   -1.662142   -0.511948
     40          1           0        6.232088   -3.209385   -0.065337
 ---------------------------------------------------------------------

 SCF Done:  E(RHF) =  -470.732864945     A.U. after   11 cycles
 E2 =    -0.1582894205D+01 EUMP2 =    -0.47231575915076D+03

 The electronic state is 1-A.
 Alpha  occ. eigenvalues --  -11.21593 -11.21583 -11.21577 -11.21544 -11.21392
 Alpha  occ. eigenvalues --  -11.21365 -11.21332 -11.21302 -11.21064 -11.21057
 Alpha  occ. eigenvalues --  -11.21016 -11.20948  -1.08420  -1.08386  -1.03534
 Alpha  occ. eigenvalues --   -1.03466  -0.95995  -0.95908  -0.87034  -0.86911
 Alpha  occ. eigenvalues --   -0.79672  -0.79472  -0.78253  -0.78175  -0.65056
 Alpha  occ. eigenvalues --   -0.65014  -0.60978  -0.60834  -0.59404  -0.59230
 Alpha  occ. eigenvalues --   -0.57661  -0.57486  -0.55390  -0.55106  -0.52701
 Alpha  occ. eigenvalues --   -0.52622  -0.52541  -0.52206  -0.50057  -0.49726
 Alpha  occ. eigenvalues --   -0.47970  -0.47773  -0.46682  -0.46485  -0.45820
 Alpha  occ. eigenvalues --   -0.45731  -0.45688  -0.45608  -0.43756  -0.43709
 Alpha virt. eigenvalues --    0.22265   0.22958   0.23649   0.24716   0.26041
 Alpha virt. eigenvalues --    0.26473   0.26961   0.27107   0.27846   0.29231
 Alpha virt. eigenvalues --    0.30240   0.31055   0.31510   0.31835   0.32093

 Mulliken charges:
               1
     1  C   -0.298550
     2  C   -0.299958
     3  C   -0.481309
     4  H    0.149851
     5  H    0.149313
     6  H    0.152027
     7  H    0.151639
     8  H    0.153755
     9  H    0.158867
    10  H    0.164166
    11  C   -0.298224
    12  C   -0.299628
    13  C   -0.475695
    14  H    0.149541
    15  H    0.149598
    16  H    0.151975
    17  H    0.151861
    18  H    0.155147
    19  H    0.155186
    20  H    0.160223
    21  C   -0.301414
    22  C   -0.299259
    23  C   -0.481122
    24  H    0.148998
    25  H    0.153538
    26  H    0.151432
    27  H    0.151591
    28  H    0.163458
    29  H    0.154267
    30  H    0.159086
    31  C   -0.298121
    32  C   -0.299682
    33  C   -0.475656
    34  H    0.149441
    35  H    0.149584
    36  H    0.151734
    37  H    0.151849
    38  H    0.155174
    39  H    0.155167
    40  H    0.160146
 Sum of Mulliken charges =  -0.00000

 Dipole moment (field-independent basis, Debye):
    X=             -0.0139    Y=             -0.0007    Z=              0.0070  Tot=              0.0155
 Quadrupole moment (field-independent basis, Debye-Ang):
   XX=            -86.8137   YY=            -84.6440   ZZ=            -83.5541
   XY=              0.2292   XZ=             -0.7210   YZ=             -0.6823

 Normal termination of Gaussian 16 at Thu May  6 00:36:36 2021.
