 Gaussian 16, Revision A.03,
 Gaussian 16:  EM64L-G16RevA.03 25-Dec-2016

 -------------
 #p 6-31g* mp2
 -------------

 ------------------------------------------------------
 Input file generated by CHIRIPA (05-May-2021 14:57:26)
 ------------------------------------------------------
 Symbolic Z-matrix:
 Charge =  0 Multiplicity = 1

                         Standard orientation:
 ---------------------------------------------------------------------
 Center     Atomic      Atomic             Coordinates (Angstroms)
 Number     Number       Type             X           Y           Z
 ---------------------------------------------------------------------
      1          6           0       -5.032488    1.686421   -1.067806
      2          6           0       -5.193982    0.321478   -1.327366
      3          6           0       -4.435367   -0.627435   -0.635545
      4          6           0       -3.520325   -0.174182    0.313428
      5          6           0       -3.336499    1.178777    0.594497
      6          6           0       -4.105896    2.109967   -0.109393
      7          1           0       -5.625986    2.416675   -1.609917
      8          1           0       -5.912832   -0.010346   -2.071135
      9          1           0       -4.540160   -1.690276   -0.816667
     10          1           0       -2.611975    1.479087    1.341690
     11          1           0       -3.978357    3.169355    0.094262
     12          7           0       -2.711506   -1.169373    1.052216
     13          8           0       -1.912054   -0.744334    1.883393
     14          8           0       -2.892320   -2.355599    0.786111
     15          6           0        1.326035   -0.865133   -0.618391
     16          6           0        1.518632    0.221480    0.241085
     17          6           0        2.803826    0.714830    0.484870
     18          6           0        3.878650    0.094783   -0.150413
     19          6           0        3.719143   -0.989437   -1.011989
     20          6           0        2.424968   -1.466065   -1.241087
     21          1           0        0.324178   -1.241884   -0.802063
     22          1           0        0.667043    0.690144    0.726055
     23          1           0        2.981500    1.554638    1.145606
     24          1           0        4.587608   -1.435841   -1.480933
     25          1           0        2.278390   -2.310091   -1.909053
     26          7           0        5.243982    0.608219    0.099897
     27          8           0        6.174391    0.044412   -0.472027
     28          8           0        5.357866    1.564735    0.863275
 ---------------------------------------------------------------------

 SCF Done:  E(RHF) =  -868.339096963     A.U. after   16 cycles
 E2 =    -0.2599279971D+01 EUMP2 =    -0.87093837693475D+03

 The electronic state is 1-A.
 Alpha  occ. eigenvalues --  -20.61998 -20.61969 -20.60305 -20.60299 -15.87005
 Alpha  occ. eigenvalues --  -15.85353 -11.32172 -11.30591 -11.28727 -11.28682
 Alpha  occ. eigenvalues --  -11.28359 -11.27650 -11.27632 -11.27154 -11.27124
 Alpha  occ. eigenvalues --  -11.26808 -11.26135 -11.26043  -1.61059  -1.59383
 Alpha  occ. eigenvalues --   -1.40614  -1.38940  -1.20313  -1.18738  -1.09738
 Alpha  occ. eigenvalues --   -1.08143  -1.05675  -1.04123  -0.96606  -0.95008
 Alpha  occ. eigenvalues --   -0.87082  -0.85516  -0.83436  -0.81848  -0.78526
 Alpha  occ. eigenvalues --   -0.76923  -0.73208  -0.72405  -0.71574  -0.71396
 Alpha  occ. eigenvalues --   -0.70704  -0.69821  -0.65956  -0.65658  -0.64385
 Alpha  occ. eigenvalues --   -0.64104  -0.63025  -0.61476  -0.56154  -0.54597
 Alpha  occ. eigenvalues --   -0.54022  -0.53753  -0.52454  -0.52209  -0.49988
 Alpha  occ. eigenvalues --   -0.49949  -0.48338  -0.48320  -0.46039  -0.44375
 Alpha  occ. eigenvalues --   -0.38271  -0.37271  -0.36680  -0.35725
 Alpha virt. eigenvalues --    0.03945   0.05608   0.10356   0.11941   0.15491
 Alpha virt. eigenvalues --    0.17149   0.20312   0.21902   0.25908   0.26954
 Alpha virt. eigenvalues --    0.28302   0.28573   0.30201   0.30782   0.32422

 Mulliken charges:
               1
     1  C   -0.169759
     2  C   -0.218053
     3  C   -0.171513
     4  C    0.155393
     5  C   -0.173727
     6  C   -0.217634
     7  H    0.229341
     8  H    0.226633
     9  H    0.276749
    10  H    0.273540
    11  H    0.226770
    12  N    0.485810
    13  O   -0.463296
    14  O   -0.456840
    15  C   -0.167883
    16  C   -0.216304
    17  C   -0.172535
    18  C    0.158230
    19  C   -0.172071
    20  C   -0.219109
    21  H    0.226332
    22  H    0.227200
    23  H    0.273039
    24  H    0.273530
    25  H    0.222215
    26  N    0.488199
    27  O   -0.462052
    28  O   -0.462201
 Sum of Mulliken charges =  -0.00000

 Dipole moment (field-independent basis, Debye):
    X=             -8.1209    Y=              1.6988    Z=             -3.5162  Tot=              9.0110
 Quadrupole moment (field-independent basis, Debye-Ang):
   XX=           -121.0541   YY=           -101.6168   ZZ=           -104.1508
   XY=            -19.4950   XZ=              6.1544   YZ=              6.2554

 Normal termination of Gaussian 16 at Wed May  5 18:00:52 2021.
