 Gaussian 16, Revision A.03,
 Gaussian 16:  EM64L-G16RevA.03 25-Dec-2016

 -------------
 #p 6-31g* mp2
 -------------

 ------------------------------------------------------
 Input file generated by CHIRIPA (05-May-2021 14:55:24)
 ------------------------------------------------------
 Symbolic Z-matrix:
 Charge =  0 Multiplicity = 1

                         Standard orientation:
 ---------------------------------------------------------------------
 Center     Atomic      Atomic             Coordinates (Angstroms)
 Number     Number       Type             X           Y           Z
 ---------------------------------------------------------------------
      1          6           0        0.907287    1.533087    0.133701
      2          6           0        1.999268    1.857222   -0.678110
      3          6           0        3.116565    1.018687   -0.733373
      4          6           0        3.108209   -0.141253    0.039776
      5          6           0        2.035583   -0.491556    0.858343
      6          6           0        0.928892    0.361797    0.897988
      7          1           0        0.043464    2.190236    0.170565
      8          1           0        1.985253    2.766209   -1.272745
      9          1           0        3.975477    1.245481   -1.353255
     10          1           0        2.078675   -1.404544    1.439731
     11          1           0        0.082265    0.107539    1.529352
     12          7           0        4.285427   -1.036816   -0.010463
     13          8           0        4.253478   -2.052928    0.680285
     14          8           0        5.217789   -0.705688   -0.739635
     15          6           0       -3.611569    0.611462    0.369165
     16          6           0       -2.963472    1.766288   -0.395250
     17          6           0       -2.732607    2.998669    0.479812
     18          1           0       -4.568930    0.949466    0.788876
     19          1           0       -2.973863    0.342137    1.222506
     20          1           0       -3.601526    2.032437   -1.247698
     21          1           0       -2.007632    1.425438   -0.813351
     22          1           0       -2.077728    2.755402    1.322756
     23          1           0       -3.680677    3.365850    0.885942
     24          1           0       -2.268488    3.812037   -0.086656
     25          6           0       -3.848755   -0.627709   -0.492187
     26          6           0       -4.496852   -1.782536    0.272227
     27          6           0       -4.727716   -3.014916   -0.602834
     28          1           0       -4.486461   -0.358385   -1.345528
     29          1           0       -2.891394   -0.965714   -0.911898
     30          1           0       -5.452692   -1.441686    0.690329
     31          1           0       -3.858798   -2.048684    1.124676
     32          1           0       -3.779647   -3.382097   -1.008964
     33          1           0       -5.382597   -2.771650   -1.445779
     34          1           0       -5.191836   -3.828285   -0.036366
 ---------------------------------------------------------------------

 SCF Done:  E(RHF) =  -669.534950188     A.U. after   15 cycles
 E2 =    -0.2092596753D+01 EUMP2 =    -0.67162754694069D+03

 The electronic state is 1-A.
 Alpha  occ. eigenvalues --  -20.60754 -20.60749 -15.85809 -11.31173 -11.27750
 Alpha  occ. eigenvalues --  -11.27740 -11.27398 -11.26758 -11.26733 -11.22763
 Alpha  occ. eigenvalues --  -11.22456 -11.22417 -11.22232 -11.22126 -11.21539
 Alpha  occ. eigenvalues --   -1.59830  -1.39384  -1.19345  -1.09365  -1.08731
 Alpha  occ. eigenvalues --   -1.04750  -1.04464  -0.96921  -0.95566  -0.87920
 Alpha  occ. eigenvalues --   -0.86144  -0.82409  -0.80532  -0.79107  -0.77457
 Alpha  occ. eigenvalues --   -0.72026  -0.71154  -0.70526  -0.66027  -0.64989
 Alpha  occ. eigenvalues --   -0.64731  -0.62114  -0.61853  -0.60319  -0.58493
 Alpha  occ. eigenvalues --   -0.56402  -0.54962  -0.53594  -0.53314  -0.53083
 Alpha  occ. eigenvalues --   -0.52838  -0.50855  -0.48827  -0.48783  -0.48778
 Alpha  occ. eigenvalues --   -0.47590  -0.46650  -0.46554  -0.44790  -0.44689
 Alpha  occ. eigenvalues --   -0.37293  -0.36360
 Alpha virt. eigenvalues --    0.05048   0.11256   0.16454   0.18631   0.22713
 Alpha virt. eigenvalues --    0.24014   0.24626   0.26245   0.26574   0.28274
 Alpha virt. eigenvalues --    0.29793   0.30583   0.30907   0.30984   0.31430

 Mulliken charges:
               1
     1  C   -0.176818
     2  C   -0.221986
     3  C   -0.170496
     4  C    0.158307
     5  C   -0.170761
     6  C   -0.224467
     7  H    0.241576
     8  H    0.223884
     9  H    0.275515
    10  H    0.275526
    11  H    0.224188
    12  N    0.488008
    13  O   -0.460562
    14  O   -0.460427
    15  C   -0.297585
    16  C   -0.308075
    17  C   -0.485030
    18  H    0.153813
    19  H    0.143317
    20  H    0.158489
    21  H    0.151339
    22  H    0.149043
    23  H    0.165933
    24  H    0.160082
    25  C   -0.299839
    26  C   -0.299927
    27  C   -0.476397
    28  H    0.152157
    29  H    0.151754
    30  H    0.153247
    31  H    0.150553
    32  H    0.156865
    33  H    0.156368
    34  H    0.162407
 Sum of Mulliken charges =  -0.00000

 Dipole moment (field-independent basis, Debye):
    X=             -4.3841    Y=              3.1345    Z=              0.1090  Tot=              5.3905
 Quadrupole moment (field-independent basis, Debye-Ang):
   XX=           -118.3464   YY=            -94.7234   ZZ=            -93.3513
   XY=             11.4417   XZ=             -1.0210   YZ=             -2.8302

 Normal termination of Gaussian 16 at Thu May  6 17:40:32 2021.
