 Gaussian 16, Revision A.03,
 Gaussian 16:  EM64L-G16RevA.03 25-Dec-2016

 -------------
 #p 6-31g* mp2
 -------------

 ------------------------------------------------------
 Input file generated by CHIRIPA (05-May-2021 14:55:25)
 ------------------------------------------------------
 Symbolic Z-matrix:
 Charge =  0 Multiplicity = 1

                         Standard orientation:
 ---------------------------------------------------------------------
 Center     Atomic      Atomic             Coordinates (Angstroms)
 Number     Number       Type             X           Y           Z
 ---------------------------------------------------------------------
      1          6           0       -3.083134    1.572147   -0.104563
      2          6           0       -2.983205    0.766092   -1.243339
      3          6           0       -2.376708   -0.491535   -1.172041
      4          6           0       -1.878704   -0.913542    0.059702
      5          6           0       -1.963109   -0.133579    1.212014
      6          6           0       -2.573665    1.120535    1.117325
      7          1           0       -3.555852    2.547738   -0.169034
      8          1           0       -3.377978    1.114235   -2.193599
      9          1           0       -2.285973   -1.135965   -2.038006
     10          1           0       -1.560232   -0.507860    2.145300
     11          1           0       -2.649869    1.744390    2.003352
     12          7           0       -1.234484   -2.243077    0.147563
     13          8           0       -0.803634   -2.591873    1.244535
     14          8           0       -1.172592   -2.911194   -0.882206
     15          6           0        1.817414    1.134484   -0.051921
     16          6           0        1.694717    2.657295    0.011150
     17          6           0        0.241771    3.133334    0.022397
     18          1           0        1.303186    0.768490   -0.951123
     19          1           0        1.293396    0.695437    0.808334
     20          1           0        2.219988    3.093402   -0.848220
     21          1           0        2.209460    3.019723    0.910205
     22          1           0       -0.290485    2.725693    0.887923
     23          1           0       -0.279897    2.799791   -0.880494
     24          1           0        0.177304    4.224960    0.067751
     25          6           0        3.263876    0.643229   -0.063845
     26          6           0        3.386573   -0.879582   -0.126917
     27          6           0        4.839520   -1.355621   -0.138164
     28          1           0        3.787893    1.082276   -0.924100
     29          1           0        3.778103    1.009224    0.835357
     30          1           0        2.871829   -1.242010   -1.025973
     31          1           0        2.861302   -1.315689    0.732453
     32          1           0        5.361187   -1.022077    0.764727
     33          1           0        5.371775   -0.947980   -1.003690
     34          1           0        4.903986   -2.447247   -0.183518
 ---------------------------------------------------------------------

 SCF Done:  E(RHF) =  -669.534098058     A.U. after   15 cycles
 E2 =    -0.2094754434D+01 EUMP2 =    -0.67162885249237D+03

 The electronic state is 1-A.
 Alpha  occ. eigenvalues --  -20.60799 -20.60794 -15.85851 -11.31224 -11.27800
 Alpha  occ. eigenvalues --  -11.27777 -11.27498 -11.26808 -11.26765 -11.21655
 Alpha  occ. eigenvalues --  -11.21289 -11.21199 -11.21138 -11.21069 -11.20614
 Alpha  occ. eigenvalues --   -1.59869  -1.39424  -1.19396  -1.08788  -1.08255
 Alpha  occ. eigenvalues --   -1.04812  -1.03343  -0.95841  -0.95607  -0.86866
 Alpha  occ. eigenvalues --   -0.86195  -0.82459  -0.79437  -0.78039  -0.77506
 Alpha  occ. eigenvalues --   -0.72070  -0.71183  -0.70494  -0.65051  -0.64903
 Alpha  occ. eigenvalues --   -0.64810  -0.62160  -0.60749  -0.59226  -0.57454
 Alpha  occ. eigenvalues --   -0.55299  -0.55132  -0.53348  -0.52901  -0.52522
 Alpha  occ. eigenvalues --   -0.52101  -0.49794  -0.48829  -0.48824  -0.47667
 Alpha  occ. eigenvalues --   -0.46484  -0.45551  -0.45507  -0.44806  -0.43609
 Alpha  occ. eigenvalues --   -0.37270  -0.36323
 Alpha virt. eigenvalues --    0.05009   0.11112   0.16435   0.21117   0.23038
 Alpha virt. eigenvalues --    0.24522   0.26361   0.27160   0.27426   0.28198
 Alpha virt. eigenvalues --    0.28625   0.30592   0.31638   0.32031   0.32257

 Mulliken charges:
               1
     1  C   -0.164423
     2  C   -0.219940
     3  C   -0.171593
     4  C    0.161984
     5  C   -0.170925
     6  C   -0.218772
     7  H    0.226397
     8  H    0.223586
     9  H    0.275590
    10  H    0.275096
    11  H    0.223696
    12  N    0.488369
    13  O   -0.460986
    14  O   -0.460421
    15  C   -0.299027
    16  C   -0.299358
    17  C   -0.476845
    18  H    0.149043
    19  H    0.149035
    20  H    0.151471
    21  H    0.150983
    22  H    0.153289
    23  H    0.154641
    24  H    0.155048
    25  C   -0.298142
    26  C   -0.302213
    27  C   -0.475895
    28  H    0.148009
    29  H    0.148317
    30  H    0.154731
    31  H    0.159557
    32  H    0.153360
    33  H    0.152781
    34  H    0.163555
 Sum of Mulliken charges =  -0.00000

 Dipole moment (field-independent basis, Debye):
    X=             -2.3608    Y=              4.5437    Z=             -0.3082  Tot=              5.1297
 Quadrupole moment (field-independent basis, Debye-Ang):
   XX=            -87.7908   YY=           -104.5911   ZZ=            -89.0538
   XY=             -6.6529   XZ=              1.4731   YZ=              1.3346

 Normal termination of Gaussian 16 at Thu May  6 07:59:25 2021.
