 Gaussian 16, Revision A.03,
 Gaussian 16:  EM64L-G16RevA.03 25-Dec-2016

 -------------
 #p 6-31g* mp2
 -------------

 ------------------------------------------------------
 Input file generated by CHIRIPA (05-May-2021 14:57:22)
 ------------------------------------------------------
 Symbolic Z-matrix:
 Charge =  0 Multiplicity = 1

                         Standard orientation:
 ---------------------------------------------------------------------
 Center     Atomic      Atomic             Coordinates (Angstroms)
 Number     Number       Type             X           Y           Z
 ---------------------------------------------------------------------
      1          6           0       -3.646493    1.647211   -1.570971
      2          6           0       -2.940346    2.036190   -0.427917
      3          6           0       -2.509045    1.082581    0.498990
      4          6           0       -2.802500   -0.257305    0.250232
      5          6           0       -3.504073   -0.676251   -0.879179
      6          6           0       -3.925610    0.294617   -1.792564
      7          1           0       -3.977746    2.394701   -2.285762
      8          1           0       -2.722159    3.085917   -0.253238
      9          1           0       -1.960624    1.356013    1.392235
     10          1           0       -3.706600   -1.730211   -1.026040
     11          1           0       -4.473830   -0.010374   -2.679401
     12          7           0       -2.351069   -1.275984    1.224349
     13          8           0       -2.622243   -2.450059    0.982172
     14          8           0       -1.734610   -0.881061    2.211594
     15          6           0        3.216445   -2.237268   -1.004661
     16          6           0        1.974608   -1.866279   -0.478611
     17          6           0        1.775100   -0.579819    0.031060
     18          6           0        2.844075    0.314350   -0.001230
     19          6           0        4.093113   -0.025332   -0.518735
     20          6           0        4.269877   -1.317233   -1.023011
     21          1           0        3.362594   -3.238735   -1.398490
     22          1           0        1.154703   -2.578712   -0.463065
     23          1           0        0.824091   -0.266190    0.444143
     24          1           0        4.891513    0.706769   -0.520581
     25          1           0        5.235392   -1.602578   -1.430936
     26          7           0        2.644904    1.679147    0.535481
     27          8           0        3.602647    2.448410    0.495509
     28          8           0        1.534820    1.953770    0.985964
 ---------------------------------------------------------------------

 SCF Done:  E(RHF) =  -868.340154748     A.U. after   16 cycles
 E2 =    -0.2599577683D+01 EUMP2 =    -0.87093973243160D+03

 The electronic state is 1-A.
 Alpha  occ. eigenvalues --  -20.61205 -20.61178 -20.60670 -20.60656 -15.86199
 Alpha  occ. eigenvalues --  -15.85713 -11.31274 -11.30874 -11.27864 -11.27690
 Alpha  occ. eigenvalues --  -11.27497 -11.27461 -11.27360 -11.27149 -11.26807
 Alpha  occ. eigenvalues --  -11.26656 -11.26447 -11.26328  -1.60271  -1.59737
 Alpha  occ. eigenvalues --   -1.39822  -1.39297  -1.19424  -1.19034  -1.08882
 Alpha  occ. eigenvalues --   -1.08471  -1.04751  -1.04400  -0.95752  -0.95338
 Alpha  occ. eigenvalues --   -0.86174  -0.85811  -0.82572  -0.82175  -0.77659
 Alpha  occ. eigenvalues --   -0.77236  -0.72406  -0.71953  -0.71615  -0.71048
 Alpha  occ. eigenvalues --   -0.70504  -0.70139  -0.65062  -0.64741  -0.64685
 Alpha  occ. eigenvalues --   -0.64395  -0.62081  -0.61736  -0.55279  -0.54927
 Alpha  occ. eigenvalues --   -0.53136  -0.52820  -0.52751  -0.52482  -0.49190
 Alpha  occ. eigenvalues --   -0.49151  -0.48696  -0.48676  -0.45263  -0.44746
 Alpha  occ. eigenvalues --   -0.37418  -0.37020  -0.36336  -0.35989
 Alpha virt. eigenvalues --    0.04804   0.05276   0.11219   0.11668   0.16341
 Alpha virt. eigenvalues --    0.16809   0.21360   0.21833   0.27000   0.27550
 Alpha virt. eigenvalues --    0.28207   0.28747   0.30968   0.31307   0.32058

 Mulliken charges:
               1
     1  C   -0.170328
     2  C   -0.217983
     3  C   -0.171766
     4  C    0.151126
     5  C   -0.172732
     6  C   -0.218970
     7  H    0.226849
     8  H    0.230560
     9  H    0.287164
    10  H    0.273014
    11  H    0.222851
    12  N    0.484653
    13  O   -0.462833
    14  O   -0.457018
    15  C   -0.170706
    16  C   -0.220614
    17  C   -0.170704
    18  C    0.156629
    19  C   -0.171361
    20  C   -0.219167
    21  H    0.225473
    22  H    0.230357
    23  H    0.277621
    24  H    0.273805
    25  H    0.222006
    26  N    0.488912
    27  O   -0.461301
    28  O   -0.465538
 Sum of Mulliken charges =  -0.00000

 Dipole moment (field-independent basis, Debye):
    X=             -1.0170    Y=             -1.0908    Z=             -5.2748  Tot=              5.4815
 Quadrupole moment (field-independent basis, Debye-Ang):
   XX=            -87.5023   YY=           -107.4536   ZZ=           -105.9015
   XY=            -21.2119   XZ=              4.0057   YZ=              3.2326

 Normal termination of Gaussian 16 at Thu May  6 11:14:48 2021.
