 Gaussian 16, Revision A.03,
 Gaussian 16:  EM64L-G16RevA.03 25-Dec-2016

 -------------
 #p 6-31g* mp2
 -------------

 ------------------------------------------------------
 Input file generated by CHIRIPA (05-May-2021 14:57:24)
 ------------------------------------------------------
 Symbolic Z-matrix:
 Charge =  0 Multiplicity = 1

                         Standard orientation:
 ---------------------------------------------------------------------
 Center     Atomic      Atomic             Coordinates (Angstroms)
 Number     Number       Type             X           Y           Z
 ---------------------------------------------------------------------
      1          6           0        5.254198   -1.074279    0.346716
      2          6           0        4.009787   -1.664172    0.101789
      3          6           0        2.879552   -0.871600   -0.119450
      4          6           0        3.030547    0.513872   -0.088529
      5          6           0        4.256802    1.131384    0.152858
      6          6           0        5.373524    0.319160    0.371425
      7          1           0        6.126943   -1.697602    0.517542
      8          1           0        3.914148   -2.746072    0.082017
      9          1           0        1.904186   -1.301992   -0.311394
     10          1           0        4.320849    2.212648    0.166425
     11          1           0        6.338693    0.780033    0.561395
     12          7           0        1.841171    1.363335   -0.321330
     13          8           0        2.000615    2.581598   -0.288903
     14          8           0        0.772014    0.794798   -0.531820
     15          6           0       -5.366198    0.928005    0.355185
     16          6           0       -4.585858    0.593422    1.466782
     17          6           0       -3.398472   -0.127663    1.309625
     18          6           0       -3.019720   -0.499731    0.020672
     19          6           0       -3.775621   -0.181409   -1.106526
     20          6           0       -4.959305    0.540204   -0.925663
     21          1           0       -6.287150    1.488365    0.486476
     22          1           0       -4.899392    0.893270    2.462689
     23          1           0       -2.775327   -0.399947    2.152814
     24          1           0       -3.437108   -0.494255   -2.086810
     25          1           0       -5.563333    0.798655   -1.790764
     26          7           0       -1.764646   -1.263392   -0.158251
     27          8           0       -1.452886   -1.579412   -1.304364
     28          8           0       -1.116444   -1.531467    0.851008
 ---------------------------------------------------------------------

 SCF Done:  E(RHF) =  -868.340295036     A.U. after   16 cycles
 E2 =    -0.2600343313D+01 EUMP2 =    -0.87094063834834D+03

 The electronic state is 1-A.
 Alpha  occ. eigenvalues --  -20.60112 -20.60089 -20.59963 -20.59909 -15.85111
 Alpha  occ. eigenvalues --  -15.84989 -11.30447 -11.30213 -11.27033 -11.27016
 Alpha  occ. eigenvalues --  -11.26901 -11.26809 -11.26628 -11.26599 -11.26073
 Alpha  occ. eigenvalues --  -11.26059 -11.25899 -11.25745  -1.59111  -1.59010
 Alpha  occ. eigenvalues --   -1.38679  -1.38566  -1.18619  -1.18413  -1.08029
 Alpha  occ. eigenvalues --   -1.07858  -1.04040  -1.03788  -0.94881  -0.94697
 Alpha  occ. eigenvalues --   -0.85443  -0.85198  -0.81735  -0.81537  -0.76767
 Alpha  occ. eigenvalues --   -0.76570  -0.71444  -0.71387  -0.70354  -0.70087
 Alpha  occ. eigenvalues --   -0.69772  -0.69518  -0.64301  -0.64087  -0.64059
 Alpha  occ. eigenvalues --   -0.63803  -0.61402  -0.61097  -0.54580  -0.54352
 Alpha  occ. eigenvalues --   -0.52343  -0.52158  -0.52154  -0.51873  -0.48241
 Alpha  occ. eigenvalues --   -0.48117  -0.47990  -0.47846  -0.44361  -0.43731
 Alpha  occ. eigenvalues --   -0.36590  -0.36444  -0.35633  -0.35390
 Alpha virt. eigenvalues --    0.05808   0.05947   0.12026   0.12260   0.17279
 Alpha virt. eigenvalues --    0.17424   0.22033   0.22391   0.27946   0.28295
 Alpha virt. eigenvalues --    0.28914   0.29386   0.31530   0.31898   0.33191

 Mulliken charges:
               1
     1  C   -0.170750
     2  C   -0.221307
     3  C   -0.172374
     4  C    0.154092
     5  C   -0.171847
     6  C   -0.220142
     7  H    0.222224
     8  H    0.224311
     9  H    0.297971
    10  H    0.271770
    11  H    0.219320
    12  N    0.490730
    13  O   -0.467542
    14  O   -0.460020
    15  C   -0.170677
    16  C   -0.218547
    17  C   -0.168414
    18  C    0.165853
    19  C   -0.167895
    20  C   -0.218595
    21  H    0.223183
    22  H    0.220946
    23  H    0.273463
    24  H    0.274856
    25  H    0.221340
    26  N    0.498405
    27  O   -0.462294
    28  O   -0.468059
 Sum of Mulliken charges =  -0.00000

 Dipole moment (field-independent basis, Debye):
    X=             -0.4196    Y=             -0.4403    Z=              1.3647  Tot=              1.4941
 Quadrupole moment (field-independent basis, Debye-Ang):
   XX=            -54.0309   YY=           -108.7342   ZZ=           -100.9608
   XY=            -11.0218   XZ=              1.4433   YZ=              1.1639

 Normal termination of Gaussian 16 at Thu May  6 06:41:50 2021.
