 Gaussian 16, Revision A.03,
 Gaussian 16:  EM64L-G16RevA.03 25-Dec-2016

 -------------
 #p 6-31g* mp2
 -------------

 ------------------------------------------------------
 Input file generated by CHIRIPA (05-May-2021 14:51:10)
 ------------------------------------------------------
 Symbolic Z-matrix:
 Charge =  0 Multiplicity = 1

                         Standard orientation:
 ---------------------------------------------------------------------
 Center     Atomic      Atomic             Coordinates (Angstroms)
 Number     Number       Type             X           Y           Z
 ---------------------------------------------------------------------
      1          6           0       -4.197023   -0.261906   -0.370154
      2          6           0       -5.446634   -0.069024    0.489644
      3          6           0       -6.626480    0.497381   -0.300889
      4          1           0       -3.913396    0.701775   -0.814924
      5          1           0       -4.435794   -0.933813   -1.206171
      6          1           0       -5.205209    0.601220    1.324571
      7          1           0       -5.727208   -1.033239    0.932572
      8          1           0       -6.895510   -0.172213   -1.124216
      9          1           0       -6.370545    1.471532   -0.729991
     10          1           0       -7.509159    0.627245    0.333046
     11          6           0       -3.008993   -0.827480    0.406015
     12          6           0       -1.759381   -1.020362   -0.453784
     13          6           0       -0.579535   -1.586767    0.336750
     14          1           0       -2.770222   -0.155573    1.242031
     15          1           0       -3.292620   -1.791161    0.850785
     16          1           0       -1.478808   -0.056148   -0.896712
     17          1           0       -2.000807   -1.690606   -1.288710
     18          1           0       -0.835470   -2.560918    0.765851
     19          1           0       -0.310505   -0.917173    1.160077
     20          1           0        0.303143   -1.716631   -0.297185
     21          6           0        3.875123   -0.151216   -0.176349
     22          6           0        5.356875   -0.314777    0.163716
     23          6           0        5.886662   -1.712299   -0.158857
     24          1           0        3.293625   -0.901902    0.376169
     25          1           0        3.725492   -0.363677   -1.243994
     26          1           0        5.503882   -0.100722    1.230105
     27          1           0        5.934892    0.436510   -0.389529
     28          1           0        5.769000   -1.932327   -1.224851
     29          1           0        5.335541   -2.472612    0.403984
     30          1           0        6.947749   -1.807192    0.092039
     31          6           0        3.330893    1.240602    0.140489
     32          6           0        1.849141    1.404164   -0.199576
     33          6           0        1.319354    2.801685    0.122996
     34          1           0        3.480523    1.453063    1.208134
     35          1           0        3.912391    1.991288   -0.412029
     36          1           0        1.271123    0.652876    0.353668
     37          1           0        1.702134    1.190109   -1.265965
     38          1           0        1.870475    3.561999   -0.439845
     39          1           0        1.437015    3.021714    1.188991
     40          1           0        0.258266    2.896578   -0.127899
 ---------------------------------------------------------------------

 SCF Done:  E(RHF) =  -470.732726662     A.U. after   11 cycles
 E2 =    -0.1583351509D+01 EUMP2 =    -0.47231607817084D+03

 The electronic state is 1-A.
 Alpha  occ. eigenvalues --  -11.21610 -11.21607 -11.21583 -11.21481 -11.21414
 Alpha  occ. eigenvalues --  -11.21373 -11.21355 -11.21312 -11.21075 -11.21074
 Alpha  occ. eigenvalues --  -11.21061 -11.21055  -1.08449  -1.08388  -1.03573
 Alpha  occ. eigenvalues --   -1.03468  -0.96005  -0.95948  -0.87042  -0.86948
 Alpha  occ. eigenvalues --   -0.79649  -0.79524  -0.78253  -0.78209  -0.65145
 Alpha  occ. eigenvalues --   -0.64973  -0.61122  -0.60759  -0.59433  -0.59241
 Alpha  occ. eigenvalues --   -0.57606  -0.57556  -0.55354  -0.55190  -0.52747
 Alpha  occ. eigenvalues --   -0.52601  -0.52416  -0.52376  -0.50079  -0.49810
 Alpha  occ. eigenvalues --   -0.47926  -0.47846  -0.46788  -0.46442  -0.45818
 Alpha  occ. eigenvalues --   -0.45749  -0.45714  -0.45548  -0.43783  -0.43740
 Alpha virt. eigenvalues --    0.21187   0.23036   0.23687   0.24781   0.26095
 Alpha virt. eigenvalues --    0.26449   0.26610   0.27373   0.28061   0.29277
 Alpha virt. eigenvalues --    0.30740   0.30914   0.31632   0.31939   0.32437

 Mulliken charges:
               1
     1  C   -0.298260
     2  C   -0.299667
     3  C   -0.475716
     4  H    0.149543
     5  H    0.149572
     6  H    0.151964
     7  H    0.151947
     8  H    0.155186
     9  H    0.155209
    10  H    0.160281
    11  C   -0.298423
    12  C   -0.301504
    13  C   -0.479576
    14  H    0.149559
    15  H    0.149688
    16  H    0.153927
    17  H    0.152191
    18  H    0.155724
    19  H    0.154888
    20  H    0.163649
    21  C   -0.299877
    22  C   -0.299553
    23  C   -0.475750
    24  H    0.151204
    25  H    0.149071
    26  H    0.151920
    27  H    0.151934
    28  H    0.155055
    29  H    0.155313
    30  H    0.160189
    31  C   -0.297465
    32  C   -0.308873
    33  C   -0.475722
    34  H    0.149000
    35  H    0.149213
    36  H    0.164443
    37  H    0.150787
    38  H    0.155126
    39  H    0.154683
    40  H    0.159120
 Sum of Mulliken charges =  -0.00000

 Dipole moment (field-independent basis, Debye):
    X=             -0.0166    Y=             -0.0325    Z=              0.0043  Tot=              0.0367
 Quadrupole moment (field-independent basis, Debye-Ang):
   XX=            -85.9036   YY=            -84.9733   ZZ=            -84.0729
   XY=              1.2121   XZ=             -0.4434   YZ=             -0.0556

 Normal termination of Gaussian 16 at Thu May  6 02:11:12 2021.
