 Gaussian 16, Revision A.03,
 Gaussian 16:  EM64L-G16RevA.03 25-Dec-2016

 -------------
 #p 6-31g* mp2
 -------------

 ------------------------------------------------------
 Input file generated by CHIRIPA (05-May-2021 14:57:25)
 ------------------------------------------------------
 Symbolic Z-matrix:
 Charge =  0 Multiplicity = 1

                         Standard orientation:
 ---------------------------------------------------------------------
 Center     Atomic      Atomic             Coordinates (Angstroms)
 Number     Number       Type             X           Y           Z
 ---------------------------------------------------------------------
      1          6           0       -1.751009   -1.774961    0.130132
      2          6           0       -1.732227   -0.530392    0.768267
      3          6           0       -2.849340    0.308857    0.720644
      4          6           0       -3.973457   -0.130121    0.022825
      5          6           0       -4.022895   -1.364471   -0.623104
      6          6           0       -2.894268   -2.187302   -0.562296
      7          1           0       -0.878737   -2.420533    0.172249
      8          1           0       -0.845740   -0.207560    1.306750
      9          1           0       -2.861911    1.277341    1.205719
     10          1           0       -4.921150   -1.658850   -1.152157
     11          1           0       -2.911695   -3.153328   -1.058818
     12          7           0       -5.162189    0.749664   -0.034571
     13          8           0       -6.140245    0.339761   -0.655878
     14          8           0       -5.093353    1.832484    0.542837
     15          6           0        2.654543    2.527169   -0.214166
     16          6           0        1.911099    1.402242    0.157792
     17          6           0        2.522880    0.149460    0.261756
     18          6           0        3.886107    0.057400   -0.014701
     19          6           0        4.653803    1.159612   -0.387612
     20          6           0        4.021113    2.402483   -0.485203
     21          1           0        2.171175    3.496510   -0.292453
     22          1           0        0.849647    1.496100    0.368877
     23          1           0        1.971140   -0.737814    0.547669
     24          1           0        5.710274    1.034701   -0.591776
     25          1           0        4.600977    3.274397   -0.774286
     26          7           0        4.544839   -1.263618    0.091988
     27          8           0        5.747225   -1.318256   -0.156851
     28          8           0        3.846295   -2.219380    0.422429
 ---------------------------------------------------------------------

 SCF Done:  E(RHF) =  -868.337239927     A.U. after   16 cycles
 E2 =    -0.2599979503D+01 EUMP2 =    -0.87093721943019D+03

 The electronic state is 1-A.
 Alpha  occ. eigenvalues --  -20.61441 -20.61414 -20.61225 -20.61211 -15.86486
 Alpha  occ. eigenvalues --  -15.86281 -11.31876 -11.31722 -11.28547 -11.28400
 Alpha  occ. eigenvalues --  -11.28384 -11.28279 -11.28129 -11.28057 -11.27503
 Alpha  occ. eigenvalues --  -11.27466 -11.27379 -11.27251  -1.60502  -1.60295
 Alpha  occ. eigenvalues --   -1.40058  -1.39847  -1.20038  -1.19919  -1.09412
 Alpha  occ. eigenvalues --   -1.09288  -1.05473  -1.05342  -0.96253  -0.96105
 Alpha  occ. eigenvalues --   -0.86854  -0.86740  -0.83114  -0.82940  -0.78196
 Alpha  occ. eigenvalues --   -0.77960  -0.72704  -0.72496  -0.71823  -0.71621
 Alpha  occ. eigenvalues --   -0.71146  -0.70983  -0.65719  -0.65596  -0.65544
 Alpha  occ. eigenvalues --   -0.65294  -0.62975  -0.62534  -0.55913  -0.55803
 Alpha  occ. eigenvalues --   -0.53763  -0.53702  -0.53586  -0.53357  -0.49469
 Alpha  occ. eigenvalues --   -0.49450  -0.49261  -0.49246  -0.45460  -0.45236
 Alpha  occ. eigenvalues --   -0.37980  -0.37879  -0.37072  -0.36940
 Alpha virt. eigenvalues --    0.04399   0.04562   0.10580   0.10636   0.15885
 Alpha virt. eigenvalues --    0.15925   0.17982   0.22173   0.24894   0.25444
 Alpha virt. eigenvalues --    0.27921   0.29234   0.30241   0.31323   0.32534

 Mulliken charges:
               1
     1  C   -0.171353
     2  C   -0.224149
     3  C   -0.171709
     4  C    0.158830
     5  C   -0.169196
     6  C   -0.218474
     7  H    0.232000
     8  H    0.217333
     9  H    0.274049
    10  H    0.277990
    11  H    0.227802
    12  N    0.488128
    13  O   -0.458201
    14  O   -0.460955
    15  C   -0.170192
    16  C   -0.218873
    17  C   -0.171871
    18  C    0.159609
    19  C   -0.169953
    20  C   -0.217970
    21  H    0.229464
    22  H    0.220028
    23  H    0.265861
    24  H    0.277717
    25  H    0.226560
    26  N    0.488522
    27  O   -0.457092
    28  O   -0.463902
 Sum of Mulliken charges =  -0.00000

 Dipole moment (field-independent basis, Debye):
    X=              1.8734    Y=              1.5437    Z=             -0.3261  Tot=              2.4493
 Quadrupole moment (field-independent basis, Debye-Ang):
   XX=           -150.2607   YY=           -100.4764   ZZ=           -104.4087
   XY=             34.6673   XZ=             -1.9640   YZ=              1.3700

 Normal termination of Gaussian 16 at Fri May  7 12:39:23 2021.
