 Gaussian 16, Revision A.03,
 Gaussian 16:  EM64L-G16RevA.03 25-Dec-2016

 -------------
 #p 6-31g* mp2
 -------------

 ------------------------------------------------------
 Input file generated by CHIRIPA (05-May-2021 14:53:17)
 ------------------------------------------------------
 Symbolic Z-matrix:
 Charge =  0 Multiplicity = 1

                         Standard orientation:
 ---------------------------------------------------------------------
 Center     Atomic      Atomic             Coordinates (Angstroms)
 Number     Number       Type             X           Y           Z
 ---------------------------------------------------------------------
      1          6           0        5.596376   -0.545230   -0.006007
      2          6           0        7.060898   -0.147179   -0.192328
      3          6           0        8.012059   -1.342116   -0.120128
      4          1           0        5.480596   -1.049833    0.962970
      5          1           0        5.322588   -1.280023   -0.775756
      6          1           0        7.331451    0.587684    0.576694
      7          1           0        7.173169    0.356705   -1.160890
      8          1           0        7.770255   -2.074470   -0.897167
      9          1           0        7.929436   -1.842180    0.850289
     10          1           0        9.053710   -1.034866   -0.255858
     11          6           0        4.633271    0.638539   -0.075634
     12          6           0        3.168749    0.240488    0.110687
     13          6           0        2.217587    1.435425    0.038487
     14          1           0        4.907059    1.373333    0.694115
     15          1           0        4.749051    1.143142   -1.044611
     16          1           0        3.056478   -0.263396    1.079248
     17          1           0        2.898196   -0.494374   -0.658335
     18          1           0        2.300211    1.935489   -0.931930
     19          1           0        2.459392    2.167779    0.815526
     20          1           0        1.175937    1.128175    0.174217
     21          6           0       -2.706443    2.126419    0.190266
     22          6           0       -2.106906    0.923929    0.578974
     23          6           0       -2.811920   -0.280454    0.495508
     24          6           0       -4.120621   -0.245547    0.016580
     25          6           0       -4.745488    0.936338   -0.378362
     26          6           0       -4.021502    2.128782   -0.286322
     27          1           0       -2.151402    3.057374    0.258434
     28          1           0       -1.085755    0.919084    0.949477
     29          1           0       -2.372073   -1.225662    0.789673
     30          1           0       -5.764908    0.909444   -0.743708
     31          1           0       -4.489657    3.061154   -0.588906
     32          7           0       -4.877031   -1.514253   -0.076320
     33          8           0       -6.028743   -1.456716   -0.501624
     34          8           0       -4.303868   -2.542178    0.277928
 ---------------------------------------------------------------------

 SCF Done:  E(RHF) =  -669.535530964     A.U. after   15 cycles
 E2 =    -0.2090657990D+01 EUMP2 =    -0.67162618895470D+03

 The electronic state is 1-A.
 Alpha  occ. eigenvalues --  -20.60745 -20.60740 -15.85798 -11.31162 -11.27738
 Alpha  occ. eigenvalues --  -11.27733 -11.27473 -11.26746 -11.26726 -11.22296
 Alpha  occ. eigenvalues --  -11.22046 -11.21933 -11.21918 -11.21770 -11.21328
 Alpha  occ. eigenvalues --   -1.59820  -1.39374  -1.19337  -1.08933  -1.08730
 Alpha  occ. eigenvalues --   -1.04743  -1.04073  -0.96540  -0.95565  -0.87564
 Alpha  occ. eigenvalues --   -0.86139  -0.82399  -0.80140  -0.78712  -0.77449
 Alpha  occ. eigenvalues --   -0.72017  -0.71144  -0.70440  -0.65556  -0.64989
 Alpha  occ. eigenvalues --   -0.64779  -0.62128  -0.61458  -0.59929  -0.58135
 Alpha  occ. eigenvalues --   -0.55810  -0.55239  -0.53386  -0.53062  -0.53009
 Alpha  occ. eigenvalues --   -0.52659  -0.50463  -0.48778  -0.48772  -0.48448
 Alpha  occ. eigenvalues --   -0.47152  -0.46264  -0.46163  -0.44780  -0.44322
 Alpha  occ. eigenvalues --   -0.37313  -0.36343
 Alpha virt. eigenvalues --    0.05091   0.11246   0.16558   0.20184   0.22518
 Alpha virt. eigenvalues --    0.23767   0.25926   0.26192   0.27042   0.28216
 Alpha virt. eigenvalues --    0.28428   0.30114   0.30889   0.31582   0.32075

 Mulliken charges:
               1
     1  C   -0.298860
     2  C   -0.300035
     3  C   -0.476026
     4  H    0.150401
     5  H    0.150948
     6  H    0.152050
     7  H    0.152373
     8  H    0.156030
     9  H    0.155719
    10  H    0.161164
    11  C   -0.299030
    12  C   -0.299435
    13  C   -0.480837
    14  H    0.149877
    15  H    0.150742
    16  H    0.152313
    17  H    0.154996
    18  H    0.159096
    19  H    0.156007
    20  H    0.152278
    21  C   -0.172145
    22  C   -0.223716
    23  C   -0.172109
    24  C    0.158664
    25  C   -0.170916
    26  C   -0.218685
    27  H    0.226309
    28  H    0.231076
    29  H    0.275784
    30  H    0.275551
    31  H    0.223369
    32  N    0.488059
    33  O   -0.460550
    34  O   -0.460463
 Sum of Mulliken charges =  -0.00000

 Dipole moment (field-independent basis, Debye):
    X=              2.8374    Y=              4.4701    Z=              0.2947  Tot=              5.3028
 Quadrupole moment (field-independent basis, Debye-Ang):
   XX=           -113.7413   YY=            -96.7355   ZZ=            -93.8660
   XY=            -20.9657   XZ=              0.3385   YZ=             -0.9199

 Normal termination of Gaussian 16 at Thu May  6 01:13:03 2021.
