 Gaussian 16, Revision A.03,
 Gaussian 16:  EM64L-G16RevA.03 25-Dec-2016

 -------------
 #p 6-31g* mp2
 -------------

 ------------------------------------------------------
 Input file generated by CHIRIPA (05-May-2021 14:55:24)
 ------------------------------------------------------
 Symbolic Z-matrix:
 Charge =  0 Multiplicity = 1

                         Standard orientation:
 ---------------------------------------------------------------------
 Center     Atomic      Atomic             Coordinates (Angstroms)
 Number     Number       Type             X           Y           Z
 ---------------------------------------------------------------------
      1          6           0       -0.884782    0.146920   -0.149257
      2          6           0       -1.721804    1.236597    0.112504
      3          6           0       -3.107073    1.065071    0.190965
      4          6           0       -3.623758   -0.215744    0.001652
      5          6           0       -2.815993   -1.321191   -0.260634
      6          6           0       -1.433580   -1.126251   -0.334664
      7          1           0        0.190220    0.289259   -0.208486
      8          1           0       -1.298383    2.226498    0.256918
      9          1           0       -3.778170    1.891214    0.392299
     10          1           0       -3.267412   -2.295964   -0.400122
     11          1           0       -0.785959   -1.974338   -0.538089
     12          7           0       -5.088769   -0.409724    0.082369
     13          8           0       -5.519205   -1.548263   -0.088190
     14          8           0       -5.778868    0.580447    0.314667
     15          6           0        4.292247    0.996631   -0.033290
     16          6           0        2.860780    1.532727   -0.071845
     17          6           0        2.802995    3.057571   -0.168327
     18          1           0        4.820087    1.439854    0.822212
     19          1           0        4.825012    1.328340   -0.935246
     20          1           0        2.330459    1.198952    0.829248
     21          1           0        2.336228    1.088030   -0.927244
     22          1           0        3.307656    3.405582   -1.075414
     23          1           0        3.301853    3.517134    0.691058
     24          1           0        1.770378    3.419335   -0.194564
     25          6           0        4.366457   -0.526171    0.063118
     26          6           0        5.797925   -1.062267    0.101673
     27          6           0        5.855709   -2.587110    0.198155
     28          1           0        3.833692   -0.857879    0.965074
     29          1           0        3.838617   -0.969394   -0.792385
     30          1           0        6.322476   -0.617570    0.957071
     31          1           0        6.328246   -0.728491   -0.799420
     32          1           0        5.356851   -3.046673   -0.661230
     33          1           0        5.351049   -2.935122    1.105242
     34          1           0        6.888327   -2.948874    0.224391
 ---------------------------------------------------------------------

 SCF Done:  E(RHF) =  -669.535412639     A.U. after   15 cycles
 E2 =    -0.2091571118D+01 EUMP2 =    -0.67162698375679D+03

 The electronic state is 1-A.
 Alpha  occ. eigenvalues --  -20.60686 -20.60681 -15.85740 -11.31079 -11.27655
 Alpha  occ. eigenvalues --  -11.27651 -11.27279 -11.26647 -11.26633 -11.23018
 Alpha  occ. eigenvalues --  -11.22456 -11.22386 -11.22328 -11.22286 -11.21736
 Alpha  occ. eigenvalues --   -1.59763  -1.39317  -1.19247  -1.09484  -1.08635
 Alpha  occ. eigenvalues --   -1.04653  -1.04559  -0.96964  -0.95478  -0.87984
 Alpha  occ. eigenvalues --   -0.86045  -0.82332  -0.80688  -0.79289  -0.77376
 Alpha  occ. eigenvalues --   -0.71957  -0.71087  -0.70337  -0.66098  -0.64894
 Alpha  occ. eigenvalues --   -0.64664  -0.62009  -0.61939  -0.60388  -0.58599
 Alpha  occ. eigenvalues --   -0.56219  -0.55153  -0.53670  -0.53379  -0.52980
 Alpha  occ. eigenvalues --   -0.52738  -0.50898  -0.48947  -0.48715  -0.48692
 Alpha  occ. eigenvalues --   -0.47704  -0.46792  -0.46708  -0.44801  -0.44729
 Alpha  occ. eigenvalues --   -0.37209  -0.36267
 Alpha virt. eigenvalues --    0.05154   0.11387   0.16615   0.19576   0.22246
 Alpha virt. eigenvalues --    0.23683   0.25268   0.25739   0.25822   0.28003
 Alpha virt. eigenvalues --    0.29109   0.29998   0.30446   0.31616   0.32313

 Mulliken charges:
               1
     1  C   -0.179565
     2  C   -0.223561
     3  C   -0.170773
     4  C    0.157988
     5  C   -0.170623
     6  C   -0.221817
     7  H    0.241861
     8  H    0.223101
     9  H    0.275156
    10  H    0.275069
    11  H    0.223494
    12  N    0.488022
    13  O   -0.460788
    14  O   -0.460812
    15  C   -0.296554
    16  C   -0.311377
    17  C   -0.474652
    18  H    0.153829
    19  H    0.153393
    20  H    0.151119
    21  H    0.149036
    22  H    0.160733
    23  H    0.160643
    24  H    0.155270
    25  C   -0.300046
    26  C   -0.300252
    27  C   -0.476406
    28  H    0.149265
    29  H    0.147204
    30  H    0.154131
    31  H    0.153867
    32  H    0.155077
    33  H    0.155774
    34  H    0.163194
 Sum of Mulliken charges =  -0.00000

 Dipole moment (field-independent basis, Debye):
    X=              5.5309    Y=              0.7331    Z=             -0.2724  Tot=              5.5859
 Quadrupole moment (field-independent basis, Debye-Ang):
   XX=           -131.5580   YY=            -91.1710   ZZ=            -94.4072
   XY=             -3.8360   XZ=              0.9383   YZ=              1.2450

 Normal termination of Gaussian 16 at Thu May  6 04:44:44 2021.
