 Gaussian 16, Revision A.03,
 Gaussian 16:  EM64L-G16RevA.03 25-Dec-2016

 -------------
 #p 6-31g* mp2
 -------------

 ------------------------------------------------------
 Input file generated by CHIRIPA (05-May-2021 14:55:20)
 ------------------------------------------------------
 Symbolic Z-matrix:
 Charge =  0 Multiplicity = 1

                         Standard orientation:
 ---------------------------------------------------------------------
 Center     Atomic      Atomic             Coordinates (Angstroms)
 Number     Number       Type             X           Y           Z
 ---------------------------------------------------------------------
      1          6           0       -4.417901   -1.684727   -0.098050
      2          6           0       -3.385372   -1.682488    0.845559
      3          6           0       -2.551812   -0.568595    0.983288
      4          6           0       -2.780198    0.530901    0.157311
      5          6           0       -3.800505    0.559016   -0.792148
      6          6           0       -4.621813   -0.565941   -0.912456
      7          1           0       -5.060671   -2.554323   -0.198275
      8          1           0       -3.224678   -2.549948    1.479385
      9          1           0       -1.745026   -0.540085    1.705578
     10          1           0       -3.936110    1.438536   -1.409783
     11          1           0       -5.422909   -0.564873   -1.646138
     12          7           0       -1.904231    1.715985    0.293897
     13          8           0       -2.126193    2.672154   -0.445773
     14          8           0       -1.012272    1.666247    1.138038
     15          6           0        4.299025    0.091876   -0.226230
     16          6           0        5.682476   -0.458026    0.122556
     17          6           0        6.783453    0.597003    0.010494
     18          1           0        4.318931    0.496063   -1.247593
     19          1           0        4.068941    0.935394    0.439302
     20          1           0        5.909299   -1.301138   -0.542522
     21          1           0        5.659222   -0.861124    1.143137
     22          1           0        6.584166    1.435039    0.686202
     23          1           0        6.835664    0.992524   -1.009035
     24          1           0        7.764081    0.182434    0.264191
     25          6           0        3.187869   -0.950972   -0.118857
     26          6           0        1.804416   -0.401070   -0.467644
     27          6           0        0.703440   -1.456100   -0.355581
     28          1           0        3.417952   -1.794491   -0.784390
     29          1           0        3.167961   -1.355159    0.902505
     30          1           0        1.827670    0.002028   -1.488225
     31          1           0        1.577594    0.442043    0.197434
     32          1           0        0.651230   -1.851620    0.663947
     33          1           0        0.902727   -2.294134   -1.031290
     34          1           0       -0.277186   -1.041530   -0.609279
 ---------------------------------------------------------------------

 SCF Done:  E(RHF) =  -669.534930934     A.U. after   15 cycles
 E2 =    -0.2093251167D+01 EUMP2 =    -0.67162818210135D+03

 The electronic state is 1-A.
 Alpha  occ. eigenvalues --  -20.60901 -20.60887 -15.85920 -11.31209 -11.27814
 Alpha  occ. eigenvalues --  -11.27778 -11.27545 -11.26789 -11.26770 -11.21204
 Alpha  occ. eigenvalues --  -11.20939 -11.20891 -11.20845 -11.20790 -11.20695
 Alpha  occ. eigenvalues --   -1.59951  -1.39508  -1.19414  -1.08812  -1.07944
 Alpha  occ. eigenvalues --   -1.04805  -1.03089  -0.95693  -0.95555  -0.86640
 Alpha  occ. eigenvalues --   -0.86180  -0.82487  -0.79143  -0.77740  -0.77540
 Alpha  occ. eigenvalues --   -0.72147  -0.71280  -0.70520  -0.65062  -0.64806
 Alpha  occ. eigenvalues --   -0.64562  -0.62160  -0.60474  -0.58982  -0.57207
 Alpha  occ. eigenvalues --   -0.55318  -0.54886  -0.53342  -0.52887  -0.52115
 Alpha  occ. eigenvalues --   -0.51983  -0.49528  -0.48909  -0.48898  -0.47467
 Alpha  occ. eigenvalues --   -0.46165  -0.45325  -0.45261  -0.44764  -0.43362
 Alpha  occ. eigenvalues --   -0.37363  -0.36335
 Alpha virt. eigenvalues --    0.04949   0.11239   0.16410   0.21152   0.23309
 Alpha virt. eigenvalues --    0.24481   0.26672   0.27376   0.27941   0.28063
 Alpha virt. eigenvalues --    0.28773   0.30979   0.31510   0.31834   0.32367

 Mulliken charges:
               1
     1  C   -0.170307
     2  C   -0.217448
     3  C   -0.169638
     4  C    0.157080
     5  C   -0.171279
     6  C   -0.218954
     7  H    0.225933
     8  H    0.223924
     9  H    0.277304
    10  H    0.275733
    11  H    0.223526
    12  N    0.489732
    13  O   -0.459305
    14  O   -0.460517
    15  C   -0.298711
    16  C   -0.299240
    17  C   -0.475556
    18  H    0.149602
    19  H    0.153952
    20  H    0.150048
    21  H    0.150846
    22  H    0.156345
    23  H    0.155002
    24  H    0.158556
    25  C   -0.297979
    26  C   -0.307040
    27  C   -0.477226
    28  H    0.145786
    29  H    0.147263
    30  H    0.150902
    31  H    0.173361
    32  H    0.146254
    33  H    0.151742
    34  H    0.160309
 Sum of Mulliken charges =  -0.00000

 Dipole moment (field-independent basis, Debye):
    X=             -3.2130    Y=             -4.0249    Z=             -0.4338  Tot=              5.1683
 Quadrupole moment (field-independent basis, Debye-Ang):
   XX=            -77.9088   YY=            -99.2217   ZZ=            -91.7635
   XY=              8.6145   XZ=              3.0144   YZ=             -2.6410

 Normal termination of Gaussian 16 at Thu May  6 06:08:23 2021.
