 Gaussian 16, Revision A.03,
 Gaussian 16:  EM64L-G16RevA.03 25-Dec-2016

 -------------
 #p 6-31g* mp2
 -------------

 ------------------------------------------------------
 Input file generated by CHIRIPA (05-May-2021 14:55:24)
 ------------------------------------------------------
 Symbolic Z-matrix:
 Charge =  0 Multiplicity = 1

                         Standard orientation:
 ---------------------------------------------------------------------
 Center     Atomic      Atomic             Coordinates (Angstroms)
 Number     Number       Type             X           Y           Z
 ---------------------------------------------------------------------
      1          6           0        2.483251    2.159852    0.828185
      2          6           0        1.413372    1.391750    1.299247
      3          6           0        1.279683    0.052662    0.920410
      4          6           0        2.238414   -0.488623    0.065345
      5          6           0        3.315538    0.250779   -0.420843
      6          6           0        3.429252    1.587923   -0.028845
      7          1           0        2.579346    3.199333    1.127587
      8          1           0        0.677197    1.833278    1.964938
      9          1           0        0.461280   -0.564810    1.270215
     10          1           0        4.033599   -0.217174   -1.083283
     11          1           0        4.261168    2.182048   -0.396237
     12          7           0        2.107456   -1.905226   -0.342679
     13          8           0        2.965435   -2.358615   -1.096965
     14          8           0        1.149313   -2.535349    0.099524
     15          6           0       -2.724268   -0.416106   -0.111145
     16          6           0       -3.914090   -1.275979    0.316554
     17          6           0       -3.561193   -2.759403    0.429313
     18          1           0       -2.346080   -0.778927   -1.076692
     19          1           0       -1.908002   -0.545764    0.612937
     20          1           0       -4.728368   -1.143672   -0.407368
     21          1           0       -4.289609   -0.910950    1.281102
     22          1           0       -2.765694   -2.911228    1.166016
     23          1           0       -3.206946   -3.145274   -0.532047
     24          1           0       -4.426152   -3.355635    0.736256
     25          6           0       -3.061326    1.069288   -0.228292
     26          6           0       -1.871503    1.929162   -0.655991
     27          6           0       -2.224400    3.412584   -0.768750
     28          1           0       -3.877590    1.198945   -0.952373
     29          1           0       -3.439513    1.432109    0.737255
     30          1           0       -1.495984    1.564131   -1.620540
     31          1           0       -1.057226    1.796854    0.067931
     32          1           0       -2.578646    3.798455    0.192611
     33          1           0       -3.019898    3.564411   -1.505453
     34          1           0       -1.359441    4.008816   -1.075693
 ---------------------------------------------------------------------

 SCF Done:  E(RHF) =  -669.534069395     A.U. after   15 cycles
 E2 =    -0.2094029769D+01 EUMP2 =    -0.67162809916448D+03

 The electronic state is 1-A.
 Alpha  occ. eigenvalues --  -20.60787 -20.60780 -15.85838 -11.31215 -11.27786
 Alpha  occ. eigenvalues --  -11.27781 -11.27534 -11.26809 -11.26799 -11.21787
 Alpha  occ. eigenvalues --  -11.21553 -11.21495 -11.21432 -11.21418 -11.20665
 Alpha  occ. eigenvalues --   -1.59859  -1.39412  -1.19401  -1.08791  -1.08529
 Alpha  occ. eigenvalues --   -1.04820  -1.03568  -0.96017  -0.95620  -0.87028
 Alpha  occ. eigenvalues --   -0.86206  -0.82468  -0.79649  -0.78362  -0.77471
 Alpha  occ. eigenvalues --   -0.72057  -0.71181  -0.70509  -0.65233  -0.65031
 Alpha  occ. eigenvalues --   -0.64837  -0.62157  -0.60984  -0.59418  -0.57616
 Alpha  occ. eigenvalues --   -0.55354  -0.55268  -0.53195  -0.52939  -0.52682
 Alpha  occ. eigenvalues --   -0.52385  -0.49947  -0.48819  -0.48811  -0.47935
 Alpha  occ. eigenvalues --   -0.46701  -0.45860  -0.45786  -0.44800  -0.43841
 Alpha  occ. eigenvalues --   -0.37370  -0.36293
 Alpha virt. eigenvalues --    0.05009   0.11146   0.16392   0.20157   0.23155
 Alpha virt. eigenvalues --    0.23851   0.25334   0.27026   0.27793   0.27997
 Alpha virt. eigenvalues --    0.29762   0.30480   0.31527   0.31704   0.32140

 Mulliken charges:
               1
     1  C   -0.171580
     2  C   -0.220242
     3  C   -0.169177
     4  C    0.157769
     5  C   -0.170663
     6  C   -0.218650
     7  H    0.225989
     8  H    0.223693
     9  H    0.280911
    10  H    0.275712
    11  H    0.223619
    12  N    0.487653
    13  O   -0.460455
    14  O   -0.460287
    15  C   -0.298684
    16  C   -0.300289
    17  C   -0.475441
    18  H    0.156359
    19  H    0.142707
    20  H    0.151938
    21  H    0.148850
    22  H    0.159144
    23  H    0.160854
    24  H    0.158442
    25  C   -0.298452
    26  C   -0.304700
    27  C   -0.475612
    28  H    0.151255
    29  H    0.146048
    30  H    0.154896
    31  H    0.151019
    32  H    0.151950
    33  H    0.157773
    34  H    0.157652
 Sum of Mulliken charges =  -0.00000

 Dipole moment (field-independent basis, Debye):
    X=              0.5115    Y=              4.8581    Z=              1.3522  Tot=              5.0687
 Quadrupole moment (field-independent basis, Debye-Ang):
   XX=            -89.4972   YY=           -101.4788   ZZ=            -92.6650
   XY=             12.0043   XZ=              1.1276   YZ=             -0.2943

 Normal termination of Gaussian 16 at Wed May  5 23:58:28 2021.
