 Gaussian 16, Revision A.03,
 Gaussian 16:  EM64L-G16RevA.03 25-Dec-2016

 -------------
 #p 6-31g* mp2
 -------------

 ------------------------------------------------------
 Input file generated by CHIRIPA (05-May-2021 14:51:09)
 ------------------------------------------------------
 Symbolic Z-matrix:
 Charge =  0 Multiplicity = 1

                         Standard orientation:
 ---------------------------------------------------------------------
 Center     Atomic      Atomic             Coordinates (Angstroms)
 Number     Number       Type             X           Y           Z
 ---------------------------------------------------------------------
      1          6           0        2.917551    0.402014   -0.720369
      2          6           0        3.746938   -0.821760   -0.329883
      3          6           0        4.365954   -1.526189   -1.537522
      4          1           0        2.123056    0.092697   -1.413222
      5          1           0        3.554952    1.107833   -1.270764
      6          1           0        3.108511   -1.524440    0.220815
      7          1           0        4.539433   -0.509526    0.362271
      8          1           0        5.025245   -0.844728   -2.084829
      9          1           0        3.586192   -1.865408   -2.227089
     10          1           0        4.954526   -2.398107   -1.235523
     11          6           0        2.292209    1.116917    0.476121
     12          6           0        1.462823    2.340691    0.085635
     13          6           0        0.843807    3.045120    1.293274
     14          1           0        1.654809    0.411098    1.026517
     15          1           0        3.086705    1.426234    1.168974
     16          1           0        0.670327    2.028457   -0.606519
     17          1           0        2.101250    3.043371   -0.465063
     18          1           0        1.623569    3.384339    1.982842
     19          1           0        0.184516    2.363659    1.840582
     20          1           0        0.255235    3.917038    0.991275
     21          6           0       -1.996916   -0.800432    0.582704
     22          6           0       -1.465079   -2.223033    0.759744
     23          6           0       -0.248742   -2.288685    1.683870
     24          1           0       -1.196050   -0.163498    0.182863
     25          1           0       -2.260677   -0.389878    1.567219
     26          1           0       -1.203697   -2.631282   -0.224954
     27          1           0       -2.267360   -2.856697    1.159030
     28          1           0       -0.499683   -1.906620    2.678683
     29          1           0        0.570023   -1.679925    1.286838
     30          1           0        0.115069   -3.314769    1.796355
     31          6           0       -3.212844   -0.718499   -0.338456
     32          6           0       -3.744681    0.704102   -0.515496
     33          6           0       -4.961018    0.769755   -1.439622
     34          1           0       -2.949084   -1.129053   -1.322971
     35          1           0       -4.013711   -1.355433    0.061385
     36          1           0       -2.942400    1.337766   -0.914782
     37          1           0       -4.006063    1.112350    0.469201
     38          1           0       -5.779784    0.160994   -1.042590
     39          1           0       -4.710077    0.387689   -2.434436
     40          1           0       -5.324830    1.795838   -1.552107
 ---------------------------------------------------------------------

 SCF Done:  E(RHF) =  -470.733202088     A.U. after   11 cycles
 E2 =    -0.1584070440D+01 EUMP2 =    -0.47231727252779D+03

 The electronic state is 1-A.
 Alpha  occ. eigenvalues --  -11.21678 -11.21640 -11.21614 -11.21611 -11.21478
 Alpha  occ. eigenvalues --  -11.21417 -11.21413 -11.21346 -11.21139 -11.21099
 Alpha  occ. eigenvalues --  -11.21081 -11.21043  -1.08508  -1.08435  -1.03590
 Alpha  occ. eigenvalues --   -1.03533  -0.96049  -0.95974  -0.87060  -0.86996
 Alpha  occ. eigenvalues --   -0.79659  -0.79597  -0.78343  -0.78228  -0.65321
 Alpha  occ. eigenvalues --   -0.64917  -0.60982  -0.60938  -0.59412  -0.59342
 Alpha  occ. eigenvalues --   -0.57693  -0.57559  -0.55418  -0.55192  -0.52730
 Alpha  occ. eigenvalues --   -0.52678  -0.52500  -0.52369  -0.50009  -0.49927
 Alpha  occ. eigenvalues --   -0.48023  -0.47905  -0.46774  -0.46637  -0.46045
 Alpha  occ. eigenvalues --   -0.45805  -0.45718  -0.45352  -0.43845  -0.43789
 Alpha virt. eigenvalues --    0.19252   0.22611   0.23688   0.24462   0.25591
 Alpha virt. eigenvalues --    0.26214   0.26755   0.27998   0.28734   0.29552
 Alpha virt. eigenvalues --    0.30694   0.31634   0.31663   0.31801   0.32106

 Mulliken charges:
               1
     1  C   -0.297889
     2  C   -0.303420
     3  C   -0.475510
     4  H    0.148518
     5  H    0.149888
     6  H    0.155101
     7  H    0.152293
     8  H    0.155228
     9  H    0.154957
    10  H    0.160444
    11  C   -0.307008
    12  C   -0.300052
    13  C   -0.476584
    14  H    0.157273
    15  H    0.150137
    16  H    0.151630
    17  H    0.152053
    18  H    0.155035
    19  H    0.156935
    20  H    0.160144
    21  C   -0.302647
    22  C   -0.299306
    23  C   -0.485264
    24  H    0.152955
    25  H    0.149766
    26  H    0.151813
    27  H    0.152522
    28  H    0.155545
    29  H    0.163628
    30  H    0.160915
    31  C   -0.298299
    32  C   -0.299877
    33  C   -0.475763
    34  H    0.149524
    35  H    0.150078
    36  H    0.151997
    37  H    0.152257
    38  H    0.155277
    39  H    0.155206
    40  H    0.160501
 Sum of Mulliken charges =  -0.00000

 Dipole moment (field-independent basis, Debye):
    X=             -0.0158    Y=             -0.0103    Z=              0.0203  Tot=              0.0277
 Quadrupole moment (field-independent basis, Debye-Ang):
   XX=            -84.6464   YY=            -84.8489   ZZ=            -85.1271
   XY=              1.0732   XZ=             -0.5861   YZ=             -0.3965

 Normal termination of Gaussian 16 at Wed May  5 19:45:22 2021.
