 Gaussian 16, Revision A.03,
 Gaussian 16:  EM64L-G16RevA.03 25-Dec-2016

 -------------
 #p 6-31g* mp2
 -------------

 ------------------------------------------------------
 Input file generated by CHIRIPA (05-May-2021 14:57:22)
 ------------------------------------------------------
 Symbolic Z-matrix:
 Charge =  0 Multiplicity = 1

                         Standard orientation:
 ---------------------------------------------------------------------
 Center     Atomic      Atomic             Coordinates (Angstroms)
 Number     Number       Type             X           Y           Z
 ---------------------------------------------------------------------
      1          6           0       -3.073028    2.423377    0.237506
      2          6           0       -2.522551    1.544079   -0.700755
      3          6           0       -3.000440    0.235030   -0.812828
      4          6           0       -4.034458   -0.163155    0.033071
      5          6           0       -4.603570    0.689393    0.977825
      6          6           0       -4.109952    1.993985    1.072329
      7          1           0       -2.695683    3.438546    0.317743
      8          1           0       -1.717178    1.874811   -1.350398
      9          1           0       -2.592508   -0.466444   -1.530425
     10          1           0       -5.405525    0.330828    1.611638
     11          1           0       -4.539370    2.674683    1.801914
     12          7           0       -4.548703   -1.546627   -0.076277
     13          8           0       -5.460418   -1.873050    0.680598
     14          8           0       -4.030316   -2.278374   -0.916788
     15          6           0        1.623227    0.543947   -0.814496
     16          6           0        1.914041   -0.770760   -0.435690
     17          6           0        3.199593   -1.119444   -0.011044
     18          6           0        4.174619   -0.123715    0.022711
     19          6           0        3.915903    1.194866   -0.348371
     20          6           0        2.623323    1.520842   -0.769706
     21          1           0        0.621849    0.805993   -1.143085
     22          1           0        1.139332   -1.531503   -0.469469
     23          1           0        3.452112   -2.129564    0.287802
     24          1           0        4.709022    1.931358   -0.304104
     25          1           0        2.400342    2.542666   -1.063306
     26          7           0        5.539296   -0.480830    0.470512
     27          8           0        6.380692    0.414858    0.491307
     28          8           0        5.741693   -1.649664    0.792224
 ---------------------------------------------------------------------

 SCF Done:  E(RHF) =  -868.336711815     A.U. after   16 cycles
 E2 =    -0.2599846958D+01 EUMP2 =    -0.87093655877308D+03

 The electronic state is 1-A.
 Alpha  occ. eigenvalues --  -20.61517 -20.61498 -20.61010 -20.61001 -15.86572
 Alpha  occ. eigenvalues --  -15.86064 -11.32067 -11.31521 -11.28751 -11.28614
 Alpha  occ. eigenvalues --  -11.28428 -11.28115 -11.28061 -11.27958 -11.27827
 Alpha  occ. eigenvalues --  -11.27620 -11.27211 -11.27115  -1.60584  -1.60081
 Alpha  occ. eigenvalues --   -1.40135  -1.39632  -1.20265  -1.19711  -1.09627
 Alpha  occ. eigenvalues --   -1.09112  -1.05708  -1.05120  -0.96438  -0.95929
 Alpha  occ. eigenvalues --   -0.87093  -0.86527  -0.83289  -0.82747  -0.78315
 Alpha  occ. eigenvalues --   -0.77759  -0.72785  -0.72282  -0.71911  -0.71405
 Alpha  occ. eigenvalues --   -0.71359  -0.70902  -0.65922  -0.65731  -0.65373
 Alpha  occ. eigenvalues --   -0.65132  -0.63061  -0.62458  -0.56192  -0.55722
 Alpha  occ. eigenvalues --   -0.53989  -0.53782  -0.53450  -0.53219  -0.49555
 Alpha  occ. eigenvalues --   -0.49533  -0.49049  -0.49030  -0.45512  -0.45016
 Alpha  occ. eigenvalues --   -0.38229  -0.37736  -0.37298  -0.36712
 Alpha virt. eigenvalues --    0.04231   0.04767   0.10300   0.10932   0.15530
 Alpha virt. eigenvalues --    0.16238   0.18368   0.21965   0.24884   0.26447
 Alpha virt. eigenvalues --    0.27643   0.29017   0.29824   0.31390   0.32344

 Mulliken charges:
               1
     1  C   -0.169403
     2  C   -0.221135
     3  C   -0.172752
     4  C    0.159359
     5  C   -0.168860
     6  C   -0.218070
     7  H    0.227553
     8  H    0.216211
     9  H    0.273174
    10  H    0.278874
    11  H    0.227163
    12  N    0.488083
    13  O   -0.456940
    14  O   -0.460892
    15  C   -0.170981
    16  C   -0.219800
    17  C   -0.170128
    18  C    0.158956
    19  C   -0.170476
    20  C   -0.219583
    21  H    0.217995
    22  H    0.227983
    23  H    0.278226
    24  H    0.276184
    25  H    0.219984
    26  N    0.487906
    27  O   -0.460097
    28  O   -0.458536
 Sum of Mulliken charges =  -0.00000

 Dipole moment (field-independent basis, Debye):
    X=             -3.1548    Y=              6.0588    Z=             -1.0040  Tot=              6.9043
 Quadrupole moment (field-independent basis, Debye-Ang):
   XX=           -156.4374   YY=           -102.5041   ZZ=           -103.3775
   XY=            -13.6832   XZ=            -11.6171   YZ=              0.5650

 Normal termination of Gaussian 16 at Wed May  5 17:46:30 2021.
