 Gaussian 16, Revision A.03,
 Gaussian 16:  EM64L-G16RevA.03 25-Dec-2016

 -------------
 #p 6-31g* mp2
 -------------

 ------------------------------------------------------
 Input file generated by CHIRIPA (05-May-2021 14:57:23)
 ------------------------------------------------------
 Symbolic Z-matrix:
 Charge =  0 Multiplicity = 1

                         Standard orientation:
 ---------------------------------------------------------------------
 Center     Atomic      Atomic             Coordinates (Angstroms)
 Number     Number       Type             X           Y           Z
 ---------------------------------------------------------------------
      1          6           0       -1.068519    0.815995    1.690616
      2          6           0       -1.367332   -0.549559    1.640679
      3          6           0       -2.399831   -1.021052    0.824476
      4          6           0       -3.116400   -0.094947    0.068070
      5          6           0       -2.842704    1.271649    0.096257
      6          6           0       -1.805859    1.720646    0.919605
      7          1           0       -0.264761    1.173524    2.327437
      8          1           0       -0.796375   -1.254415    2.238367
      9          1           0       -2.652355   -2.072870    0.766785
     10          1           0       -3.429464    1.950136   -0.511021
     11          1           0       -1.576018    2.781714    0.956392
     12          7           0       -4.211762   -0.582188   -0.799790
     13          8           0       -4.828200    0.254099   -1.456498
     14          8           0       -4.433127   -1.791148   -0.806877
     15          6           0        3.471267   -2.434574    0.072810
     16          6           0        2.965823   -1.699097    1.149899
     17          6           0        2.665632   -0.341467    1.004040
     18          6           0        2.884112    0.251425   -0.238551
     19          6           0        3.386515   -0.454514   -1.330583
     20          6           0        3.679632   -1.811034   -1.161816
     21          1           0        3.701715   -3.488783    0.195014
     22          1           0        2.802997   -2.180723    2.109883
     23          1           0        2.273289    0.251593    1.821209
     24          1           0        3.538223    0.053230   -2.275358
     25          1           0        4.072057   -2.379733   -2.000047
     26          7           0        2.570057    1.688100   -0.405091
     27          8           0        2.771490    2.187109   -1.510104
     28          8           0        2.128414    2.287954    0.572541
 ---------------------------------------------------------------------

 SCF Done:  E(RHF) =  -868.338610230     A.U. after   16 cycles
 E2 =    -0.2600694223D+01 EUMP2 =    -0.87093930445302D+03

 The electronic state is 1-A.
 Alpha  occ. eigenvalues --  -20.61622 -20.61570 -20.60563 -20.60547 -15.86635
 Alpha  occ. eigenvalues --  -15.85609 -11.31897 -11.30900 -11.28565 -11.28400
 Alpha  occ. eigenvalues --  -11.28153 -11.27524 -11.27503 -11.27390 -11.27380
 Alpha  occ. eigenvalues --  -11.27135 -11.26562 -11.26305  -1.60652  -1.59635
 Alpha  occ. eigenvalues --   -1.40218  -1.39191  -1.20057  -1.19061  -1.09460
 Alpha  occ. eigenvalues --   -1.08459  -1.05463  -1.04450  -0.96325  -0.95307
 Alpha  occ. eigenvalues --   -0.86862  -0.85845  -0.83174  -0.82144  -0.78247
 Alpha  occ. eigenvalues --   -0.77210  -0.72877  -0.71960  -0.71828  -0.71183
 Alpha  occ. eigenvalues --   -0.70958  -0.70130  -0.65722  -0.65470  -0.64707
 Alpha  occ. eigenvalues --   -0.64448  -0.62829  -0.61797  -0.55947  -0.54927
 Alpha  occ. eigenvalues --   -0.53780  -0.53551  -0.52772  -0.52532  -0.49635
 Alpha  occ. eigenvalues --   -0.49595  -0.48588  -0.48578  -0.45646  -0.44613
 Alpha  occ. eigenvalues --   -0.38013  -0.37267  -0.36797  -0.36027
 Alpha virt. eigenvalues --    0.04272   0.05328   0.10543   0.11628   0.15782
 Alpha virt. eigenvalues --    0.16836   0.19525   0.22132   0.25717   0.26619
 Alpha virt. eigenvalues --    0.27788   0.29201   0.30262   0.31226   0.32806

 Mulliken charges:
               1
     1  C   -0.171201
     2  C   -0.218588
     3  C   -0.171868
     4  C    0.157860
     5  C   -0.171763
     6  C   -0.217013
     7  H    0.230014
     8  H    0.213856
     9  H    0.272472
    10  H    0.276286
    11  H    0.233209
    12  N    0.488152
    13  O   -0.459822
    14  O   -0.463005
    15  C   -0.169501
    16  C   -0.220521
    17  C   -0.168885
    18  C    0.160571
    19  C   -0.169122
    20  C   -0.217781
    21  H    0.228260
    22  H    0.221522
    23  H    0.266881
    24  H    0.278174
    25  H    0.226933
    26  N    0.490108
    27  O   -0.454872
    28  O   -0.470355
 Sum of Mulliken charges =  -0.00000

 Dipole moment (field-independent basis, Debye):
    X=              5.1767    Y=             -3.2089    Z=              3.4110  Tot=              6.9807
 Quadrupole moment (field-independent basis, Debye-Ang):
   XX=           -123.1602   YY=           -103.5704   ZZ=           -100.5197
   XY=            -22.0075   XZ=             -9.7154   YZ=              0.0100

 Normal termination of Gaussian 16 at Fri May  7 01:48:32 2021.
