 Gaussian 16, Revision A.03,
 Gaussian 16:  EM64L-G16RevA.03 25-Dec-2016

 -------------
 #p 6-31g* mp2
 -------------

 ------------------------------------------------------
 Input file generated by CHIRIPA (05-May-2021 14:51:08)
 ------------------------------------------------------
 Symbolic Z-matrix:
 Charge =  0 Multiplicity = 1

                         Standard orientation:
 ---------------------------------------------------------------------
 Center     Atomic      Atomic             Coordinates (Angstroms)
 Number     Number       Type             X           Y           Z
 ---------------------------------------------------------------------
      1          6           0       -5.289155   -0.094431    0.104810
      2          6           0       -5.701773   -1.534715   -0.200663
      3          6           0       -7.171890   -1.808700    0.117900
      4          1           0       -5.481863    0.118403    1.165240
      5          1           0       -5.924393    0.591823   -0.472186
      6          1           0       -5.065028   -2.218086    0.375684
      7          1           0       -5.507882   -1.744205   -1.260445
      8          1           0       -7.822065   -1.150525   -0.467489
      9          1           0       -7.376694   -1.627099    1.177936
     10          1           0       -7.445406   -2.844093   -0.107954
     11          6           0       -3.822225    0.194905   -0.208444
     12          6           0       -3.409608    1.635189    0.097029
     13          6           0       -1.939491    1.909174   -0.221534
     14          1           0       -3.186988   -0.491348    0.368552
     15          1           0       -3.629518   -0.017928   -1.268874
     16          1           0       -3.603498    1.844679    1.156811
     17          1           0       -4.046352    2.318561   -0.479318
     18          1           0       -1.734686    1.727573   -1.281570
     19          1           0       -1.289316    1.251000    0.363855
     20          1           0       -1.665975    2.944567    0.004320
     21          6           0        5.264988   -0.075586   -0.230472
     22          6           0        6.084641   -1.254929    0.294221
     23          6           0        7.501370   -1.292036   -0.279620
     24          1           0        5.216807   -0.129609   -1.326695
     25          1           0        5.785160    0.860986    0.013760
     26          1           0        5.562390   -2.188934    0.050287
     27          1           0        6.130715   -1.198199    1.389334
     28          1           0        8.044481   -0.376336   -0.024425
     29          1           0        7.472926   -1.372701   -1.371081
     30          1           0        8.069670   -2.142954    0.108757
     31          6           0        3.846393   -0.024889    0.334106
     32          6           0        3.026740    1.154454   -0.190587
     33          6           0        1.610010    1.191561    0.383254
     34          1           0        3.326221   -0.961460    0.089875
     35          1           0        3.894575    0.029134    1.430329
     36          1           0        2.980665    1.097724   -1.285701
     37          1           0        3.548991    2.088460    0.053346
     38          1           0        1.638455    1.272226    1.474715
     39          1           0        1.066900    0.275862    0.128059
     40          1           0        1.041711    2.042479   -0.005123
 ---------------------------------------------------------------------

 SCF Done:  E(RHF) =  -470.732361577     A.U. after   11 cycles
 E2 =    -0.1582682831D+01 EUMP2 =    -0.47231504440824D+03

 The electronic state is 1-A.
 Alpha  occ. eigenvalues --  -11.21581 -11.21580 -11.21532 -11.21516 -11.21371
 Alpha  occ. eigenvalues --  -11.21368 -11.21310 -11.21308 -11.21056 -11.21055
 Alpha  occ. eigenvalues --  -11.20951 -11.20918  -1.08399  -1.08379  -1.03524
 Alpha  occ. eigenvalues --   -1.03443  -0.96036  -0.95840  -0.87128  -0.86792
 Alpha  occ. eigenvalues --   -0.79699  -0.79411  -0.78229  -0.78177  -0.65033
 Alpha  occ. eigenvalues --   -0.65010  -0.60929  -0.60846  -0.59402  -0.59226
 Alpha  occ. eigenvalues --   -0.57552  -0.57540  -0.55313  -0.55157  -0.52979
 Alpha  occ. eigenvalues --   -0.52563  -0.52321  -0.52119  -0.49957  -0.49769
 Alpha  occ. eigenvalues --   -0.47904  -0.47813  -0.46636  -0.46517  -0.45785
 Alpha  occ. eigenvalues --   -0.45724  -0.45681  -0.45623  -0.43854  -0.43560
 Alpha virt. eigenvalues --    0.22701   0.22946   0.23758   0.24654   0.26366
 Alpha virt. eigenvalues --    0.26728   0.26900   0.27402   0.27661   0.29168
 Alpha virt. eigenvalues --    0.29807   0.31015   0.31531   0.31763   0.32309

 Mulliken charges:
               1
     1  C   -0.298186
     2  C   -0.299595
     3  C   -0.475674
     4  H    0.149604
     5  H    0.149481
     6  H    0.151832
     7  H    0.151813
     8  H    0.155151
     9  H    0.155162
    10  H    0.160145
    11  C   -0.298275
    12  C   -0.300484
    13  C   -0.479746
    14  H    0.149267
    15  H    0.149323
    16  H    0.151579
    17  H    0.151108
    18  H    0.154022
    19  H    0.164980
    20  H    0.158349
    21  C   -0.298193
    22  C   -0.299572
    23  C   -0.475673
    24  H    0.149573
    25  H    0.149446
    26  H    0.151842
    27  H    0.151841
    28  H    0.155147
    29  H    0.155147
    30  H    0.160160
    31  C   -0.298495
    32  C   -0.300284
    33  C   -0.479178
    34  H    0.149322
    35  H    0.149351
    36  H    0.151792
    37  H    0.151471
    38  H    0.153893
    39  H    0.154292
    40  H    0.168260
 Sum of Mulliken charges =  -0.00000

 Dipole moment (field-independent basis, Debye):
    X=              0.0099    Y=              0.0103    Z=              0.0052  Tot=              0.0152
 Quadrupole moment (field-independent basis, Debye-Ang):
   XX=            -87.1643   YY=            -84.5715   ZZ=            -83.4090
   XY=             -0.0065   XZ=              1.0046   YZ=              0.2157

 Normal termination of Gaussian 16 at Wed May  5 15:05:33 2021.
