 Gaussian 16, Revision A.03,
 Gaussian 16:  EM64L-G16RevA.03 25-Dec-2016

 -------------
 #p 6-31g* mp2
 -------------

 ------------------------------------------------------
 Input file generated by CHIRIPA (05-May-2021 14:53:15)
 ------------------------------------------------------
 Symbolic Z-matrix:
 Charge =  0 Multiplicity = 1

                         Standard orientation:
 ---------------------------------------------------------------------
 Center     Atomic      Atomic             Coordinates (Angstroms)
 Number     Number       Type             X           Y           Z
 ---------------------------------------------------------------------
      1          6           0        2.826820   -0.233882    0.559339
      2          6           0        2.343305   -1.337117    1.501184
      3          6           0        0.887644   -1.151772    1.930708
      4          1           0        2.710384    0.739652    1.054939
      5          1           0        2.181295   -0.211288   -0.329583
      6          1           0        2.990397   -1.358537    2.387429
      7          1           0        2.461084   -2.308154    1.003356
      8          1           0        0.225662   -1.152085    1.058710
      9          1           0        0.757981   -0.197072    2.450646
     10          1           0        0.562697   -1.951429    2.603625
     11          6           0        4.280202   -0.405314    0.121140
     12          6           0        4.763717    0.697921   -0.820704
     13          6           0        6.219378    0.512576   -1.250228
     14          1           0        4.925727   -0.427909    1.010062
     15          1           0        4.396638   -1.378848   -0.374460
     16          1           0        4.645938    1.668957   -0.322877
     17          1           0        4.116625    0.719340   -1.706949
     18          1           0        6.349041   -0.442125   -1.770167
     19          1           0        6.881360    0.512888   -0.378230
     20          1           0        6.544325    1.312233   -1.923146
     21          6           0       -2.029119    2.575382    0.365822
     22          6           0       -3.361538    2.193121    0.553063
     23          6           0       -3.786623    0.907093    0.206676
     24          6           0       -2.848403    0.024846   -0.326876
     25          6           0       -1.514015    0.375927   -0.525470
     26          6           0       -1.111229    1.667167   -0.171899
     27          1           0       -1.707564    3.576424    0.637694
     28          1           0       -4.076575    2.896359    0.970460
     29          1           0       -4.812076    0.584885    0.341007
     30          1           0       -0.824328   -0.347152   -0.943690
     31          1           0       -0.075820    1.961282   -0.318426
     32          7           0       -3.286619   -1.339372   -0.697383
     33          8           0       -2.440545   -2.098011   -1.165640
     34          8           0       -4.467867   -1.624176   -0.512516
 ---------------------------------------------------------------------

 SCF Done:  E(RHF) =  -669.534664545     A.U. after   15 cycles
 E2 =    -0.2092837782D+01 EUMP2 =    -0.67162750232682D+03

 The electronic state is 1-A.
 Alpha  occ. eigenvalues --  -20.60763 -20.60758 -15.85812 -11.31157 -11.27725
 Alpha  occ. eigenvalues --  -11.27721 -11.27462 -11.26736 -11.26706 -11.22051
 Alpha  occ. eigenvalues --  -11.22009 -11.21880 -11.21798 -11.21406 -11.21223
 Alpha  occ. eigenvalues --   -1.59835  -1.39390  -1.19334  -1.08873  -1.08727
 Alpha  occ. eigenvalues --   -1.04743  -1.03879  -0.96336  -0.95569  -0.87352
 Alpha  occ. eigenvalues --   -0.86134  -0.82404  -0.79956  -0.78733  -0.77442
 Alpha  occ. eigenvalues --   -0.72033  -0.71156  -0.70466  -0.65512  -0.64984
 Alpha  occ. eigenvalues --   -0.64739  -0.62144  -0.61235  -0.59698  -0.57964
 Alpha  occ. eigenvalues --   -0.55652  -0.55227  -0.53241  -0.52981  -0.52868
 Alpha  occ. eigenvalues --   -0.52556  -0.50264  -0.48791  -0.48788  -0.48253
 Alpha  occ. eigenvalues --   -0.46978  -0.46243  -0.46178  -0.44792  -0.44165
 Alpha  occ. eigenvalues --   -0.37308  -0.36263
 Alpha virt. eigenvalues --    0.05062   0.11224   0.16545   0.19794   0.22782
 Alpha virt. eigenvalues --    0.23865   0.25363   0.26030   0.27549   0.28256
 Alpha virt. eigenvalues --    0.29351   0.30056   0.31314   0.31642   0.31751

 Mulliken charges:
               1
     1  C   -0.299197
     2  C   -0.300456
     3  C   -0.478518
     4  H    0.145883
     5  H    0.141674
     6  H    0.153057
     7  H    0.156886
     8  H    0.157212
     9  H    0.151990
    10  H    0.165066
    11  C   -0.298302
    12  C   -0.300033
    13  C   -0.475936
    14  H    0.151628
    15  H    0.153282
    16  H    0.149621
    17  H    0.150604
    18  H    0.157209
    19  H    0.156112
    20  H    0.160744
    21  C   -0.171397
    22  C   -0.218277
    23  C   -0.171134
    24  C    0.159300
    25  C   -0.171821
    26  C   -0.217693
    27  H    0.225433
    28  H    0.223240
    29  H    0.275442
    30  H    0.275265
    31  H    0.226324
    32  N    0.488715
    33  O   -0.461758
    34  O   -0.460166
 Sum of Mulliken charges =  -0.00000

 Dipole moment (field-independent basis, Debye):
    X=              1.6169    Y=              4.7303    Z=              1.3510  Tot=              5.1784
 Quadrupole moment (field-independent basis, Debye-Ang):
   XX=            -99.8242   YY=            -94.4487   ZZ=            -95.4424
   XY=            -15.0356   XZ=             -5.2443   YZ=             -0.7766

 Normal termination of Gaussian 16 at Wed May  5 20:18:28 2021.
