 Gaussian 16, Revision A.03,
 Gaussian 16:  EM64L-G16RevA.03 25-Dec-2016

 -------------
 #p 6-31g* mp2
 -------------

 ------------------------------------------------------
 Input file generated by CHIRIPA (05-May-2021 14:51:11)
 ------------------------------------------------------
 Symbolic Z-matrix:
 Charge =  0 Multiplicity = 1

                         Standard orientation:
 ---------------------------------------------------------------------
 Center     Atomic      Atomic             Coordinates (Angstroms)
 Number     Number       Type             X           Y           Z
 ---------------------------------------------------------------------
      1          6           0        2.483896   -1.330172   -0.304555
      2          6           0        1.041397   -1.828470   -0.398785
      3          6           0        0.947212   -3.281680   -0.864732
      4          1           0        2.965809   -1.433889   -1.286364
      5          1           0        3.042766   -1.975093    0.387643
      6          1           0        0.485058   -1.181968   -1.089537
      7          1           0        0.562804   -1.723377    0.583315
      8          1           0        1.477780   -3.943363   -0.172436
      9          1           0        1.399592   -3.398877   -1.854792
     10          1           0       -0.092766   -3.617341   -0.925033
     11          6           0        2.594438    0.120944    0.159954
     12          6           0        4.036938    0.619242    0.254184
     13          6           0        4.131123    2.072452    0.720131
     14          1           0        2.035569    0.765865   -0.532244
     15          1           0        2.112526    0.224661    1.141763
     16          1           0        4.515530    0.514149   -0.727916
     17          1           0        4.593277   -0.027260    0.944935
     18          1           0        3.678743    2.189649    1.710191
     19          1           0        3.600555    2.734135    0.027835
     20          1           0        5.171101    2.408113    0.780432
     21          6           0       -2.725369    0.066065    0.580951
     22          6           0       -2.812237   -1.335452   -0.024186
     23          6           0       -3.185659   -2.401974    1.005805
     24          1           0       -1.984899    0.062873    1.392517
     25          1           0       -3.690904    0.320256    1.039779
     26          1           0       -1.847254   -1.586374   -0.482948
     27          1           0       -3.552447   -1.328878   -0.834533
     28          1           0       -4.158258   -2.178774    1.456174
     29          1           0       -2.443377   -2.437734    1.809758
     30          1           0       -3.242181   -3.396215    0.551769
     31          6           0       -2.352967    1.143164   -0.436350
     32          6           0       -2.266097    2.544680    0.168787
     33          6           0       -1.892676    3.611201   -0.861204
     34          1           0       -1.387432    0.888972   -0.895178
     35          1           0       -3.093436    1.146355   -1.247916
     36          1           0       -1.525887    2.538106    0.979134
     37          1           0       -3.231081    2.795602    0.627549
     38          1           0       -2.634958    3.646962   -1.665157
     39          1           0       -0.920076    3.388002   -1.311573
     40          1           0       -1.836154    4.605443   -0.407168
 ---------------------------------------------------------------------

 SCF Done:  E(RHF) =  -470.732793258     A.U. after   11 cycles
 E2 =    -0.1584414043D+01 EUMP2 =    -0.47231720730086D+03

 The electronic state is 1-A.
 Alpha  occ. eigenvalues --  -11.21707 -11.21665 -11.21564 -11.21493 -11.21455
 Alpha  occ. eigenvalues --  -11.21433 -11.21351 -11.21289 -11.21147 -11.21119
 Alpha  occ. eigenvalues --  -11.21055 -11.21034  -1.08533  -1.08360  -1.03640
 Alpha  occ. eigenvalues --   -1.03454  -0.96062  -0.95931  -0.87070  -0.86950
 Alpha  occ. eigenvalues --   -0.79745  -0.79504  -0.78410  -0.78119  -0.65155
 Alpha  occ. eigenvalues --   -0.65015  -0.61023  -0.60944  -0.59466  -0.59227
 Alpha  occ. eigenvalues --   -0.57711  -0.57485  -0.55342  -0.55216  -0.52756
 Alpha  occ. eigenvalues --   -0.52620  -0.52476  -0.52362  -0.49995  -0.49880
 Alpha  occ. eigenvalues --   -0.48087  -0.47805  -0.46773  -0.46551  -0.46141
 Alpha  occ. eigenvalues --   -0.45845  -0.45673  -0.45248  -0.43862  -0.43729
 Alpha virt. eigenvalues --    0.20264   0.22331   0.23549   0.24200   0.25653
 Alpha virt. eigenvalues --    0.25847   0.26845   0.27890   0.28506   0.29807
 Alpha virt. eigenvalues --    0.30279   0.31224   0.31432   0.31882   0.32696

 Mulliken charges:
               1
     1  C   -0.297373
     2  C   -0.306232
     3  C   -0.478712
     4  H    0.150024
     5  H    0.149938
     6  H    0.154767
     7  H    0.153708
     8  H    0.155941
     9  H    0.155682
    10  H    0.162980
    11  C   -0.298742
    12  C   -0.299732
    13  C   -0.475774
    14  H    0.149181
    15  H    0.149352
    16  H    0.152212
    17  H    0.152230
    18  H    0.155206
    19  H    0.155309
    20  H    0.160565
    21  C   -0.297477
    22  C   -0.310503
    23  C   -0.475692
    24  H    0.149296
    25  H    0.149176
    26  H    0.165716
    27  H    0.150964
    28  H    0.155073
    29  H    0.154573
    30  H    0.159554
    31  C   -0.301386
    32  C   -0.299537
    33  C   -0.475524
    34  H    0.151956
    35  H    0.149286
    36  H    0.152349
    37  H    0.151809
    38  H    0.155036
    39  H    0.154523
    40  H    0.160278
 Sum of Mulliken charges =  -0.00000

 Dipole moment (field-independent basis, Debye):
    X=              0.0618    Y=             -0.0210    Z=             -0.0105  Tot=              0.0661
 Quadrupole moment (field-independent basis, Debye-Ang):
   XX=            -84.0219   YY=            -86.5157   ZZ=            -84.2940
   XY=             -0.6924   XZ=              0.3535   YZ=             -0.0741

 Normal termination of Gaussian 16 at Wed May  5 19:51:57 2021.
