 Gaussian 16, Revision A.03,
 Gaussian 16:  EM64L-G16RevA.03 25-Dec-2016

 -------------
 #p 6-31g* mp2
 -------------

 ------------------------------------------------------
 Input file generated by CHIRIPA (05-May-2021 14:57:24)
 ------------------------------------------------------
 Symbolic Z-matrix:
 Charge =  0 Multiplicity = 1

                         Standard orientation:
 ---------------------------------------------------------------------
 Center     Atomic      Atomic             Coordinates (Angstroms)
 Number     Number       Type             X           Y           Z
 ---------------------------------------------------------------------
      1          6           0       -4.441916    1.073377   -1.706434
      2          6           0       -5.094832    0.072042   -0.980109
      3          6           0       -4.432188   -0.607062    0.046667
      4          6           0       -3.110963   -0.257708    0.321636
      5          6           0       -2.433329    0.735300   -0.384081
      6          6           0       -3.115586    1.401232   -1.406631
      7          1           0       -4.964292    1.595805   -2.502416
      8          1           0       -6.124856   -0.184675   -1.210745
      9          1           0       -4.913727   -1.386362    0.624793
     10          1           0       -1.406326    0.969082   -0.131042
     11          1           0       -2.606015    2.178453   -1.969045
     12          7           0       -2.399070   -0.969673    1.406400
     13          8           0       -1.235259   -0.643212    1.629121
     14          8           0       -3.018378   -1.840690    2.013378
     15          6           0        3.964782   -1.983624   -1.288351
     16          6           0        4.884966   -1.230024   -0.552232
     17          6           0        4.488031   -0.051525    0.086616
     18          6           0        3.157091    0.345707   -0.032111
     19          6           0        2.216715   -0.383423   -0.758301
     20          6           0        2.635937   -1.558668   -1.388859
     21          1           0        4.281787   -2.897848   -1.781404
     22          1           0        5.917611   -1.557632   -0.472457
     23          1           0        5.179606    0.551033    0.662869
     24          1           0        1.194125   -0.031351   -0.819709
     25          1           0        1.919129   -2.141916   -1.959870
     26          7           0        2.725076    1.591609    0.639820
     27          8           0        1.546776    1.920044    0.519927
     28          8           0        3.572945    2.216121    1.273651
 ---------------------------------------------------------------------

 SCF Done:  E(RHF) =  -868.338790841     A.U. after   16 cycles
 E2 =    -0.2599738546D+01 EUMP2 =    -0.87093852938746D+03

 The electronic state is 1-A.
 Alpha  occ. eigenvalues --  -20.60611 -20.60605 -20.60596 -20.60583 -15.85654
 Alpha  occ. eigenvalues --  -15.85638 -11.30991 -11.30904 -11.27591 -11.27496
 Alpha  occ. eigenvalues --  -11.27476 -11.27468 -11.27322 -11.27220 -11.26610
 Alpha  occ. eigenvalues --  -11.26540 -11.26482 -11.26470  -1.59672  -1.59658
 Alpha  occ. eigenvalues --   -1.39225  -1.39218  -1.19169  -1.19074  -1.08574
 Alpha  occ. eigenvalues --   -1.08491  -1.04559  -1.04473  -0.95409  -0.95342
 Alpha  occ. eigenvalues --   -0.85962  -0.85879  -0.82224  -0.82196  -0.77343
 Alpha  occ. eigenvalues --   -0.77177  -0.71921  -0.71826  -0.71002  -0.70951
 Alpha  occ. eigenvalues --   -0.70267  -0.70206  -0.64816  -0.64749  -0.64577
 Alpha  occ. eigenvalues --   -0.64469  -0.61955  -0.61762  -0.55076  -0.54994
 Alpha  occ. eigenvalues --   -0.52912  -0.52788  -0.52675  -0.52540  -0.48662
 Alpha  occ. eigenvalues --   -0.48624  -0.48613  -0.48577  -0.44643  -0.44628
 Alpha  occ. eigenvalues --   -0.37172  -0.37047  -0.36172  -0.36055
 Alpha virt. eigenvalues --    0.05207   0.05314   0.11427   0.11598   0.16727
 Alpha virt. eigenvalues --    0.16811   0.20627   0.22096   0.25594   0.27812
 Alpha virt. eigenvalues --    0.27997   0.29424   0.30538   0.31543   0.31926

 Mulliken charges:
               1
     1  C   -0.170924
     2  C   -0.219072
     3  C   -0.171189
     4  C    0.156404
     5  C   -0.185299
     6  C   -0.221163
     7  H    0.224960
     8  H    0.222453
     9  H    0.274549
    10  H    0.295494
    11  H    0.226215
    12  N    0.486749
    13  O   -0.458194
    14  O   -0.462150
    15  C   -0.170026
    16  C   -0.218775
    17  C   -0.170142
    18  C    0.158356
    19  C   -0.162104
    20  C   -0.219320
    21  H    0.224928
    22  H    0.222688
    23  H    0.275041
    24  H    0.273095
    25  H    0.222765
    26  N    0.492880
    27  O   -0.468884
    28  O   -0.459333
 Sum of Mulliken charges =  -0.00000

 Dipole moment (field-independent basis, Debye):
    X=             -0.8802    Y=             -1.8418    Z=             -6.1177  Tot=              6.4493
 Quadrupole moment (field-independent basis, Debye-Ang):
   XX=            -72.4021   YY=           -108.8170   ZZ=           -107.8779
   XY=            -17.7349   XZ=              4.8293   YZ=              0.8931

 Normal termination of Gaussian 16 at Fri May  7 00:19:10 2021.
