 Gaussian 16, Revision A.03,
 Gaussian 16:  EM64L-G16RevA.03 25-Dec-2016

 -------------
 #p 6-31g* mp2
 -------------

 ------------------------------------------------------
 Input file generated by CHIRIPA (05-May-2021 14:57:23)
 ------------------------------------------------------
 Symbolic Z-matrix:
 Charge =  0 Multiplicity = 1

                         Standard orientation:
 ---------------------------------------------------------------------
 Center     Atomic      Atomic             Coordinates (Angstroms)
 Number     Number       Type             X           Y           Z
 ---------------------------------------------------------------------
      1          6           0        2.297940   -2.113232    1.119032
      2          6           0        2.909427   -2.099626   -0.138910
      3          6           0        3.354053   -0.898440   -0.699274
      4          6           0        3.170305    0.275810    0.029194
      5          6           0        2.564719    0.294823    1.284659
      6          6           0        2.127838   -0.918071    1.825557
      7          1           0        1.955552   -3.050890    1.546775
      8          1           0        3.042851   -3.026276   -0.689876
      9          1           0        3.830670   -0.859168   -1.671237
     10          1           0        2.445624    1.234652    1.809974
     11          1           0        1.653287   -0.925626    2.802690
     12          7           0        3.636911    1.553649   -0.553734
     13          8           0        3.463286    2.574572    0.108237
     14          8           0        4.167427    1.510100   -1.661567
     15          6           0       -4.886107    1.661671    0.287078
     16          6           0       -5.214789    0.440365   -0.310335
     17          6           0       -4.229663   -0.523826   -0.543596
     18          6           0       -2.920091   -0.232154   -0.165131
     19          6           0       -2.561197    0.975288    0.432003
     20          6           0       -3.562693    1.924771    0.655690
     21          1           0       -5.657735    2.404965    0.464563
     22          1           0       -6.241740    0.233308   -0.597640
     23          1           0       -4.456394   -1.477591   -1.004403
     24          1           0       -1.528733    1.152906    0.707481
     25          1           0       -3.304529    2.872385    1.119828
     26          7           0       -1.868516   -1.245114   -0.407007
     27          8           0       -0.722167   -0.963847   -0.064358
     28          8           0       -2.210554   -2.301159   -0.934658
 ---------------------------------------------------------------------

 SCF Done:  E(RHF) =  -868.338180075     A.U. after   16 cycles
 E2 =    -0.2600269949D+01 EUMP2 =    -0.87093845002366D+03

 The electronic state is 1-A.
 Alpha  occ. eigenvalues --  -20.61159 -20.61150 -20.60011 -20.59991 -15.86186
 Alpha  occ. eigenvalues --  -15.85046 -11.31448 -11.30067 -11.28006 -11.27996
 Alpha  occ. eigenvalues --  -11.27715 -11.26992 -11.26972 -11.26669 -11.26596
 Alpha  occ. eigenvalues --  -11.26250 -11.25582 -11.25505  -1.60239  -1.59086
 Alpha  occ. eigenvalues --   -1.39793  -1.38651  -1.19610  -1.18186  -1.09026
 Alpha  occ. eigenvalues --   -1.07640  -1.04993  -1.03582  -0.95880  -0.94551
 Alpha  occ. eigenvalues --   -0.86396  -0.85011  -0.82712  -0.81428  -0.77777
 Alpha  occ. eigenvalues --   -0.76526  -0.72431  -0.71557  -0.71283  -0.70713
 Alpha  occ. eigenvalues --   -0.70399  -0.69347  -0.65263  -0.64991  -0.63880
 Alpha  occ. eigenvalues --   -0.63638  -0.62341  -0.60995  -0.55495  -0.54093
 Alpha  occ. eigenvalues --   -0.53331  -0.53081  -0.51840  -0.51729  -0.49189
 Alpha  occ. eigenvalues --   -0.49141  -0.48051  -0.48003  -0.45233  -0.44137
 Alpha  occ. eigenvalues --   -0.37586  -0.36592  -0.36008  -0.35123
 Alpha virt. eigenvalues --    0.04732   0.06032   0.11063   0.12517   0.16276
 Alpha virt. eigenvalues --    0.17631   0.21208   0.22455   0.27095   0.27925
 Alpha virt. eigenvalues --    0.28421   0.29345   0.30801   0.31972   0.32261

 Mulliken charges:
               1
     1  C   -0.153189
     2  C   -0.212036
     3  C   -0.169944
     4  C    0.159392
     5  C   -0.173144
     6  C   -0.208519
     7  H    0.223570
     8  H    0.221251
     9  H    0.271594
    10  H    0.266689
    11  H    0.216086
    12  N    0.487980
    13  O   -0.467263
    14  O   -0.462800
    15  C   -0.170387
    16  C   -0.218500
    17  C   -0.170987
    18  C    0.157540
    19  C   -0.171022
    20  C   -0.218360
    21  H    0.226904
    22  H    0.224131
    23  H    0.275260
    24  H    0.274989
    25  H    0.225619
    26  N    0.490395
    27  O   -0.462715
    28  O   -0.462534
 Sum of Mulliken charges =  -0.00000

 Dipole moment (field-independent basis, Debye):
    X=             -5.6201    Y=             -1.1533    Z=              2.8868  Tot=              6.4225
 Quadrupole moment (field-independent basis, Debye-Ang):
   XX=            -92.4456   YY=           -106.7316   ZZ=           -102.1337
   XY=            -23.9665   XZ=              4.5511   YZ=              3.2790

 Normal termination of Gaussian 16 at Thu May  6 09:47:17 2021.
