 Gaussian 16, Revision A.03,
 Gaussian 16:  EM64L-G16RevA.03 25-Dec-2016

 -------------
 #p 6-31g* mp2
 -------------

 ------------------------------------------------------
 Input file generated by CHIRIPA (05-May-2021 14:55:20)
 ------------------------------------------------------
 Symbolic Z-matrix:
 Charge =  0 Multiplicity = 1

                         Standard orientation:
 ---------------------------------------------------------------------
 Center     Atomic      Atomic             Coordinates (Angstroms)
 Number     Number       Type             X           Y           Z
 ---------------------------------------------------------------------
      1          6           0       -2.910171    2.558237    0.386989
      2          6           0       -3.912829    2.024313   -0.429174
      3          6           0       -3.911997    0.665510   -0.758115
      4          6           0       -2.888752   -0.134068   -0.251228
      5          6           0       -1.875864    0.368234    0.564272
      6          6           0       -1.896675    1.729954    0.880238
      7          1           0       -2.918578    3.614921    0.637478
      8          1           0       -4.701169    2.665196   -0.813667
      9          1           0       -4.675944    0.225994   -1.387899
     10          1           0       -1.103139   -0.295637    0.932496
     11          1           0       -1.116711    2.141863    1.514297
     12          7           0       -2.877295   -1.574116   -0.592595
     13          8           0       -1.964729   -2.257432   -0.133314
     14          8           0       -3.781099   -1.992242   -1.312975
     15          6           0        4.127512   -0.254935   -0.371421
     16          6           0        5.162576    0.842346   -0.621620
     17          6           0        6.010074    0.582595   -1.867441
     18          1           0        4.642601   -1.220155   -0.271527
     19          1           0        3.473156   -0.339306   -1.250111
     20          1           0        5.813918    0.925566    0.257837
     21          1           0        4.644979    1.805094   -0.720739
     22          1           0        5.376624    0.520558   -2.758222
     23          1           0        6.552204   -0.363967   -1.774086
     24          1           0        6.743361    1.379190   -2.027408
     25          6           0        3.272527   -0.009433    0.870537
     26          6           0        2.237462   -1.106715    1.120735
     27          6           0        1.389964   -0.846965    2.366556
     28          1           0        3.926883    0.074937    1.749225
     29          1           0        2.757438    0.955786    0.770642
     30          1           0        2.755060   -2.069463    1.219854
     31          1           0        1.586121   -1.189936    0.241278
     32          1           0        0.847835    0.099599    2.273201
     33          1           0        2.023416   -0.784927    3.257337
     34          1           0        0.656678   -1.643559    2.526523
 ---------------------------------------------------------------------

 SCF Done:  E(RHF) =  -669.535411768     A.U. after   15 cycles
 E2 =    -0.2091939771D+01 EUMP2 =    -0.67162735153922D+03

 The electronic state is 1-A.
 Alpha  occ. eigenvalues --  -20.60770 -20.60765 -15.85817 -11.31140 -11.27730
 Alpha  occ. eigenvalues --  -11.27650 -11.27479 -11.26743 -11.26727 -11.21775
 Alpha  occ. eigenvalues --  -11.21724 -11.21614 -11.21564 -11.21476 -11.21140
 Alpha  occ. eigenvalues --   -1.59841  -1.39396  -1.19325  -1.08731  -1.08613
 Alpha  occ. eigenvalues --   -1.04730  -1.03742  -0.96228  -0.95564  -0.87243
 Alpha  occ. eigenvalues --   -0.86124  -0.82404  -0.79788  -0.78403  -0.77454
 Alpha  occ. eigenvalues --   -0.72039  -0.71162  -0.70453  -0.65287  -0.64979
 Alpha  occ. eigenvalues --   -0.64729  -0.62217  -0.61028  -0.59552  -0.57795
 Alpha  occ. eigenvalues --   -0.55616  -0.55149  -0.53062  -0.52953  -0.52737
 Alpha  occ. eigenvalues --   -0.52625  -0.50167  -0.48792  -0.48791  -0.48102
 Alpha  occ. eigenvalues --   -0.46822  -0.45958  -0.45865  -0.44807  -0.43973
 Alpha  occ. eigenvalues --   -0.37315  -0.36327
 Alpha virt. eigenvalues --    0.05069   0.11305   0.16570   0.19734   0.22950
 Alpha virt. eigenvalues --    0.23890   0.25440   0.26735   0.27171   0.28050
 Alpha virt. eigenvalues --    0.28935   0.30550   0.31447   0.31758   0.32280

 Mulliken charges:
               1
     1  C   -0.170326
     2  C   -0.219328
     3  C   -0.169861
     4  C    0.157135
     5  C   -0.180751
     6  C   -0.224657
     7  H    0.225495
     8  H    0.223302
     9  H    0.275405
    10  H    0.293833
    11  H    0.224046
    12  N    0.487557
    13  O   -0.461748
    14  O   -0.460194
    15  C   -0.298766
    16  C   -0.299563
    17  C   -0.475870
    18  H    0.151813
    19  H    0.151757
    20  H    0.151710
    21  H    0.150181
    22  H    0.156026
    23  H    0.156246
    24  H    0.160004
    25  C   -0.297587
    26  C   -0.303253
    27  C   -0.486743
    28  H    0.149599
    29  H    0.143980
    30  H    0.157829
    31  H    0.160032
    32  H    0.139845
    33  H    0.160637
    34  H    0.172216
 Sum of Mulliken charges =  -0.00000

 Dipole moment (field-independent basis, Debye):
    X=              0.0641    Y=              4.9180    Z=              1.1832  Tot=              5.0588
 Quadrupole moment (field-independent basis, Debye-Ang):
   XX=            -91.0848   YY=            -96.2504   ZZ=            -94.9361
   XY=            -16.0929   XZ=              0.1116   YZ=             -2.3509

 Normal termination of Gaussian 16 at Thu May  6 09:18:15 2021.
