 Gaussian 16, Revision A.03,
 Gaussian 16:  EM64L-G16RevA.03 25-Dec-2016

 -------------
 #p 6-31g* mp2
 -------------

 ------------------------------------------------------
 Input file generated by CHIRIPA (05-May-2021 14:53:11)
 ------------------------------------------------------
 Symbolic Z-matrix:
 Charge =  0 Multiplicity = 1

                         Standard orientation:
 ---------------------------------------------------------------------
 Center     Atomic      Atomic             Coordinates (Angstroms)
 Number     Number       Type             X           Y           Z
 ---------------------------------------------------------------------
      1          6           0       -2.722843   -0.586494    0.277907
      2          6           0       -3.237630   -1.293590   -0.976284
      3          6           0       -3.223703   -2.816774   -0.843952
      4          1           0       -1.700540   -0.928191    0.490239
      5          1           0       -3.337595   -0.886392    1.137869
      6          1           0       -2.622954   -0.991377   -1.833872
      7          1           0       -4.258755   -0.950026   -1.185764
      8          1           0       -3.852146   -3.136459   -0.006418
      9          1           0       -2.207050   -3.178045   -0.658208
     10          1           0       -3.595631   -3.302034   -1.751725
     11          6           0       -2.730672    0.936658    0.160964
     12          6           0       -2.215885    1.643754    1.415155
     13          6           0       -2.229812    3.166938    1.282823
     14          1           0       -2.115920    1.236556   -0.698998
     15          1           0       -3.752975    1.278355   -0.051368
     16          1           0       -1.194760    1.300191    1.624635
     17          1           0       -2.830561    1.341541    2.272743
     18          1           0       -3.246465    3.528209    1.097079
     19          1           0       -1.601369    3.486623    0.445290
     20          1           0       -1.857884    3.652198    2.190596
     21          6           0        2.396616   -2.208597    1.243689
     22          6           0        1.250273   -2.038483    0.460439
     23          6           0        1.092073   -0.894531   -0.327531
     24          6           0        2.104531    0.063513   -0.308243
     25          6           0        3.258228   -0.077137    0.461492
     26          6           0        3.395174   -1.229109    1.241719
     27          1           0        2.511254   -3.100362    1.852796
     28          1           0        0.473155   -2.797516    0.460003
     29          1           0        0.214820   -0.737386   -0.943283
     30          1           0        4.015776    0.696897    0.441216
     31          1           0        4.286508   -1.358555    1.849018
     32          7           0        1.948302    1.278808   -1.138333
     33          8           0        2.854734    2.108162   -1.103855
     34          8           0        0.922376    1.378991   -1.807718
 ---------------------------------------------------------------------

 SCF Done:  E(RHF) =  -669.535413615     A.U. after   15 cycles
 E2 =    -0.2094050304D+01 EUMP2 =    -0.67162946391872D+03

 The electronic state is 1-A.
 Alpha  occ. eigenvalues --  -20.60928 -20.60919 -15.85964 -11.31285 -11.27852
 Alpha  occ. eigenvalues --  -11.27832 -11.27581 -11.26856 -11.26844 -11.21924
 Alpha  occ. eigenvalues --  -11.21644 -11.21597 -11.21379 -11.21151 -11.20639
 Alpha  occ. eigenvalues --   -1.59988  -1.39543  -1.19460  -1.08857  -1.08501
 Alpha  occ. eigenvalues --   -1.04860  -1.03582  -0.96041  -0.95697  -0.87051
 Alpha  occ. eigenvalues --   -0.86252  -0.82542  -0.79682  -0.78249  -0.77588
 Alpha  occ. eigenvalues --   -0.72186  -0.71305  -0.70581  -0.65307  -0.65091
 Alpha  occ. eigenvalues --   -0.64782  -0.62174  -0.60956  -0.59434  -0.57627
 Alpha  occ. eigenvalues --   -0.55425  -0.55287  -0.53190  -0.52938  -0.52730
 Alpha  occ. eigenvalues --   -0.52432  -0.49980  -0.48940  -0.48934  -0.47977
 Alpha  occ. eigenvalues --   -0.46741  -0.45814  -0.45658  -0.44915  -0.43815
 Alpha  occ. eigenvalues --   -0.37431  -0.36406
 Alpha virt. eigenvalues --    0.04881   0.11151   0.16286   0.18757   0.22971
 Alpha virt. eigenvalues --    0.23682   0.25430   0.26105   0.27858   0.28391
 Alpha virt. eigenvalues --    0.29324   0.30797   0.31553   0.31805   0.32616

 Mulliken charges:
               1
     1  C   -0.304764
     2  C   -0.304137
     3  C   -0.474681
     4  H    0.142193
     5  H    0.150273
     6  H    0.155094
     7  H    0.156879
     8  H    0.157314
     9  H    0.143071
    10  H    0.164023
    11  C   -0.306202
    12  C   -0.298630
    13  C   -0.478414
    14  H    0.166867
    15  H    0.149934
    16  H    0.149543
    17  H    0.148675
    18  H    0.153796
    19  H    0.166029
    20  H    0.158479
    21  C   -0.170767
    22  C   -0.222099
    23  C   -0.172482
    24  C    0.156074
    25  C   -0.170628
    26  C   -0.218548
    27  H    0.226513
    28  H    0.227440
    29  H    0.281968
    30  H    0.275896
    31  H    0.223941
    32  N    0.488517
    33  O   -0.458963
    34  O   -0.462207
 Sum of Mulliken charges =  -0.00000

 Dipole moment (field-independent basis, Debye):
    X=              0.5822    Y=             -4.1412    Z=              2.8306  Tot=              5.0498
 Quadrupole moment (field-independent basis, Debye-Ang):
   XX=            -87.2868   YY=            -96.4897   ZZ=            -96.6952
   XY=             -7.6096   XZ=              7.7777   YZ=              1.8274

 Normal termination of Gaussian 16 at Wed May  5 16:56:50 2021.
