 Gaussian 16, Revision A.03,
 Gaussian 16:  EM64L-G16RevA.03 25-Dec-2016

 -------------
 #p 6-31g* mp2
 -------------

 ------------------------------------------------------
 Input file generated by CHIRIPA (05-May-2021 14:57:22)
 ------------------------------------------------------
 Symbolic Z-matrix:
 Charge =  0 Multiplicity = 1

                         Standard orientation:
 ---------------------------------------------------------------------
 Center     Atomic      Atomic             Coordinates (Angstroms)
 Number     Number       Type             X           Y           Z
 ---------------------------------------------------------------------
      1          6           0       -1.095078   -1.549529    0.022916
      2          6           0       -2.094614   -1.730815   -0.938637
      3          6           0       -3.259954   -0.959168   -0.905589
      4          6           0       -3.393384   -0.011053    0.107605
      5          6           0       -2.415454    0.193123    1.079848
      6          6           0       -1.258401   -0.589830    1.027319
      7          1           0       -0.193033   -2.153354   -0.010323
      8          1           0       -1.970485   -2.475385   -1.719824
      9          1           0       -4.049584   -1.078730   -1.637442
     10          1           0       -2.567739    0.943198    1.846408
     11          1           0       -0.483807   -0.446862    1.775389
     12          7           0       -4.622691    0.811840    0.152903
     13          8           0       -4.716142    1.640503    1.055800
     14          8           0       -5.469493    0.612579   -0.715347
     15          6           0        2.930253   -2.321423    0.354328
     16          6           0        2.444346   -1.774022   -0.837632
     17          6           0        2.583168   -0.407846   -1.100007
     18          6           0        3.215966    0.385282   -0.144075
     19          6           0        3.710606   -0.130434    1.052861
     20          6           0        3.560720   -1.499331    1.294113
     21          1           0        2.818116   -3.383758    0.549943
     22          1           0        1.954286   -2.410070   -1.569294
     23          1           0        2.216276    0.042116   -2.014524
     24          1           0        4.194592    0.528893    1.763118
     25          1           0        3.939055   -1.921705    2.220670
     26          7           0        3.368787    1.833032   -0.410659
     27          8           0        3.930105    2.510433    0.447644
     28          8           0        2.924355    2.262963   -1.472863
 ---------------------------------------------------------------------

 SCF Done:  E(RHF) =  -868.336195005     A.U. after   16 cycles
 E2 =    -0.2601868273D+01 EUMP2 =    -0.87093806327825D+03

 The electronic state is 1-A.
 Alpha  occ. eigenvalues --  -20.61505 -20.61497 -20.60808 -20.60799 -15.86567
 Alpha  occ. eigenvalues --  -15.85864 -11.32199 -11.31295 -11.28798 -11.28777
 Alpha  occ. eigenvalues --  -11.28628 -11.27917 -11.27912 -11.27865 -11.27843
 Alpha  occ. eigenvalues --  -11.27603 -11.26965 -11.26882  -1.60574  -1.59880
 Alpha  occ. eigenvalues --   -1.40119  -1.39432  -1.20423  -1.19488  -1.09779
 Alpha  occ. eigenvalues --   -1.08875  -1.05853  -1.04906  -0.96546  -0.95698
 Alpha  occ. eigenvalues --   -0.87243  -0.86305  -0.83368  -0.82529  -0.78361
 Alpha  occ. eigenvalues --   -0.77558  -0.72777  -0.72081  -0.71905  -0.71498
 Alpha  occ. eigenvalues --   -0.71203  -0.70654  -0.66057  -0.65850  -0.65143
 Alpha  occ. eigenvalues --   -0.64929  -0.63164  -0.62255  -0.56347  -0.55638
 Alpha  occ. eigenvalues --   -0.54041  -0.53901  -0.53197  -0.53002  -0.49558
 Alpha  occ. eigenvalues --   -0.49515  -0.48847  -0.48830  -0.45464  -0.44822
 Alpha  occ. eigenvalues --   -0.38437  -0.37837  -0.37073  -0.36510
 Alpha virt. eigenvalues --    0.04100   0.05029   0.10022   0.11129   0.15451
 Alpha virt. eigenvalues --    0.16571   0.19766   0.21725   0.25749   0.27024
 Alpha virt. eigenvalues --    0.27278   0.28951   0.30070   0.30971   0.32104

 Mulliken charges:
               1
     1  C   -0.170650
     2  C   -0.221788
     3  C   -0.169622
     4  C    0.158658
     5  C   -0.169399
     6  C   -0.221100
     7  H    0.222703
     8  H    0.218856
     9  H    0.275833
    10  H    0.277191
    11  H    0.223991
    12  N    0.488141
    13  O   -0.459062
    14  O   -0.460417
    15  C   -0.176666
    16  C   -0.228665
    17  C   -0.165821
    18  C    0.158161
    19  C   -0.171696
    20  C   -0.219574
    21  H    0.227663
    22  H    0.222662
    23  H    0.280234
    24  H    0.279281
    25  H    0.227236
    26  N    0.487917
    27  O   -0.457795
    28  O   -0.456272
 Sum of Mulliken charges =  -0.00000

 Dipole moment (field-independent basis, Debye):
    X=              4.0136    Y=             -7.7508    Z=              0.8082  Tot=              8.7657
 Quadrupole moment (field-independent basis, Debye-Ang):
   XX=           -136.4537   YY=           -108.9625   ZZ=            -98.2319
   XY=             -5.5897   XZ=              8.0722   YZ=              3.4689

 Normal termination of Gaussian 16 at Wed May  5 22:35:15 2021.
