 Gaussian 16, Revision A.03,
 Gaussian 16:  EM64L-G16RevA.03 25-Dec-2016

 -------------
 #p 6-31g* mp2
 -------------

 ------------------------------------------------------
 Input file generated by CHIRIPA (05-May-2021 14:57:24)
 ------------------------------------------------------
 Symbolic Z-matrix:
 Charge =  0 Multiplicity = 1

                         Standard orientation:
 ---------------------------------------------------------------------
 Center     Atomic      Atomic             Coordinates (Angstroms)
 Number     Number       Type             X           Y           Z
 ---------------------------------------------------------------------
      1          6           0        2.311278    2.006026    0.750296
      2          6           0        1.643287    0.875114    0.269312
      3          6           0        2.359722   -0.260061   -0.121388
      4          6           0        3.749523   -0.229688   -0.017374
      5          6           0        4.443853    0.881778    0.457851
      6          6           0        3.706968    2.005750    0.842868
      7          1           0        1.746791    2.883506    1.051594
      8          1           0        0.559446    0.872494    0.196330
      9          1           0        1.867991   -1.149067   -0.497271
     10          1           0        5.525019    0.854520    0.519120
     11          1           0        4.228402    2.882617    1.216037
     12          7           0        4.518805   -1.425517   -0.427982
     13          8           0        5.742598   -1.373541   -0.326652
     14          8           0        3.883410   -2.392140   -0.843373
     15          6           0       -4.595101   -2.049784    0.990902
     16          6           0       -3.846642   -1.161494    1.770178
     17          6           0       -3.303126   -0.004598    1.203849
     18          6           0       -3.528732    0.233918   -0.150958
     19          6           0       -4.269987   -0.631863   -0.953612
     20          6           0       -4.804016   -1.782605   -0.366113
     21          1           0       -5.013632   -2.946099    1.439063
     22          1           0       -3.682781   -1.366430    2.824311
     23          1           0       -2.719765    0.700066    1.783983
     24          1           0       -4.416318   -0.400597   -2.001715
     25          1           0       -5.384868   -2.470683   -0.973735
     26          7           0       -2.958357    1.455415   -0.761711
     27          8           0       -3.171481    1.642773   -1.957585
     28          8           0       -2.308975    2.202337   -0.032982
 ---------------------------------------------------------------------

 SCF Done:  E(RHF) =  -868.339759800     A.U. after   16 cycles
 E2 =    -0.2598603220D+01 EUMP2 =    -0.87093836302001D+03

 The electronic state is 1-A.
 Alpha  occ. eigenvalues --  -20.61790 -20.61722 -20.60432 -20.60426 -15.86771
 Alpha  occ. eigenvalues --  -15.85480 -11.31912 -11.30712 -11.28474 -11.28411
 Alpha  occ. eigenvalues --  -11.28106 -11.27402 -11.27366 -11.27273 -11.27243
 Alpha  occ. eigenvalues --  -11.26882 -11.26245 -11.26121  -1.60814  -1.59510
 Alpha  occ. eigenvalues --   -1.40376  -1.39068  -1.20054  -1.18854  -1.09484
 Alpha  occ. eigenvalues --   -1.08253  -1.05416  -1.04236  -0.96357  -0.95119
 Alpha  occ. eigenvalues --   -0.86823  -0.85621  -0.83195  -0.81960  -0.78281
 Alpha  occ. eigenvalues --   -0.77042  -0.72991  -0.72127  -0.71700  -0.71142
 Alpha  occ. eigenvalues --   -0.70832  -0.69920  -0.65702  -0.65403  -0.64493
 Alpha  occ. eigenvalues --   -0.64202  -0.62766  -0.61584  -0.55902  -0.54674
 Alpha  occ. eigenvalues --   -0.53761  -0.53496  -0.52576  -0.52309  -0.49769
 Alpha  occ. eigenvalues --   -0.49722  -0.48465  -0.48444  -0.45807  -0.44504
 Alpha  occ. eigenvalues --   -0.38010  -0.37010  -0.36800  -0.35849
 Alpha virt. eigenvalues --    0.04207   0.05483   0.10618   0.11817   0.15731
 Alpha virt. eigenvalues --    0.17026   0.20757   0.22034   0.26560   0.27237
 Alpha virt. eigenvalues --    0.28163   0.28930   0.30317   0.31298   0.32265

 Mulliken charges:
               1
     1  C   -0.171791
     2  C   -0.222048
     3  C   -0.172482
     4  C    0.158236
     5  C   -0.172100
     6  C   -0.219038
     7  H    0.231799
     8  H    0.230998
     9  H    0.272566
    10  H    0.273719
    11  H    0.222159
    12  N    0.488219
    13  O   -0.461745
    14  O   -0.462636
    15  C   -0.169686
    16  C   -0.217797
    17  C   -0.174057
    18  C    0.156554
    19  C   -0.170435
    20  C   -0.218026
    21  H    0.228957
    22  H    0.225883
    23  H    0.272833
    24  H    0.277452
    25  H    0.226711
    26  N    0.487627
    27  O   -0.453546
    28  O   -0.468328
 Sum of Mulliken charges =  -0.00000

 Dipole moment (field-independent basis, Debye):
    X=             -5.1346    Y=             -0.1060    Z=              3.5666  Tot=              6.2527
 Quadrupole moment (field-independent basis, Debye-Ang):
   XX=           -106.9929   YY=           -108.2338   ZZ=           -102.0641
   XY=             35.0890   XZ=              1.4675   YZ=              2.5321

 Normal termination of Gaussian 16 at Thu May  6 05:03:56 2021.
