 Gaussian 16, Revision A.03,
 Gaussian 16:  EM64L-G16RevA.03 25-Dec-2016

 -------------
 #p 6-31g* mp2
 -------------

 ------------------------------------------------------
 Input file generated by CHIRIPA (05-May-2021 14:51:09)
 ------------------------------------------------------
 Symbolic Z-matrix:
 Charge =  0 Multiplicity = 1

                         Standard orientation:
 ---------------------------------------------------------------------
 Center     Atomic      Atomic             Coordinates (Angstroms)
 Number     Number       Type             X           Y           Z
 ---------------------------------------------------------------------
      1          6           0        2.617641   -0.175027   -0.376267
      2          6           0        3.507452   -1.370297   -0.033409
      3          6           0        3.021253   -2.671663   -0.672040
      4          1           0        1.590354   -0.384715   -0.048154
      5          1           0        2.579063   -0.056735   -1.468015
      6          1           0        3.545452   -1.485454    1.057421
      7          1           0        4.532778   -1.157660   -0.362205
      8          1           0        3.000304   -2.581128   -1.762896
      9          1           0        2.007368   -2.910785   -0.335204
     10          1           0        3.671805   -3.513088   -0.413879
     11          6           0        3.090783    1.133226    0.254874
     12          6           0        2.200972    2.328496   -0.087985
     13          6           0        2.687171    3.629862    0.550647
     14          1           0        3.129361    1.014934    1.346622
     15          1           0        4.118070    1.342914   -0.073240
     16          1           0        1.175646    2.115859    0.240811
     17          1           0        2.162972    2.443653   -1.178815
     18          1           0        3.701056    3.868984    0.213810
     19          1           0        2.708120    3.539327    1.641502
     20          1           0        2.036619    4.471287    0.292486
     21          6           0       -2.961253    0.184648   -0.301813
     22          6           0       -4.223888    0.922577    0.144504
     23          6           0       -4.424295    2.248669   -0.589737
     24          1           0       -2.088726    0.831743   -0.137775
     25          1           0       -3.015328    0.001194   -1.383855
     26          1           0       -4.168077    1.103360    1.225624
     27          1           0       -5.093490    0.273576   -0.020437
     28          1           0       -4.505875    2.083020   -1.668859
     29          1           0       -3.575203    2.917518   -0.415719
     30          1           0       -5.332640    2.759464   -0.255286
     31          6           0       -2.747171   -1.142847    0.423207
     32          6           0       -1.484536   -1.880776   -0.023111
     33          6           0       -1.284128   -3.206868    0.711131
     34          1           0       -2.693095   -0.959393    1.505249
     35          1           0       -3.619698   -1.789942    0.259168
     36          1           0       -0.614933   -1.231776    0.141831
     37          1           0       -1.540347   -2.061560   -1.104229
     38          1           0       -2.133221   -3.875717    0.537113
     39          1           0       -1.202550   -3.041220    1.790254
     40          1           0       -0.375783   -3.717664    0.376680
 ---------------------------------------------------------------------

 SCF Done:  E(RHF) =  -470.733144156     A.U. after   11 cycles
 E2 =    -0.1583722821D+01 EUMP2 =    -0.47231686697669D+03

 The electronic state is 1-A.
 Alpha  occ. eigenvalues --  -11.21636 -11.21619 -11.21616 -11.21602 -11.21429
 Alpha  occ. eigenvalues --  -11.21411 -11.21369 -11.21345 -11.21114 -11.21096
 Alpha  occ. eigenvalues --  -11.21078 -11.21058  -1.08469  -1.08430  -1.03575
 Alpha  occ. eigenvalues --   -1.03524  -0.96017  -0.95979  -0.87050  -0.86978
 Alpha  occ. eigenvalues --   -0.79650  -0.79581  -0.78359  -0.78165  -0.65206
 Alpha  occ. eigenvalues --   -0.64974  -0.61050  -0.60870  -0.59432  -0.59298
 Alpha  occ. eigenvalues --   -0.57677  -0.57545  -0.55295  -0.55285  -0.52729
 Alpha  occ. eigenvalues --   -0.52682  -0.52522  -0.52307  -0.50019  -0.49869
 Alpha  occ. eigenvalues --   -0.47967  -0.47893  -0.46827  -0.46566  -0.46114
 Alpha  occ. eigenvalues --   -0.45767  -0.45748  -0.45251  -0.43808  -0.43793
 Alpha virt. eigenvalues --    0.20313   0.22567   0.23449   0.24599   0.25179
 Alpha virt. eigenvalues --    0.26432   0.27031   0.27073   0.28582   0.29680
 Alpha virt. eigenvalues --    0.30356   0.30778   0.31642   0.31718   0.31948

 Mulliken charges:
               1
     1  C   -0.307560
     2  C   -0.298783
     3  C   -0.481495
     4  H    0.158265
     5  H    0.149740
     6  H    0.151648
     7  H    0.152005
     8  H    0.155293
     9  H    0.160609
    10  H    0.160207
    11  C   -0.297640
    12  C   -0.299876
    13  C   -0.475729
    14  H    0.149221
    15  H    0.149876
    16  H    0.150932
    17  H    0.152431
    18  H    0.155435
    19  H    0.155122
    20  H    0.160302
    21  C   -0.298730
    22  C   -0.299689
    23  C   -0.475724
    24  H    0.149603
    25  H    0.149916
    26  H    0.151835
    27  H    0.152054
    28  H    0.155280
    29  H    0.155284
    30  H    0.160273
    31  C   -0.297592
    32  C   -0.308520
    33  C   -0.479614
    34  H    0.149159
    35  H    0.149911
    36  H    0.159447
    37  H    0.152736
    38  H    0.155870
    39  H    0.154947
    40  H    0.163547
 Sum of Mulliken charges =  -0.00000

 Dipole moment (field-independent basis, Debye):
    X=             -0.0090    Y=             -0.0048    Z=             -0.0153  Tot=              0.0184
 Quadrupole moment (field-independent basis, Debye-Ang):
   XX=            -84.2874   YY=            -86.5097   ZZ=            -83.9153
   XY=              0.4691   XZ=             -0.2844   YZ=              0.2334

 Normal termination of Gaussian 16 at Thu May  6 02:11:03 2021.
