 Gaussian 16, Revision A.03,
 Gaussian 16:  EM64L-G16RevA.03 25-Dec-2016

 -------------
 #p 6-31g* mp2
 -------------

 ------------------------------------------------------
 Input file generated by CHIRIPA (05-May-2021 14:55:22)
 ------------------------------------------------------
 Symbolic Z-matrix:
 Charge =  0 Multiplicity = 1

                         Standard orientation:
 ---------------------------------------------------------------------
 Center     Atomic      Atomic             Coordinates (Angstroms)
 Number     Number       Type             X           Y           Z
 ---------------------------------------------------------------------
      1          6           0       -4.387061   -2.220872    0.164082
      2          6           0       -5.137607   -1.184935    0.729800
      3          6           0       -4.695360    0.138802    0.648048
      4          6           0       -3.492581    0.391790   -0.009683
      5          6           0       -2.722334   -0.618591   -0.583390
      6          6           0       -3.183941   -1.934898   -0.489555
      7          1           0       -4.738129   -3.246297    0.232282
      8          1           0       -6.072344   -1.404073    1.238024
      9          1           0       -5.256590    0.959979    1.077125
     10          1           0       -1.794518   -0.369021   -1.083681
     11          1           0       -2.598979   -2.737408   -0.929830
     12          7           0       -3.014146    1.789238   -0.102626
     13          8           0       -1.951139    1.985844   -0.687434
     14          8           0       -3.711214    2.661491    0.411093
     15          6           0        3.925906   -0.584091    0.148642
     16          6           0        2.726317   -0.094894   -0.663551
     17          6           0        1.442293   -0.859595   -0.340582
     18          1           0        4.077560   -1.655318   -0.042202
     19          1           0        3.699315   -0.486370    1.219391
     20          1           0        2.955636   -0.192217   -1.732455
     21          1           0        2.577619    0.975334   -0.470898
     22          1           0        1.186326   -0.752756    0.718506
     23          1           0        1.566491   -1.926941   -0.550218
     24          1           0        0.597462   -0.493678   -0.932380
     25          6           0        5.216962    0.170720   -0.163067
     26          6           0        6.416551   -0.318477    0.649126
     27          6           0        7.700575    0.446222    0.326156
     28          1           0        5.443553    0.072999   -1.233816
     29          1           0        5.065308    1.241945    0.027777
     30          1           0        6.565249   -1.388706    0.456473
     31          1           0        6.187231   -0.221155    1.718030
     32          1           0        7.576376    1.513570    0.535793
     33          1           0        7.956542    0.339384   -0.732932
     34          1           0        8.545406    0.080306    0.917954
 ---------------------------------------------------------------------

 SCF Done:  E(RHF) =  -669.535546013     A.U. after   15 cycles
 E2 =    -0.2090919803D+01 EUMP2 =    -0.67162646581616D+03

 The electronic state is 1-A.
 Alpha  occ. eigenvalues --  -20.60754 -20.60749 -15.85804 -11.31149 -11.27726
 Alpha  occ. eigenvalues --  -11.27701 -11.27468 -11.26741 -11.26722 -11.21509
 Alpha  occ. eigenvalues --  -11.21503 -11.21318 -11.21245 -11.21233 -11.20968
 Alpha  occ. eigenvalues --   -1.59828  -1.39382  -1.19325  -1.08726  -1.08345
 Alpha  occ. eigenvalues --   -1.04726  -1.03474  -0.95955  -0.95561  -0.86983
 Alpha  occ. eigenvalues --   -0.86125  -0.82394  -0.79539  -0.78147  -0.77444
 Alpha  occ. eigenvalues --   -0.72026  -0.71149  -0.70447  -0.64980  -0.64968
 Alpha  occ. eigenvalues --   -0.64742  -0.62114  -0.60863  -0.59309  -0.57549
 Alpha  occ. eigenvalues --   -0.55247  -0.55227  -0.53074  -0.52967  -0.52516
 Alpha  occ. eigenvalues --   -0.52348  -0.49885  -0.48782  -0.48780  -0.47854
 Alpha  occ. eigenvalues --   -0.46547  -0.45697  -0.45608  -0.44791  -0.43735
 Alpha  occ. eigenvalues --   -0.37310  -0.36322
 Alpha virt. eigenvalues --    0.05079   0.11309   0.16582   0.20761   0.22974
 Alpha virt. eigenvalues --    0.24046   0.26124   0.26756   0.27563   0.27881
 Alpha virt. eigenvalues --    0.28862   0.30256   0.31475   0.31568   0.32047

 Mulliken charges:
               1
     1  C   -0.170678
     2  C   -0.218883
     3  C   -0.170432
     4  C    0.157282
     5  C   -0.174540
     6  C   -0.221242
     7  H    0.225468
     8  H    0.223257
     9  H    0.275431
    10  H    0.284476
    11  H    0.224035
    12  N    0.487251
    13  O   -0.461489
    14  O   -0.460424
    15  C   -0.299052
    16  C   -0.298782
    17  C   -0.480507
    18  H    0.147438
    19  H    0.150015
    20  H    0.151503
    21  H    0.160581
    22  H    0.158236
    23  H    0.150035
    24  H    0.159675
    25  C   -0.298573
    26  C   -0.299582
    27  C   -0.475747
    28  H    0.149394
    29  H    0.151979
    30  H    0.150860
    31  H    0.152049
    32  H    0.156125
    33  H    0.155039
    34  H    0.159801
 Sum of Mulliken charges =  -0.00000

 Dipole moment (field-independent basis, Debye):
    X=             -1.6370    Y=             -4.8575    Z=              0.3488  Tot=              5.1377
 Quadrupole moment (field-independent basis, Debye-Ang):
   XX=            -80.9186   YY=            -98.5655   ZZ=            -93.6912
   XY=             15.0069   XZ=             -3.5944   YZ=              1.6184

 Normal termination of Gaussian 16 at Wed May  5 20:40:51 2021.
