 Gaussian 16, Revision A.03,
 Gaussian 16:  EM64L-G16RevA.03 25-Dec-2016

 -------------
 #p 6-31g* mp2
 -------------

 ------------------------------------------------------
 Input file generated by CHIRIPA (05-May-2021 14:51:11)
 ------------------------------------------------------
 Symbolic Z-matrix:
 Charge =  0 Multiplicity = 1

                         Standard orientation:
 ---------------------------------------------------------------------
 Center     Atomic      Atomic             Coordinates (Angstroms)
 Number     Number       Type             X           Y           Z
 ---------------------------------------------------------------------
      1          6           0        3.345499   -0.388019   -0.519014
      2          6           0        3.529786   -1.847396   -0.101590
      3          6           0        2.584686   -2.796892   -0.838500
      4          1           0        2.304809   -0.088848   -0.333521
      5          1           0        3.507538   -0.300508   -1.602287
      6          1           0        3.368807   -1.931891    0.980797
      7          1           0        4.570207   -2.143069   -0.287919
      8          1           0        2.749258   -2.742097   -1.919479
      9          1           0        1.541032   -2.529719   -0.643554
     10          1           0        2.733442   -3.834855   -0.524867
     11          6           0        4.283292    0.573371    0.208998
     12          6           0        4.099005    2.032747   -0.208426
     13          6           0        5.044105    2.982244    0.528484
     14          1           0        4.121253    0.485860    1.292271
     15          1           0        5.323982    0.274200    0.023506
     16          1           0        3.058584    2.328421   -0.022096
     17          1           0        4.259984    2.117243   -1.290813
     18          1           0        6.087759    2.715070    0.333538
     19          1           0        4.879533    2.927449    1.609463
     20          1           0        4.895349    4.020206    0.214852
     21          6           0       -4.137446    0.458848   -0.263194
     22          6           0       -5.582548    0.756490    0.138142
     23          6           0       -6.215196    1.862081   -0.707564
     24          1           0       -3.541914    1.377630   -0.173053
     25          1           0       -4.110445    0.171622   -1.323461
     26          1           0       -5.606991    1.041729    1.197698
     27          1           0       -6.174669   -0.163153    0.047219
     28          1           0       -6.220173    1.582348   -1.766019
     29          1           0       -5.649271    2.794076   -0.609003
     30          1           0       -7.248113    2.058633   -0.403741
     31          6           0       -3.491346   -0.644199    0.573209
     32          6           0       -2.046242   -0.941842    0.171873
     33          6           0       -1.413595   -2.047433    1.017580
     34          1           0       -3.518346   -0.356974    1.633478
     35          1           0       -4.086877   -1.562981    0.483068
     36          1           0       -1.454123   -0.022199    0.262797
     37          1           0       -2.021801   -1.227080   -0.887682
     38          1           0       -1.979521   -2.979427    0.919018
     39          1           0       -1.408618   -1.767700    2.076034
     40          1           0       -0.380677   -2.243985    0.713757
 ---------------------------------------------------------------------

 SCF Done:  E(RHF) =  -470.733353923     A.U. after   11 cycles
 E2 =    -0.1582389333D+01 EUMP2 =    -0.47231574325567D+03

 The electronic state is 1-A.
 Alpha  occ. eigenvalues --  -11.21638 -11.21613 -11.21605 -11.21604 -11.21425
 Alpha  occ. eigenvalues --  -11.21406 -11.21365 -11.21347 -11.21095 -11.21079
 Alpha  occ. eigenvalues --  -11.21074 -11.21071  -1.08452  -1.08432  -1.03563
 Alpha  occ. eigenvalues --   -1.03525  -0.96024  -0.95963  -0.87050  -0.86970
 Alpha  occ. eigenvalues --   -0.79628  -0.79581  -0.78263  -0.78243  -0.65082
 Alpha  occ. eigenvalues --   -0.65067  -0.60974  -0.60946  -0.59409  -0.59320
 Alpha  occ. eigenvalues --   -0.57695  -0.57526  -0.55301  -0.55265  -0.52757
 Alpha  occ. eigenvalues --   -0.52672  -0.52482  -0.52305  -0.49942  -0.49907
 Alpha  occ. eigenvalues --   -0.47989  -0.47848  -0.46650  -0.46616  -0.45807
 Alpha  occ. eigenvalues --   -0.45783  -0.45733  -0.45701  -0.43790  -0.43784
 Alpha virt. eigenvalues --    0.20912   0.23068   0.23517   0.24981   0.26295
 Alpha virt. eigenvalues --    0.26591   0.27181   0.27359   0.27882   0.28825
 Alpha virt. eigenvalues --    0.30377   0.31371   0.31690   0.31798   0.31989

 Mulliken charges:
               1
     1  C   -0.298652
     2  C   -0.299562
     3  C   -0.482554
     4  H    0.149789
     5  H    0.149620
     6  H    0.152121
     7  H    0.152105
     8  H    0.155498
     9  H    0.161108
    10  H    0.160570
    11  C   -0.298338
    12  C   -0.299613
    13  C   -0.475714
    14  H    0.149579
    15  H    0.149689
    16  H    0.151824
    17  H    0.151982
    18  H    0.155213
    19  H    0.155157
    20  H    0.160236
    21  C   -0.298305
    22  C   -0.299686
    23  C   -0.475722
    24  H    0.149603
    25  H    0.149694
    26  H    0.151912
    27  H    0.152004
    28  H    0.155248
    29  H    0.155183
    30  H    0.160295
    31  C   -0.298293
    32  C   -0.299525
    33  C   -0.483245
    34  H    0.149545
    35  H    0.149876
    36  H    0.151313
    37  H    0.152454
    38  H    0.155834
    39  H    0.155241
    40  H    0.166516
 Sum of Mulliken charges =  -0.00000

 Dipole moment (field-independent basis, Debye):
    X=             -0.0051    Y=             -0.0056    Z=             -0.0052  Tot=              0.0092
 Quadrupole moment (field-independent basis, Debye-Ang):
   XX=            -84.8790   YY=            -85.5419   ZZ=            -84.2647
   XY=              0.1239   XZ=             -0.8832   YZ=              0.6218

 Normal termination of Gaussian 16 at Thu May  6 03:52:33 2021.
