 Gaussian 16, Revision A.03,
 Gaussian 16:  EM64L-G16RevA.03 25-Dec-2016

 -------------
 #p 6-31g* mp2
 -------------

 ------------------------------------------------------
 Input file generated by CHIRIPA (05-May-2021 14:55:19)
 ------------------------------------------------------
 Symbolic Z-matrix:
 Charge =  0 Multiplicity = 1

                         Standard orientation:
 ---------------------------------------------------------------------
 Center     Atomic      Atomic             Coordinates (Angstroms)
 Number     Number       Type             X           Y           Z
 ---------------------------------------------------------------------
      1          6           0        2.966769   -2.368208    0.396462
      2          6           0        3.418428   -1.715820   -0.755456
      3          6           0        3.327938   -0.325041   -0.865424
      4          6           0        2.777870    0.385367    0.200426
      5          6           0        2.319145   -0.235734    1.361071
      6          6           0        2.419534   -1.627390    1.449193
      7          1           0        3.040909   -3.448939    0.473403
      8          1           0        3.843867   -2.288588   -1.574591
      9          1           0        3.669898    0.205509   -1.745764
     10          1           0        1.899768    0.362215    2.161070
     11          1           0        2.067963   -2.131371    2.344986
     12          7           0        2.676832    1.858186    0.095572
     13          8           0        2.188236    2.461274    1.048565
     14          8           0        3.088148    2.381606   -0.937621
     15          6           0       -4.268670    0.104206   -0.429565
     16          6           0       -5.272313   -0.104485    0.704954
     17          6           0       -6.651457    0.474654    0.388160
     18          1           0       -4.177686    1.179218   -0.636965
     19          1           0       -4.660173   -0.358876   -1.345903
     20          1           0       -4.878402    0.357654    1.619217
     21          1           0       -5.360776   -1.179113    0.909806
     22          1           0       -7.069136    0.006335   -0.508959
     23          1           0       -6.584021    1.551833    0.204483
     24          1           0       -7.353228    0.314355    1.212588
     25          6           0       -2.885306   -0.469334   -0.127767
     26          6           0       -1.881662   -0.260644   -1.262285
     27          6           0       -0.502520   -0.839782   -0.945492
     28          1           0       -2.493804   -0.006253    0.788572
     29          1           0       -2.976291   -1.544348    0.079633
     30          1           0       -1.793201    0.813984   -1.467138
     31          1           0       -2.275574   -0.722782   -2.176549
     32          1           0       -0.569955   -1.916962   -0.761814
     33          1           0       -0.084841   -0.371464   -0.048372
     34          1           0        0.199251   -0.679483   -1.769920
 ---------------------------------------------------------------------

 SCF Done:  E(RHF) =  -669.533779784     A.U. after   15 cycles
 E2 =    -0.2093832428D+01 EUMP2 =    -0.67162761221160D+03

 The electronic state is 1-A.
 Alpha  occ. eigenvalues --  -20.60779 -20.60774 -15.85829 -11.31144 -11.27748
 Alpha  occ. eigenvalues --  -11.27720 -11.27513 -11.26792 -11.26767 -11.21550
 Alpha  occ. eigenvalues --  -11.21459 -11.21341 -11.21273 -11.21006 -11.20911
 Alpha  occ. eigenvalues --   -1.59855  -1.39410  -1.19368  -1.08758  -1.08352
 Alpha  occ. eigenvalues --   -1.04778  -1.03447  -0.95915  -0.95591  -0.86932
 Alpha  occ. eigenvalues --   -0.86172  -0.82433  -0.79523  -0.78174  -0.77478
 Alpha  occ. eigenvalues --   -0.72053  -0.71182  -0.70484  -0.65021  -0.64984
 Alpha  occ. eigenvalues --   -0.64779  -0.62124  -0.60866  -0.59288  -0.57535
 Alpha  occ. eigenvalues --   -0.55321  -0.55268  -0.53519  -0.52867  -0.52479
 Alpha  occ. eigenvalues --   -0.52008  -0.49806  -0.48810  -0.48806  -0.47822
 Alpha  occ. eigenvalues --   -0.46546  -0.45705  -0.45638  -0.44816  -0.43698
 Alpha  occ. eigenvalues --   -0.37285  -0.36289
 Alpha virt. eigenvalues --    0.05024   0.11188   0.16521   0.21394   0.22932
 Alpha virt. eigenvalues --    0.24337   0.26712   0.27252   0.27636   0.27937
 Alpha virt. eigenvalues --    0.28321   0.30928   0.31519   0.31843   0.31972

 Mulliken charges:
               1
     1  C   -0.170214
     2  C   -0.216475
     3  C   -0.172007
     4  C    0.166996
     5  C   -0.179170
     6  C   -0.212456
     7  H    0.225600
     8  H    0.223494
     9  H    0.275349
    10  H    0.275024
    11  H    0.223569
    12  N    0.487842
    13  O   -0.461351
    14  O   -0.460675
    15  C   -0.298415
    16  C   -0.299586
    17  C   -0.475742
    18  H    0.152271
    19  H    0.148945
    20  H    0.152224
    21  H    0.150217
    22  H    0.154801
    23  H    0.156458
    24  H    0.159770
    25  C   -0.297979
    26  C   -0.300360
    27  C   -0.476486
    28  H    0.149464
    29  H    0.146346
    30  H    0.156279
    31  H    0.149942
    32  H    0.149156
    33  H    0.158109
    34  H    0.159060
 Sum of Mulliken charges =  -0.00000

 Dipole moment (field-independent basis, Debye):
    X=              0.4484    Y=             -5.1753    Z=              0.3777  Tot=              5.2084
 Quadrupole moment (field-independent basis, Debye-Ang):
   XX=            -93.7242   YY=            -98.7716   ZZ=            -90.5068
   XY=            -14.2460   XZ=             -1.0922   YZ=             -0.4066

 Normal termination of Gaussian 16 at Thu May  6 17:22:34 2021.
