 Gaussian 16, Revision A.03,
 Gaussian 16:  EM64L-G16RevA.03 25-Dec-2016

 -------------
 #p 6-31g* mp2
 -------------

 ------------------------------------------------------
 Input file generated by CHIRIPA (05-May-2021 14:57:25)
 ------------------------------------------------------
 Symbolic Z-matrix:
 Charge =  0 Multiplicity = 1

                         Standard orientation:
 ---------------------------------------------------------------------
 Center     Atomic      Atomic             Coordinates (Angstroms)
 Number     Number       Type             X           Y           Z
 ---------------------------------------------------------------------
      1          6           0        4.951490    1.563160   -0.738997
      2          6           0        5.335656    0.271822   -0.362986
      3          6           0        4.381090   -0.658306    0.059166
      4          6           0        3.045166   -0.261530    0.093303
      5          6           0        2.631057    1.017587   -0.275023
      6          6           0        3.602795    1.931272   -0.693895
      7          1           0        5.699690    2.279319   -1.065661
      8          1           0        6.382348   -0.016834   -0.397014
      9          1           0        4.650832   -1.664612    0.355823
     10          1           0        1.580046    1.276080   -0.230578
     11          1           0        3.301546    2.933450   -0.985328
     12          7           0        2.025520   -1.237511    0.538481
     13          8           0        0.855000   -0.863252    0.559671
     14          8           0        2.416149   -2.358264    0.857790
     15          6           0       -3.318984    2.486701    0.793470
     16          6           0       -3.917415    2.133834   -0.420567
     17          6           0       -3.865032    0.814836   -0.881055
     18          6           0       -3.202991   -0.129996   -0.098570
     19          6           0       -2.597039    0.190492    1.115267
     20          6           0       -2.661863    1.515615    1.556168
     21          1           0       -3.364509    3.513709    1.143580
     22          1           0       -4.428422    2.885893   -1.014977
     23          1           0       -4.319742    0.514233   -1.817161
     24          1           0       -2.094792   -0.581306    1.685789
     25          1           0       -2.196215    1.786781    2.499399
     26          7           0       -3.140949   -1.529602   -0.575700
     27          8           0       -2.551654   -2.343337    0.132259
     28          8           0       -3.682791   -1.786378   -1.648598
 ---------------------------------------------------------------------

 SCF Done:  E(RHF) =  -868.337315691     A.U. after   16 cycles
 E2 =    -0.2599948885D+01 EUMP2 =    -0.87093726457621D+03

 The electronic state is 1-A.
 Alpha  occ. eigenvalues --  -20.60762 -20.60725 -20.59758 -20.59656 -15.85808
 Alpha  occ. eigenvalues --  -15.84766 -11.31239 -11.30309 -11.27835 -11.27798
 Alpha  occ. eigenvalues --  -11.27573 -11.27019 -11.26864 -11.26833 -11.26830
 Alpha  occ. eigenvalues --  -11.26819 -11.26082 -11.25986  -1.59809  -1.58781
 Alpha  occ. eigenvalues --   -1.39367  -1.38323  -1.19418  -1.18547  -1.08798
 Alpha  occ. eigenvalues --   -1.07927  -1.04834  -1.03975  -0.95622  -0.94713
 Alpha  occ. eigenvalues --   -0.86228  -0.85368  -0.82459  -0.81542  -0.77497
 Alpha  occ. eigenvalues --   -0.76525  -0.72034  -0.71138  -0.70989  -0.70528
 Alpha  occ. eigenvalues --   -0.70096  -0.69671  -0.65074  -0.64838  -0.64202
 Alpha  occ. eigenvalues --   -0.63998  -0.62182  -0.61293  -0.55330  -0.54533
 Alpha  occ. eigenvalues --   -0.53157  -0.52929  -0.52314  -0.52071  -0.48768
 Alpha  occ. eigenvalues --   -0.48758  -0.47783  -0.47709  -0.44763  -0.43679
 Alpha  occ. eigenvalues --   -0.37402  -0.36590  -0.36441  -0.35578
 Alpha virt. eigenvalues --    0.05042   0.06009   0.11212   0.12059   0.16514
 Alpha virt. eigenvalues --    0.17420   0.21330   0.22106   0.27230   0.27962
 Alpha virt. eigenvalues --    0.28258   0.29080   0.30877   0.31596   0.32443

 Mulliken charges:
               1
     1  C   -0.170933
     2  C   -0.218451
     3  C   -0.170581
     4  C    0.158741
     5  C   -0.171784
     6  C   -0.218467
     7  H    0.225412
     8  H    0.223908
     9  H    0.276764
    10  H    0.274016
    11  H    0.222049
    12  N    0.490473
    13  O   -0.464838
    14  O   -0.455525
    15  C   -0.173138
    16  C   -0.220713
    17  C   -0.172320
    18  C    0.155967
    19  C   -0.159947
    20  C   -0.223641
    21  H    0.220608
    22  H    0.218982
    23  H    0.273106
    24  H    0.288139
    25  H    0.220885
    26  N    0.487881
    27  O   -0.448577
    28  O   -0.468015
 Sum of Mulliken charges =  -0.00000

 Dipole moment (field-independent basis, Debye):
    X=              3.6505    Y=              8.0237    Z=              0.2382  Tot=              8.8183
 Quadrupole moment (field-independent basis, Debye-Ang):
   XX=            -79.4367   YY=           -106.4541   ZZ=           -103.2804
   XY=             -9.3146   XZ=             -7.2966   YZ=             -2.0180

 Normal termination of Gaussian 16 at Thu May  6 22:53:21 2021.
