 Gaussian 16, Revision A.03,
 Gaussian 16:  EM64L-G16RevA.03 25-Dec-2016

 -------------
 #p 6-31g* mp2
 -------------

 ------------------------------------------------------
 Input file generated by CHIRIPA (05-May-2021 14:51:11)
 ------------------------------------------------------
 Symbolic Z-matrix:
 Charge =  0 Multiplicity = 1

                         Standard orientation:
 ---------------------------------------------------------------------
 Center     Atomic      Atomic             Coordinates (Angstroms)
 Number     Number       Type             X           Y           Z
 ---------------------------------------------------------------------
      1          6           0       -2.569233   -0.214787    0.263469
      2          6           0       -3.622130    0.375562   -0.675084
      3          6           0       -4.075273    1.772887   -0.250894
      4          1           0       -2.976570   -0.253624    1.283035
      5          1           0       -1.701279    0.458104    0.299064
      6          1           0       -4.487266   -0.298929   -0.709972
      7          1           0       -3.212308    0.412820   -1.692568
      8          1           0       -3.226749    2.464498   -0.234116
      9          1           0       -4.508951    1.748705    0.754063
     10          1           0       -4.827983    2.175941   -0.935610
     11          6           0       -2.106246   -1.611402   -0.147431
     12          6           0       -1.053349   -2.201751    0.791121
     13          6           0       -0.600206   -3.599076    0.366932
     14          1           0       -2.974200   -2.284293   -0.183027
     15          1           0       -1.698909   -1.572565   -1.166997
     16          1           0       -1.463171   -2.239009    1.808606
     17          1           0       -0.188213   -1.527260    0.826010
     18          1           0       -0.166528   -3.574894   -0.638025
     19          1           0       -1.448730   -4.290687    0.350154
     20          1           0        0.152504   -4.002130    1.051648
     21          6           0        2.907640    0.425925    0.087968
     22          6           0        2.783986   -0.896469   -0.669638
     23          6           0        3.931486   -1.860596   -0.367154
     24          1           0        3.864550    0.900413   -0.169190
     25          1           0        2.940537    0.220641    1.166935
     26          1           0        2.749939   -0.688654   -1.746796
     27          1           0        1.827173   -1.367771   -0.410793
     28          1           0        3.964477   -2.097050    0.701303
     29          1           0        4.892486   -1.414074   -0.642291
     30          1           0        3.823150   -2.799409   -0.919199
     31          6           0        1.767839    1.400263   -0.204007
     32          6           0        1.891494    2.722658    0.553600
     33          6           0        0.743992    3.686785    0.251117
     34          1           0        1.734942    1.605548   -1.282974
     35          1           0        0.810930    0.925776    0.053152
     36          1           0        2.848305    3.193959    0.294755
     37          1           0        1.925540    2.514842    1.630759
     38          1           0       -0.217007    3.240263    0.526253
     39          1           0        0.711002    3.923238   -0.817342
     40          1           0        0.852329    4.625598    0.803161
 ---------------------------------------------------------------------

 SCF Done:  E(RHF) =  -470.732958091     A.U. after   11 cycles
 E2 =    -0.1584817769D+01 EUMP2 =    -0.47231777586056D+03

 The electronic state is 1-A.
 Alpha  occ. eigenvalues --  -11.21648 -11.21642 -11.21611 -11.21604 -11.21454
 Alpha  occ. eigenvalues --  -11.21436 -11.21391 -11.21376 -11.21127 -11.21112
 Alpha  occ. eigenvalues --  -11.21078 -11.21073  -1.08513  -1.08430  -1.03600
 Alpha  occ. eigenvalues --   -1.03526  -0.96033  -0.95990  -0.87042  -0.87012
 Alpha  occ. eigenvalues --   -0.79683  -0.79576  -0.78423  -0.78166  -0.65420
 Alpha  occ. eigenvalues --   -0.64817  -0.61224  -0.60730  -0.59409  -0.59335
 Alpha  occ. eigenvalues --   -0.57665  -0.57585  -0.55415  -0.55185  -0.52716
 Alpha  occ. eigenvalues --   -0.52688  -0.52477  -0.52393  -0.50023  -0.49880
 Alpha  occ. eigenvalues --   -0.48094  -0.47834  -0.46856  -0.46564  -0.46329
 Alpha  occ. eigenvalues --   -0.45798  -0.45777  -0.45059  -0.43824  -0.43803
 Alpha virt. eigenvalues --    0.19365   0.21444   0.23597   0.24831   0.25586
 Alpha virt. eigenvalues --    0.26044   0.26872   0.27336   0.28477   0.29943
 Alpha virt. eigenvalues --    0.31045   0.31334   0.31743   0.32006   0.32232

 Mulliken charges:
               1
     1  C   -0.305692
     2  C   -0.299188
     3  C   -0.477384
     4  H    0.149659
     5  H    0.155291
     6  H    0.152018
     7  H    0.152394
     8  H    0.156733
     9  H    0.155076
    10  H    0.160514
    11  C   -0.297899
    12  C   -0.307287
    13  C   -0.476533
    14  H    0.149990
    15  H    0.150299
    16  H    0.152501
    17  H    0.156839
    18  H    0.156125
    19  H    0.155673
    20  H    0.160490
    21  C   -0.297422
    22  C   -0.308636
    23  C   -0.475040
    24  H    0.150083
    25  H    0.149507
    26  H    0.151622
    27  H    0.160764
    28  H    0.155124
    29  H    0.155125
    30  H    0.160471
    31  C   -0.307995
    32  C   -0.299088
    33  C   -0.478405
    34  H    0.149559
    35  H    0.157252
    36  H    0.152375
    37  H    0.152280
    38  H    0.156599
    39  H    0.155293
    40  H    0.160915
 Sum of Mulliken charges =  -0.00000

 Dipole moment (field-independent basis, Debye):
    X=             -0.0023    Y=             -0.0074    Z=             -0.0035  Tot=              0.0085
 Quadrupole moment (field-independent basis, Debye-Ang):
   XX=            -84.6913   YY=            -86.0507   ZZ=            -83.8915
   XY=              1.5934   XZ=             -0.8170   YZ=             -0.6197

 Normal termination of Gaussian 16 at Wed May  5 23:05:40 2021.
