 Gaussian 16, Revision A.03,
 Gaussian 16:  EM64L-G16RevA.03 25-Dec-2016

 -------------
 #p 6-31g* mp2
 -------------

 ------------------------------------------------------
 Input file generated by CHIRIPA (05-May-2021 14:53:17)
 ------------------------------------------------------
 Symbolic Z-matrix:
 Charge =  0 Multiplicity = 1

                         Standard orientation:
 ---------------------------------------------------------------------
 Center     Atomic      Atomic             Coordinates (Angstroms)
 Number     Number       Type             X           Y           Z
 ---------------------------------------------------------------------
      1          6           0        3.745185   -0.530960    0.329333
      2          6           0        4.088692   -1.864256   -0.335730
      3          6           0        4.230822   -3.007198    0.669894
      4          1           0        4.525359   -0.282018    1.061658
      5          1           0        2.809544   -0.641538    0.894792
      6          1           0        5.022680   -1.750819   -0.900898
      7          1           0        3.307707   -2.109960   -1.066694
      8          1           0        3.298545   -3.149146    1.226051
      9          1           0        5.023261   -2.787965    1.392789
     10          1           0        4.476488   -3.950913    0.172994
     11          6           0        3.599812    0.621345   -0.663032
     12          6           0        3.256304    1.954641    0.002031
     13          6           0        3.114175    3.097582   -1.003593
     14          1           0        4.535453    0.731922   -1.228491
     15          1           0        2.819637    0.372403   -1.395357
     16          1           0        4.037289    2.200344    0.732995
     17          1           0        2.322317    1.841203    0.567199
     18          1           0        2.321735    2.878350   -1.726488
     19          1           0        4.046451    3.239531   -1.559750
     20          1           0        2.868508    4.041298   -0.506693
     21          6           0       -0.625870    0.599100    1.095334
     22          6           0       -1.802452    1.031372    1.716072
     23          6           0       -3.050906    0.685885    1.190193
     24          6           0       -3.086011   -0.096638    0.037060
     25          6           0       -1.931498   -0.542734   -0.604338
     26          6           0       -0.694028   -0.185190   -0.060852
     27          1           0        0.339694    0.872166    1.510688
     28          1           0       -1.752553    1.640565    2.614092
     29          1           0       -3.977436    1.006937    1.650504
     30          1           0       -2.013209   -1.148920   -1.498362
     31          1           0        0.218080   -0.522324   -0.545047
     32          7           0       -4.401879   -0.468772   -0.528984
     33          8           0       -4.405815   -1.159094   -1.545880
     34          8           0       -5.404404   -0.063082    0.054964
 ---------------------------------------------------------------------

 SCF Done:  E(RHF) =  -669.535304838     A.U. after   15 cycles
 E2 =    -0.2092307638D+01 EUMP2 =    -0.67162761247590D+03

 The electronic state is 1-A.
 Alpha  occ. eigenvalues --  -20.60764 -20.60759 -15.85818 -11.31191 -11.27760
 Alpha  occ. eigenvalues --  -11.27755 -11.27479 -11.26774 -11.26763 -11.22745
 Alpha  occ. eigenvalues --  -11.22550 -11.22505 -11.22462 -11.21925 -11.21810
 Alpha  occ. eigenvalues --   -1.59840  -1.39393  -1.19362  -1.09505  -1.08753
 Alpha  occ. eigenvalues --   -1.04766  -1.04484  -0.96909  -0.95591  -0.87918
 Alpha  occ. eigenvalues --   -0.86163  -0.82427  -0.80563  -0.79325  -0.77470
 Alpha  occ. eigenvalues --   -0.72036  -0.71163  -0.70503  -0.66219  -0.65009
 Alpha  occ. eigenvalues --   -0.64708  -0.62107  -0.61889  -0.60279  -0.58525
 Alpha  occ. eigenvalues --   -0.56203  -0.55294  -0.53561  -0.53321  -0.53091
 Alpha  occ. eigenvalues --   -0.52850  -0.50850  -0.48864  -0.48791  -0.48790
 Alpha  occ. eigenvalues --   -0.47607  -0.46827  -0.46792  -0.44797  -0.44767
 Alpha  occ. eigenvalues --   -0.37334  -0.36370
 Alpha virt. eigenvalues --    0.05047   0.11240   0.16484   0.17638   0.22507
 Alpha virt. eigenvalues --    0.23570   0.24533   0.25056   0.26867   0.28351
 Alpha virt. eigenvalues --    0.29670   0.30830   0.31040   0.31233   0.32023

 Mulliken charges:
               1
     1  C   -0.301163
     2  C   -0.299995
     3  C   -0.476403
     4  H    0.154273
     5  H    0.141459
     6  H    0.156029
     7  H    0.149469
     8  H    0.155273
     9  H    0.157052
    10  H    0.163868
    11  C   -0.300857
    12  C   -0.303147
    13  C   -0.475884
    14  H    0.155870
    15  H    0.146508
    16  H    0.155878
    17  H    0.143277
    18  H    0.157456
    19  H    0.158734
    20  H    0.162557
    21  C   -0.176005
    22  C   -0.219107
    23  C   -0.170791
    24  C    0.158718
    25  C   -0.171201
    26  C   -0.224097
    27  H    0.232348
    28  H    0.223845
    29  H    0.275616
    30  H    0.275726
    31  H    0.227467
    32  N    0.488013
    33  O   -0.460430
    34  O   -0.460358
 Sum of Mulliken charges =  -0.00000

 Dipole moment (field-independent basis, Debye):
    X=              4.8700    Y=              1.3289    Z=              1.9491  Tot=              5.4112
 Quadrupole moment (field-independent basis, Debye-Ang):
   XX=           -120.6882   YY=            -94.7249   ZZ=            -92.5772
   XY=             -5.5228   XZ=             -8.1249   YZ=              2.4929

 Normal termination of Gaussian 16 at Wed May  5 15:45:04 2021.
