 Gaussian 16, Revision A.03,
 Gaussian 16:  EM64L-G16RevA.03 25-Dec-2016

 -------------
 #p 6-31g* mp2
 -------------

 ------------------------------------------------------
 Input file generated by CHIRIPA (05-May-2021 14:53:15)
 ------------------------------------------------------
 Symbolic Z-matrix:
 Charge =  0 Multiplicity = 1

                         Standard orientation:
 ---------------------------------------------------------------------
 Center     Atomic      Atomic             Coordinates (Angstroms)
 Number     Number       Type             X           Y           Z
 ---------------------------------------------------------------------
      1          6           0       -3.654904    0.463203   -0.521624
      2          6           0       -3.477124    1.970610   -0.336955
      3          6           0       -2.378156    2.549840   -1.228334
      4          1           0       -2.702746   -0.040925   -0.306695
      5          1           0       -3.888077    0.254864   -1.575010
      6          1           0       -3.245720    2.176170    0.716047
      7          1           0       -4.429868    2.471191   -0.552163
      8          1           0       -2.606151    2.373858   -2.284577
      9          1           0       -1.415275    2.077161   -1.009161
     10          1           0       -2.268039    3.628630   -1.080195
     11          6           0       -4.749962   -0.130499    0.362736
     12          6           0       -4.927742   -1.637906    0.178067
     13          6           0       -6.026710   -2.217136    1.069446
     14          1           0       -4.516790    0.077840    1.416122
     15          1           0       -5.702121    0.373628    0.147807
     16          1           0       -3.974998   -2.138487    0.393275
     17          1           0       -5.159146   -1.843466   -0.874935
     18          1           0       -6.989591   -1.744457    0.850273
     19          1           0       -5.798715   -2.041155    2.125689
     20          1           0       -6.136827   -3.295927    0.921307
     21          6           0        2.703935    2.204635    0.823700
     22          6           0        1.809932    1.488092    0.021299
     23          6           0        2.120416    0.193845   -0.406568
     24          6           0        3.339147   -0.355663   -0.011567
     25          6           0        4.250717    0.332878    0.787333
     26          6           0        3.919331    1.625762    1.203486
     27          1           0        2.454626    3.209508    1.151527
     28          1           0        0.865318    1.935133   -0.275184
     29          1           0        1.446710   -0.383264   -1.028247
     30          1           0        5.184753   -0.139301    1.066694
     31          1           0        4.615555    2.179892    1.826590
     32          7           0        3.678907   -1.725102   -0.458329
     33          8           0        4.759029   -2.186807   -0.096665
     34          8           0        2.858654   -2.310835   -1.161708
 ---------------------------------------------------------------------

 SCF Done:  E(RHF) =  -669.535511111     A.U. after   15 cycles
 E2 =    -0.2090834161D+01 EUMP2 =    -0.67162634527226D+03

 The electronic state is 1-A.
 Alpha  occ. eigenvalues --  -20.60748 -20.60743 -15.85801 -11.31165 -11.27735
 Alpha  occ. eigenvalues --  -11.27728 -11.27475 -11.26752 -11.26721 -11.22280
 Alpha  occ. eigenvalues --  -11.22045 -11.21891 -11.21812 -11.21713 -11.21221
 Alpha  occ. eigenvalues --   -1.59823  -1.39377  -1.19337  -1.08887  -1.08732
 Alpha  occ. eigenvalues --   -1.04742  -1.04014  -0.96483  -0.95567  -0.87505
 Alpha  occ. eigenvalues --   -0.86139  -0.82402  -0.80086  -0.78658  -0.77449
 Alpha  occ. eigenvalues --   -0.72019  -0.71147  -0.70446  -0.65533  -0.64989
 Alpha  occ. eigenvalues --   -0.64757  -0.62135  -0.61382  -0.59865  -0.58066
 Alpha  occ. eigenvalues --   -0.55808  -0.55230  -0.53192  -0.53071  -0.53008
 Alpha  occ. eigenvalues --   -0.52724  -0.50418  -0.48779  -0.48774  -0.48390
 Alpha  occ. eigenvalues --   -0.47108  -0.46210  -0.46106  -0.44783  -0.44249
 Alpha  occ. eigenvalues --   -0.37319  -0.36345
 Alpha virt. eigenvalues --    0.05086   0.11307   0.16574   0.19623   0.22693
 Alpha virt. eigenvalues --    0.23768   0.25333   0.26538   0.27212   0.28360
 Alpha virt. eigenvalues --    0.28717   0.30037   0.31135   0.31646   0.32203

 Mulliken charges:
               1
     1  C   -0.298570
     2  C   -0.299574
     3  C   -0.480689
     4  H    0.147976
     5  H    0.151733
     6  H    0.151754
     7  H    0.155403
     8  H    0.161053
     9  H    0.146307
    10  H    0.161149
    11  C   -0.298703
    12  C   -0.300454
    13  C   -0.476056
    14  H    0.149712
    15  H    0.150383
    16  H    0.153972
    17  H    0.153011
    18  H    0.155091
    19  H    0.155310
    20  H    0.162187
    21  C   -0.172608
    22  C   -0.226575
    23  C   -0.173855
    24  C    0.158650
    25  C   -0.171172
    26  C   -0.218456
    27  H    0.226338
    28  H    0.235388
    29  H    0.275395
    30  H    0.275518
    31  H    0.223282
    32  N    0.488123
    33  O   -0.460605
    34  O   -0.460418
 Sum of Mulliken charges =  -0.00000

 Dipole moment (field-independent basis, Debye):
    X=             -1.3775    Y=              4.8101    Z=              1.5678  Tot=              5.2433
 Quadrupole moment (field-independent basis, Debye-Ang):
   XX=            -98.5159   YY=            -99.0539   ZZ=            -93.9944
   XY=             16.4323   XZ=              8.8943   YZ=             -0.2366

 Normal termination of Gaussian 16 at Wed May  5 15:36:42 2021.
