 Gaussian 16, Revision A.03,
 Gaussian 16:  EM64L-G16RevA.03 25-Dec-2016

 -------------
 #p 6-31g* mp2
 -------------

 ------------------------------------------------------
 Input file generated by CHIRIPA (05-May-2021 14:57:23)
 ------------------------------------------------------
 Symbolic Z-matrix:
 Charge =  0 Multiplicity = 1

                         Standard orientation:
 ---------------------------------------------------------------------
 Center     Atomic      Atomic             Coordinates (Angstroms)
 Number     Number       Type             X           Y           Z
 ---------------------------------------------------------------------
      1          6           0       -3.894961    2.437510    0.685378
      2          6           0       -4.686059    1.895369   -0.332840
      3          6           0       -4.523709    0.563335   -0.725110
      4          6           0       -3.556434   -0.201387   -0.074826
      5          6           0       -2.752856    0.309946    0.943060
      6          6           0       -2.932581    1.644467    1.318961
      7          1           0       -4.027828    3.473232    0.983745
      8          1           0       -5.434236    2.508907   -0.826649
      9          1           0       -5.122573    0.118201   -1.510372
     10          1           0       -2.015254   -0.326420    1.416768
     11          1           0       -2.316781    2.062835    2.110038
     12          7           0       -3.375364   -1.612868   -0.481440
     13          8           0       -2.516256   -2.265684    0.107119
     14          8           0       -4.095978   -2.039644   -1.381003
     15          6           0        1.333126   -0.920241    0.714151
     16          6           0        2.502203   -1.472845    1.247448
     17          6           0        3.756031   -0.988184    0.863301
     18          6           0        3.804103    0.054703   -0.060476
     19          6           0        2.657319    0.626151   -0.609678
     20          6           0        1.414271    0.125650   -0.211079
     21          1           0        0.363309   -1.302889    1.018178
     22          1           0        2.442216   -2.285175    1.966173
     23          1           0        4.676972   -1.397574    1.260399
     24          1           0        2.749059    1.435102   -1.324241
     25          1           0        0.508015    0.556741   -0.626898
     26          7           0        5.125767    0.576176   -0.474804
     27          8           0        5.141152    1.495653   -1.290257
     28          8           0        6.121279    0.055555    0.023742
 ---------------------------------------------------------------------

 SCF Done:  E(RHF) =  -868.338641966     A.U. after   16 cycles
 E2 =    -0.2599949927D+01 EUMP2 =    -0.87093859189267D+03

 The electronic state is 1-A.
 Alpha  occ. eigenvalues --  -20.61875 -20.61822 -20.60657 -20.60650 -15.86888
 Alpha  occ. eigenvalues --  -15.85709 -11.32213 -11.31028 -11.28837 -11.28677
 Alpha  occ. eigenvalues --  -11.28392 -11.27750 -11.27676 -11.27612 -11.27584
 Alpha  occ. eigenvalues --  -11.27256 -11.26593 -11.26554  -1.60909  -1.59733
 Alpha  occ. eigenvalues --   -1.40471  -1.39288  -1.20351  -1.19192  -1.09735
 Alpha  occ. eigenvalues --   -1.08584  -1.05741  -1.04593  -0.96590  -0.95428
 Alpha  occ. eigenvalues --   -0.87136  -0.85986  -0.83422  -0.82267  -0.78504
 Alpha  occ. eigenvalues --   -0.77331  -0.73108  -0.72228  -0.71927  -0.71445
 Alpha  occ. eigenvalues --   -0.71056  -0.70256  -0.65991  -0.65719  -0.64839
 Alpha  occ. eigenvalues --   -0.64594  -0.63091  -0.61945  -0.56199  -0.55052
 Alpha  occ. eigenvalues --   -0.54071  -0.53791  -0.52920  -0.52676  -0.49876
 Alpha  occ. eigenvalues --   -0.49836  -0.48685  -0.48680  -0.45876  -0.44704
 Alpha  occ. eigenvalues --   -0.38294  -0.37358  -0.37138  -0.36205
 Alpha virt. eigenvalues --    0.03999   0.05201   0.10242   0.11446   0.15554
 Alpha virt. eigenvalues --    0.16677   0.19521   0.21826   0.25259   0.26945
 Alpha virt. eigenvalues --    0.27402   0.28886   0.30217   0.30857   0.32418

 Mulliken charges:
               1
     1  C   -0.170468
     2  C   -0.217663
     3  C   -0.170164
     4  C    0.158111
     5  C   -0.178370
     6  C   -0.219806
     7  H    0.229779
     8  H    0.227533
     9  H    0.278481
    10  H    0.271788
    11  H    0.227328
    12  N    0.489535
    13  O   -0.469242
    14  O   -0.453468
    15  C   -0.179455
    16  C   -0.219381
    17  C   -0.170952
    18  C    0.158077
    19  C   -0.171310
    20  C   -0.222181
    21  H    0.239210
    22  H    0.225355
    23  H    0.275232
    24  H    0.274178
    25  H    0.221844
    26  N    0.488116
    27  O   -0.461530
    28  O   -0.460580
 Sum of Mulliken charges =  -0.00000

 Dipole moment (field-independent basis, Debye):
    X=             -5.6604    Y=              3.1897    Z=              2.8404  Tot=              7.0910
 Quadrupole moment (field-independent basis, Debye-Ang):
   XX=           -131.8201   YY=           -105.4017   ZZ=           -101.9330
   XY=            -27.7966   XZ=              5.5292   YZ=             -3.0327

 Normal termination of Gaussian 16 at Thu May  6 06:37:19 2021.
