 Gaussian 16, Revision A.03,
 Gaussian 16:  EM64L-G16RevA.03 25-Dec-2016

 -------------
 #p 6-31g* mp2
 -------------

 ------------------------------------------------------
 Input file generated by CHIRIPA (05-May-2021 14:53:18)
 ------------------------------------------------------
 Symbolic Z-matrix:
 Charge =  0 Multiplicity = 1

                         Standard orientation:
 ---------------------------------------------------------------------
 Center     Atomic      Atomic             Coordinates (Angstroms)
 Number     Number       Type             X           Y           Z
 ---------------------------------------------------------------------
      1          6           0        4.014951   -0.581768   -0.073658
      2          6           0        5.262310   -1.248320   -0.654854
      3          6           0        5.280741   -2.761347   -0.435303
      4          1           0        3.958670   -0.798351    1.001921
      5          1           0        3.121671   -1.030333   -0.529986
      6          1           0        6.153010   -0.797672   -0.198581
      7          1           0        5.315730   -1.029965   -1.729137
      8          1           0        4.409931   -3.229491   -0.905551
      9          1           0        5.251968   -2.995877    0.633701
     10          1           0        6.181078   -3.217502   -0.858595
     11          6           0        3.982032    0.930808   -0.285215
     12          6           0        2.734673    1.597361    0.295981
     13          6           0        2.716243    3.110388    0.076430
     14          1           0        4.875312    1.379373    0.171113
     15          1           0        4.038313    1.147391   -1.360794
     16          1           0        2.681253    1.379006    1.370264
     17          1           0        1.843973    1.146712   -0.160292
     18          1           0        2.745015    3.344917   -0.992574
     19          1           0        3.587052    3.578531    0.546678
     20          1           0        1.815906    3.566542    0.499722
     21          6           0       -5.216680   -0.408089   -1.242574
     22          6           0       -4.240940    0.518615   -1.624244
     23          6           0       -3.077404    0.677621   -0.865661
     24          6           0       -2.921492   -0.110073    0.273864
     25          6           0       -3.875433   -1.041874    0.680108
     26          6           0       -5.031139   -1.184009   -0.093642
     27          1           0       -6.117502   -0.525056   -1.837750
     28          1           0       -4.382357    1.122557   -2.516040
     29          1           0       -2.305948    1.387542   -1.138218
     30          1           0       -3.706250   -1.629659    1.574146
     31          1           0       -5.787227   -1.904485    0.205171
     32          7           0       -1.693852    0.049329    1.084970
     33          8           0       -1.580311   -0.656665    2.084629
     34          8           0       -0.868415    0.877244    0.705697
 ---------------------------------------------------------------------

 SCF Done:  E(RHF) =  -669.535851976     A.U. after   15 cycles
 E2 =    -0.2090924707D+01 EUMP2 =    -0.67162677668287D+03

 The electronic state is 1-A.
 Alpha  occ. eigenvalues --  -20.60921 -20.60914 -15.85958 -11.31292 -11.27859
 Alpha  occ. eigenvalues --  -11.27854 -11.27596 -11.26868 -11.26858 -11.20880
 Alpha  occ. eigenvalues --  -11.20463 -11.20437 -11.20302 -11.20051 -11.19894
 Alpha  occ. eigenvalues --   -1.59984  -1.39540  -1.19462  -1.08864  -1.07411
 Alpha  occ. eigenvalues --   -1.04861  -1.02504  -0.95704  -0.95015  -0.86260
 Alpha  occ. eigenvalues --   -0.86042  -0.82539  -0.78579  -0.77594  -0.77146
 Alpha  occ. eigenvalues --   -0.72177  -0.71301  -0.70571  -0.65119  -0.64863
 Alpha  occ. eigenvalues --   -0.64056  -0.62208  -0.59913  -0.58385  -0.56574
 Alpha  occ. eigenvalues --   -0.55363  -0.54336  -0.53192  -0.52953  -0.51720
 Alpha  occ. eigenvalues --   -0.51430  -0.49018  -0.48940  -0.48923  -0.46881
 Alpha  occ. eigenvalues --   -0.45637  -0.45033  -0.44693  -0.44486  -0.42769
 Alpha  occ. eigenvalues --   -0.37442  -0.36463
 Alpha virt. eigenvalues --    0.04922   0.11191   0.16402   0.21310   0.23799
 Alpha virt. eigenvalues --    0.25248   0.27236   0.27629   0.28093   0.28678
 Alpha virt. eigenvalues --    0.28916   0.30871   0.32224   0.32432   0.32851

 Mulliken charges:
               1
     1  C   -0.296880
     2  C   -0.298807
     3  C   -0.474942
     4  H    0.151908
     5  H    0.149499
     6  H    0.150399
     7  H    0.149162
     8  H    0.153932
     9  H    0.155601
    10  H    0.157304
    11  C   -0.298659
    12  C   -0.300391
    13  C   -0.476340
    14  H    0.145223
    15  H    0.143976
    16  H    0.156115
    17  H    0.168304
    18  H    0.147630
    19  H    0.149658
    20  H    0.164127
    21  C   -0.170657
    22  C   -0.218521
    23  C   -0.170937
    24  C    0.157757
    25  C   -0.170690
    26  C   -0.218556
    27  H    0.225983
    28  H    0.223821
    29  H    0.275555
    30  H    0.275892
    31  H    0.223819
    32  N    0.491232
    33  O   -0.459030
    34  O   -0.462487
 Sum of Mulliken charges =  -0.00000

 Dipole moment (field-independent basis, Debye):
    X=             -4.6554    Y=             -0.6038    Z=             -2.7497  Tot=              5.4404
 Quadrupole moment (field-independent basis, Debye-Ang):
   XX=            -70.5933   YY=            -94.3511   ZZ=            -94.0197
   XY=              3.6212   XZ=              7.0184   YZ=             -2.2034

 Normal termination of Gaussian 16 at Wed May  5 18:50:00 2021.
