 Gaussian 16, Revision A.03,
 Gaussian 16:  EM64L-G16RevA.03 25-Dec-2016

 -------------
 #p 6-31g* mp2
 -------------

 ------------------------------------------------------
 Input file generated by CHIRIPA (05-May-2021 14:57:26)
 ------------------------------------------------------
 Symbolic Z-matrix:
 Charge =  0 Multiplicity = 1

                         Standard orientation:
 ---------------------------------------------------------------------
 Center     Atomic      Atomic             Coordinates (Angstroms)
 Number     Number       Type             X           Y           Z
 ---------------------------------------------------------------------
      1          6           0       -4.365280    2.115422    0.471043
      2          6           0       -5.028404    1.205082   -0.358456
      3          6           0       -4.492420   -0.065191   -0.590132
      4          6           0       -3.286071   -0.393369    0.026561
      5          6           0       -2.601579    0.491596    0.858186
      6          6           0       -3.156116    1.756406    1.075650
      7          1           0       -4.788851    3.100080    0.645494
      8          1           0       -5.967608    1.481169   -0.829326
      9          1           0       -4.984785   -0.789385   -1.227737
     10          1           0       -1.666923    0.187611    1.313628
     11          1           0       -2.638923    2.461351    1.720329
     12          7           0       -2.708828   -1.735259   -0.211182
     13          8           0       -1.644692   -2.000095    0.343897
     14          8           0       -3.331452   -2.496787   -0.948102
     15          6           0        3.652068   -2.288739    0.420359
     16          6           0        4.777565   -1.461280    0.349029
     17          6           0        4.639382   -0.096271    0.080316
     18          6           0        3.355021    0.410124   -0.112738
     19          6           0        2.214299   -0.388532   -0.048010
     20          6           0        2.376276   -1.750673    0.221961
     21          1           0        3.768653   -3.347996    0.629589
     22          1           0        5.769588   -1.876402    0.502680
     23          1           0        5.493621    0.567051    0.019501
     24          1           0        1.238322    0.054220   -0.205674
     25          1           0        1.500409   -2.390906    0.276770
     26          7           0        3.196139    1.853679   -0.397878
     27          8           0        2.053706    2.275383   -0.564163
     28          8           0        4.217047    2.536100   -0.449687
 ---------------------------------------------------------------------

 SCF Done:  E(RHF) =  -868.340785441     A.U. after   16 cycles
 E2 =    -0.2598535940D+01 EUMP2 =    -0.87093932138074D+03

 The electronic state is 1-A.
 Alpha  occ. eigenvalues --  -20.61435 -20.61360 -20.60561 -20.60541 -15.86428
 Alpha  occ. eigenvalues --  -15.85593 -11.31440 -11.30719 -11.27970 -11.27950
 Alpha  occ. eigenvalues --  -11.27606 -11.27266 -11.27168 -11.26900 -11.26879
 Alpha  occ. eigenvalues --  -11.26855 -11.26261 -11.25984  -1.60455  -1.59631
 Alpha  occ. eigenvalues --   -1.40025  -1.39193  -1.19567  -1.18840  -1.09023
 Alpha  occ. eigenvalues --   -1.08278  -1.04914  -1.04175  -0.95922  -0.95163
 Alpha  occ. eigenvalues --   -0.86333  -0.85590  -0.82775  -0.81979  -0.77865
 Alpha  occ. eigenvalues --   -0.77060  -0.72668  -0.71821  -0.71752  -0.70949
 Alpha  occ. eigenvalues --   -0.70675  -0.69949  -0.65225  -0.64910  -0.64474
 Alpha  occ. eigenvalues --   -0.64129  -0.62276  -0.61500  -0.55421  -0.54693
 Alpha  occ. eigenvalues --   -0.53256  -0.53004  -0.52557  -0.52221  -0.49431
 Alpha  occ. eigenvalues --   -0.49368  -0.48589  -0.48547  -0.45505  -0.44652
 Alpha  occ. eigenvalues --   -0.37515  -0.36820  -0.36492  -0.35779
 Alpha virt. eigenvalues --    0.04619   0.05410   0.11128   0.11860   0.16201
 Alpha virt. eigenvalues --    0.16982   0.20843   0.22237   0.26062   0.27597
 Alpha virt. eigenvalues --    0.28596   0.29252   0.31138   0.31577   0.32006

 Mulliken charges:
               1
     1  C   -0.169488
     2  C   -0.218103
     3  C   -0.170586
     4  C    0.158037
     5  C   -0.171368
     6  C   -0.215832
     7  H    0.228209
     8  H    0.224672
     9  H    0.275412
    10  H    0.272449
    11  H    0.228681
    12  N    0.492015
    13  O   -0.475503
    14  O   -0.455862
    15  C   -0.171907
    16  C   -0.218363
    17  C   -0.172993
    18  C    0.158787
    19  C   -0.175693
    20  C   -0.224916
    21  H    0.226268
    22  H    0.221417
    23  H    0.272998
    24  H    0.273209
    25  H    0.247132
    26  N    0.488251
    27  O   -0.465350
    28  O   -0.461572
 Sum of Mulliken charges =  -0.00000

 Dipole moment (field-independent basis, Debye):
    X=             -1.8380    Y=             -0.3937    Z=              1.8493  Tot=              2.6369
 Quadrupole moment (field-independent basis, Debye-Ang):
   XX=            -79.8771   YY=           -113.2074   ZZ=           -104.6328
   XY=            -31.0503   XZ=              3.5320   YZ=              1.8174

 Normal termination of Gaussian 16 at Thu May  6 06:47:10 2021.
