 Gaussian 16, Revision A.03,
 Gaussian 16:  EM64L-G16RevA.03 25-Dec-2016

 -------------
 #p 6-31g* mp2
 -------------

 ------------------------------------------------------
 Input file generated by CHIRIPA (05-May-2021 14:53:13)
 ------------------------------------------------------
 Symbolic Z-matrix:
 Charge =  0 Multiplicity = 1

                         Standard orientation:
 ---------------------------------------------------------------------
 Center     Atomic      Atomic             Coordinates (Angstroms)
 Number     Number       Type             X           Y           Z
 ---------------------------------------------------------------------
      1          6           0        4.266863   -0.344089    0.097932
      2          6           0        4.841896    1.019020   -0.288405
      3          6           0        6.243128    1.251431    0.277569
      4          1           0        4.239819   -0.426474    1.193115
      5          1           0        4.942835   -1.133734   -0.258323
      6          1           0        4.164343    1.805810    0.067263
      7          1           0        4.867396    1.098245   -1.382795
      8          1           0        6.937517    0.487663   -0.087238
      9          1           0        6.230469    1.199249    1.371058
     10          1           0        6.635058    2.231791   -0.010779
     11          6           0        2.866542   -0.591175   -0.460439
     12          6           0        2.291510   -1.954284   -0.074103
     13          6           0        0.890277   -2.186695   -0.640077
     14          1           0        2.190571    0.198471   -0.104184
     15          1           0        2.893587   -0.508790   -1.555622
     16          1           0        2.266010   -2.033509    1.020287
     17          1           0        2.969063   -2.741074   -0.429771
     18          1           0        0.902937   -2.134513   -1.733566
     19          1           0        0.195889   -1.422927   -0.275269
     20          1           0        0.498347   -3.167055   -0.351729
     21          6           0       -3.241766   -2.109245    0.328923
     22          6           0       -4.000120   -1.322071   -0.543875
     23          6           0       -3.756623    0.050056   -0.655799
     24          6           0       -2.742472    0.604571    0.123495
     25          6           0       -1.969757   -0.153197    1.002125
     26          6           0       -2.230786   -1.523328    1.097782
     27          1           0       -3.437730   -3.174370    0.409549
     28          1           0       -4.785898   -1.774396   -1.142208
     29          1           0       -4.328586    0.682855   -1.323513
     30          1           0       -1.193168    0.326208    1.585649
     31          1           0       -1.640252   -2.132206    1.776444
     32          7           0       -2.475412    2.056124    0.013618
     33          8           0       -1.576276    2.520588    0.711087
     34          8           0       -3.170284    2.701902   -0.767895
 ---------------------------------------------------------------------

 SCF Done:  E(RHF) =  -669.533984090     A.U. after   15 cycles
 E2 =    -0.2092995562D+01 EUMP2 =    -0.67162697965221D+03

 The electronic state is 1-A.
 Alpha  occ. eigenvalues --  -20.60815 -20.60808 -15.85867 -11.31247 -11.27775
 Alpha  occ. eigenvalues --  -11.27770 -11.27504 -11.26816 -11.26795 -11.21816
 Alpha  occ. eigenvalues --  -11.21472 -11.21428 -11.21349 -11.21239 -11.20952
 Alpha  occ. eigenvalues --   -1.59889  -1.39442  -1.19411  -1.08796  -1.08465
 Alpha  occ. eigenvalues --   -1.04829  -1.03578  -0.96035  -0.95632  -0.87061
 Alpha  occ. eigenvalues --   -0.86201  -0.82471  -0.79650  -0.78257  -0.77515
 Alpha  occ. eigenvalues --   -0.72085  -0.71212  -0.70503  -0.65131  -0.65039
 Alpha  occ. eigenvalues --   -0.64810  -0.62174  -0.60994  -0.59418  -0.57647
 Alpha  occ. eigenvalues --   -0.55432  -0.55291  -0.53298  -0.52917  -0.52672
 Alpha  occ. eigenvalues --   -0.52336  -0.49930  -0.48844  -0.48840  -0.47953
 Alpha  occ. eigenvalues --   -0.46682  -0.45804  -0.45715  -0.44842  -0.43836
 Alpha  occ. eigenvalues --   -0.37373  -0.36278
 Alpha virt. eigenvalues --    0.04992   0.11166   0.16464   0.20791   0.22967
 Alpha virt. eigenvalues --    0.24241   0.26388   0.27108   0.27399   0.28426
 Alpha virt. eigenvalues --    0.28655   0.30615   0.31430   0.31471   0.32005

 Mulliken charges:
               1
     1  C   -0.298089
     2  C   -0.300619
     3  C   -0.475797
     4  H    0.148454
     5  H    0.148708
     6  H    0.156153
     7  H    0.152400
     8  H    0.154106
     9  H    0.154838
    10  H    0.161412
    11  C   -0.299565
    12  C   -0.299382
    13  C   -0.481005
    14  H    0.153026
    15  H    0.151187
    16  H    0.146472
    17  H    0.152117
    18  H    0.156980
    19  H    0.162762
    20  H    0.151163
    21  C   -0.170964
    22  C   -0.217621
    23  C   -0.171710
    24  C    0.161067
    25  C   -0.177376
    26  C   -0.212095
    27  H    0.225785
    28  H    0.223746
    29  H    0.275670
    30  H    0.275555
    31  H    0.225272
    32  N    0.488166
    33  O   -0.460904
    34  O   -0.459912
 Sum of Mulliken charges =  -0.00000

 Dipole moment (field-independent basis, Debye):
    X=             -1.0074    Y=             -5.0381    Z=              0.3544  Tot=              5.1501
 Quadrupole moment (field-independent basis, Debye-Ang):
   XX=            -88.0204   YY=           -101.7474   ZZ=            -92.2226
   XY=             13.1913   XZ=              0.9433   YZ=             -0.5106

 Normal termination of Gaussian 16 at Thu May  6 12:03:50 2021.
