 Gaussian 16, Revision A.03,
 Gaussian 16:  EM64L-G16RevA.03 25-Dec-2016

 -------------
 #p 6-31g* mp2
 -------------

 ------------------------------------------------------
 Input file generated by CHIRIPA (05-May-2021 14:55:23)
 ------------------------------------------------------
 Symbolic Z-matrix:
 Charge =  0 Multiplicity = 1

                         Standard orientation:
 ---------------------------------------------------------------------
 Center     Atomic      Atomic             Coordinates (Angstroms)
 Number     Number       Type             X           Y           Z
 ---------------------------------------------------------------------
      1          6           0       -5.798374    1.377416    0.165649
      2          6           0       -4.758848    1.855934   -0.638670
      3          6           0       -3.558436    1.147044   -0.743713
      4          6           0       -3.431092   -0.042086   -0.027443
      5          6           0       -4.448463   -0.544807    0.782198
      6          6           0       -5.640142    0.180682    0.872269
      7          1           0       -6.727491    1.934546    0.241434
      8          1           0       -4.878929    2.785036   -1.188573
      9          1           0       -2.737491    1.494589   -1.359085
     10          1           0       -4.299224   -1.474106    1.318434
     11          1           0       -6.445756   -0.193342    1.497679
     12          7           0       -2.164892   -0.801342   -0.130723
     13          8           0       -2.077639   -1.846330    0.510388
     14          8           0       -1.283673   -0.337082   -0.850830
     15          6           0        5.399287    0.063579   -0.066797
     16          6           0        5.775570    1.425608    0.517390
     17          6           0        7.260004    1.751216    0.349369
     18          1           0        6.004091   -0.715551    0.417055
     19          1           0        5.661211    0.045023   -1.133778
     20          1           0        5.511744    1.442076    1.582632
     21          1           0        5.169663    2.201565    0.032227
     22          1           0        7.534429    1.762224   -0.710429
     23          1           0        7.878454    0.998420    0.848786
     24          1           0        7.507046    2.729249    0.773965
     25          6           0        3.918544   -0.276184    0.093476
     26          6           0        3.542261   -1.638213   -0.490711
     27          6           0        2.057827   -1.963821   -0.322690
     28          1           0        3.656620   -0.257627    1.160456
     29          1           0        3.313740    0.502946   -0.390376
     30          1           0        4.148168   -2.414170   -0.005548
     31          1           0        3.806086   -1.654680   -1.555953
     32          1           0        1.439376   -1.211025   -0.822108
     33          1           0        1.783401   -1.974830    0.737107
     34          1           0        1.810784   -2.941853   -0.747286
 ---------------------------------------------------------------------

 SCF Done:  E(RHF) =  -669.536053604     A.U. after   15 cycles
 E2 =    -0.2091012353D+01 EUMP2 =    -0.67162706595678D+03

 The electronic state is 1-A.
 Alpha  occ. eigenvalues --  -20.60928 -20.60919 -15.85955 -11.31289 -11.27852
 Alpha  occ. eigenvalues --  -11.27848 -11.27590 -11.26861 -11.26851 -11.20960
 Alpha  occ. eigenvalues --  -11.20565 -11.20554 -11.20311 -11.20222 -11.19053
 Alpha  occ. eigenvalues --   -1.59977  -1.39535  -1.19456  -1.08857  -1.07458
 Alpha  occ. eigenvalues --   -1.04854  -1.02446  -0.95699  -0.94854  -0.86254
 Alpha  occ. eigenvalues --   -0.85857  -0.82533  -0.78551  -0.77583  -0.77208
 Alpha  occ. eigenvalues --   -0.72175  -0.71293  -0.70564  -0.65112  -0.64857
 Alpha  occ. eigenvalues --   -0.64103  -0.62201  -0.59850  -0.58335  -0.56465
 Alpha  occ. eigenvalues --   -0.55358  -0.54142  -0.53185  -0.52946  -0.51541
 Alpha  occ. eigenvalues --   -0.51292  -0.49113  -0.48917  -0.48609  -0.46790
 Alpha  occ. eigenvalues --   -0.45602  -0.44953  -0.44723  -0.44627  -0.42708
 Alpha  occ. eigenvalues --   -0.37436  -0.36455
 Alpha virt. eigenvalues --    0.04950   0.11200   0.16448   0.21334   0.23751
 Alpha virt. eigenvalues --    0.25456   0.27249   0.27584   0.28200   0.28408
 Alpha virt. eigenvalues --    0.29265   0.30902   0.32369   0.32561   0.32669

 Mulliken charges:
               1
     1  C   -0.170629
     2  C   -0.218526
     3  C   -0.170793
     4  C    0.157961
     5  C   -0.170656
     6  C   -0.218576
     7  H    0.225950
     8  H    0.223758
     9  H    0.275548
    10  H    0.275907
    11  H    0.223801
    12  N    0.489686
    13  O   -0.458378
    14  O   -0.460296
    15  C   -0.297273
    16  C   -0.298757
    17  C   -0.475090
    18  H    0.147902
    19  H    0.147828
    20  H    0.150832
    21  H    0.150724
    22  H    0.154252
    23  H    0.154387
    24  H    0.157874
    25  C   -0.296962
    26  C   -0.300677
    27  C   -0.478367
    28  H    0.147826
    29  H    0.150192
    30  H    0.145921
    31  H    0.147140
    32  H    0.178197
    33  H    0.153387
    34  H    0.155908
 Sum of Mulliken charges =  -0.00000

 Dipole moment (field-independent basis, Debye):
    X=             -4.8725    Y=              2.6820    Z=              0.3422  Tot=              5.5724
 Quadrupole moment (field-independent basis, Debye-Ang):
   XX=            -66.6279   YY=            -93.1961   ZZ=            -92.6237
   XY=             -8.1368   XZ=             -2.3449   YZ=             -3.0934

 Normal termination of Gaussian 16 at Thu May  6 04:42:16 2021.
