 Gaussian 16, Revision A.03,
 Gaussian 16:  EM64L-G16RevA.03 25-Dec-2016

 -------------
 #p 6-31g* mp2
 -------------

 ------------------------------------------------------
 Input file generated by CHIRIPA (05-May-2021 14:51:13)
 ------------------------------------------------------
 Symbolic Z-matrix:
 Charge =  0 Multiplicity = 1

                         Standard orientation:
 ---------------------------------------------------------------------
 Center     Atomic      Atomic             Coordinates (Angstroms)
 Number     Number       Type             X           Y           Z
 ---------------------------------------------------------------------
      1          6           0        2.249465   -0.855813    0.336316
      2          6           0        3.230813   -0.271576   -0.680349
      3          6           0        4.147284    0.791483   -0.073900
      4          1           0        1.642033   -0.043645    0.758634
      5          1           0        2.814237   -1.290980    1.172412
      6          1           0        2.664396    0.161132   -1.514946
      7          1           0        3.835849   -1.085255   -1.100437
      8          1           0        4.737510    0.369126    0.745765
      9          1           0        3.559401    1.622594    0.328900
     10          1           0        4.840639    1.195674   -0.818042
     11          6           0        1.326512   -1.919911   -0.254939
     12          6           0        0.345164   -2.504148    0.761726
     13          6           0       -0.571307   -3.567206    0.155277
     14          1           0        0.761740   -1.484744   -1.091035
     15          1           0        1.933944   -2.732079   -0.677257
     16          1           0       -0.259872   -1.690469    1.181814
     17          1           0        0.911581   -2.936856    1.596323
     18          1           0        0.016576   -4.398318   -0.247523
     19          1           0       -1.161533   -3.144849   -0.664388
     20          1           0       -1.264662   -3.971398    0.899419
     21          6           0       -1.519250    2.006357    0.318024
     22          6           0       -0.236308    2.558597   -0.304132
     23          6           0        0.289028    3.795873    0.424540
     24          1           0       -2.288560    2.790631    0.313340
     25          1           0       -1.330680    1.759780    1.372081
     26          1           0       -0.426867    2.802766   -1.357074
     27          1           0        0.529978    1.772858   -0.298141
     28          1           0        0.506871    3.562672    1.471804
     29          1           0       -0.455411    4.598431    0.406856
     30          1           0        1.206640    4.174067   -0.036781
     31          6           0       -2.056727    0.769366   -0.399401
     32          6           0       -3.339668    0.217127    0.222755
     33          6           0       -3.865004   -1.020149   -0.505917
     34          1           0       -2.245298    1.015944   -1.453458
     35          1           0       -1.287417   -0.014907   -0.394717
     36          1           0       -4.105955    1.002865    0.216764
     37          1           0       -3.149110   -0.027042    1.275697
     38          1           0       -3.120566   -1.822708   -0.488232
     39          1           0       -4.082848   -0.786948   -1.553182
     40          1           0       -4.782616   -1.398344   -0.044596
 ---------------------------------------------------------------------

 SCF Done:  E(RHF) =  -470.732026032     A.U. after   11 cycles
 E2 =    -0.1586453369D+01 EUMP2 =    -0.47231847940134D+03

 The electronic state is 1-A.
 Alpha  occ. eigenvalues --  -11.21684 -11.21644 -11.21637 -11.21621 -11.21465
 Alpha  occ. eigenvalues --  -11.21450 -11.21405 -11.21383 -11.21141 -11.21127
 Alpha  occ. eigenvalues --  -11.21093 -11.21028  -1.08578  -1.08410  -1.03656
 Alpha  occ. eigenvalues --   -1.03510  -0.96084  -0.95976  -0.87141  -0.86954
 Alpha  occ. eigenvalues --   -0.79675  -0.79623  -0.78327  -0.78298  -0.65725
 Alpha  occ. eigenvalues --   -0.64579  -0.61482  -0.60560  -0.59403  -0.59352
 Alpha  occ. eigenvalues --   -0.57686  -0.57617  -0.55611  -0.55056  -0.52740
 Alpha  occ. eigenvalues --   -0.52694  -0.52513  -0.52420  -0.50385  -0.49521
 Alpha  occ. eigenvalues --   -0.48134  -0.47807  -0.46722  -0.46655  -0.46242
 Alpha  occ. eigenvalues --   -0.45798  -0.45700  -0.45317  -0.43847  -0.43816
 Alpha virt. eigenvalues --    0.18792   0.21162   0.23358   0.25390   0.25779
 Alpha virt. eigenvalues --    0.26167   0.26515   0.28459   0.29129   0.30000
 Alpha virt. eigenvalues --    0.30995   0.31430   0.31483   0.31880   0.32142

 Mulliken charges:
               1
     1  C   -0.302907
     2  C   -0.300943
     3  C   -0.477163
     4  H    0.152269
     5  H    0.150481
     6  H    0.153269
     7  H    0.152442
     8  H    0.155254
     9  H    0.156513
    10  H    0.160489
    11  C   -0.301646
    12  C   -0.303511
    13  C   -0.480003
    14  H    0.151616
    15  H    0.150905
    16  H    0.153442
    17  H    0.153215
    18  H    0.156285
    19  H    0.158566
    20  H    0.160815
    21  C   -0.298029
    22  C   -0.308848
    23  C   -0.476056
    24  H    0.150384
    25  H    0.149086
    26  H    0.152237
    27  H    0.160124
    28  H    0.155118
    29  H    0.155738
    30  H    0.160726
    31  C   -0.308003
    32  C   -0.299129
    33  C   -0.483175
    34  H    0.149601
    35  H    0.158690
    36  H    0.152181
    37  H    0.151713
    38  H    0.163204
    39  H    0.154683
    40  H    0.160365
 Sum of Mulliken charges =  -0.00000

 Dipole moment (field-independent basis, Debye):
    X=              0.0229    Y=             -0.0267    Z=             -0.0074  Tot=              0.0360
 Quadrupole moment (field-independent basis, Debye-Ang):
   XX=            -84.8222   YY=            -85.2136   ZZ=            -84.6187
   XY=             -1.8471   XZ=              0.0590   YZ=             -1.1411

 Normal termination of Gaussian 16 at Thu May  6 02:21:07 2021.
