 Gaussian 16, Revision A.03,
 Gaussian 16:  EM64L-G16RevA.03 25-Dec-2016

 -------------
 #p 6-31g* mp2
 -------------

 ------------------------------------------------------
 Input file generated by CHIRIPA (05-May-2021 14:57:27)
 ------------------------------------------------------
 Symbolic Z-matrix:
 Charge =  0 Multiplicity = 1

                         Standard orientation:
 ---------------------------------------------------------------------
 Center     Atomic      Atomic             Coordinates (Angstroms)
 Number     Number       Type             X           Y           Z
 ---------------------------------------------------------------------
      1          6           0       -4.546009    1.377398    0.743034
      2          6           0       -4.493972    0.903917   -0.572120
      3          6           0       -3.584818   -0.095507   -0.931480
      4          6           0       -2.738614   -0.601248    0.054143
      5          6           0       -2.766387   -0.150203    1.372884
      6          6           0       -3.683571    0.849757    1.709634
      7          1           0       -5.255381    2.153983    1.013411
      8          1           0       -5.162545    1.311844   -1.324882
      9          1           0       -3.523292   -0.480321   -1.942198
     10          1           0       -2.087189   -0.576297    2.101274
     11          1           0       -3.721757    1.215555    2.731778
     12          7           0       -1.771883   -1.659577   -0.314327
     13          8           0       -1.037125   -2.088713    0.572583
     14          8           0       -1.767222   -2.039920   -1.483068
     15          6           0        1.498796    2.391734   -0.854759
     16          6           0        2.696082    2.605580   -0.163893
     17          6           0        3.479346    1.524373    0.250879
     18          6           0        3.033207    0.236862   -0.043342
     19          6           0        1.845095   -0.008647   -0.729930
     20          6           0        1.077866    1.087602   -1.135078
     21          1           0        0.896565    3.237484   -1.173227
     22          1           0        3.025456    3.617292    0.055187
     23          1           0        4.410457    1.661294    0.787261
     24          1           0        1.542832   -1.028699   -0.933767
     25          1           0        0.148479    0.918525   -1.671453
     26          7           0        3.853927   -0.915725    0.390665
     27          8           0        3.438863   -2.040291    0.119169
     28          8           0        4.896728   -0.672733    0.994118
 ---------------------------------------------------------------------

 SCF Done:  E(RHF) =  -868.338276937     A.U. after   16 cycles
 E2 =    -0.2600494213D+01 EUMP2 =    -0.87093877115002D+03

 The electronic state is 1-A.
 Alpha  occ. eigenvalues --  -20.61527 -20.61476 -20.60043 -20.59985 -15.86521
 Alpha  occ. eigenvalues --  -15.85073 -11.31835 -11.30524 -11.28413 -11.28344
 Alpha  occ. eigenvalues --  -11.28102 -11.27390 -11.27344 -11.27218 -11.27016
 Alpha  occ. eigenvalues --  -11.26998 -11.26258 -11.26168  -1.60581  -1.59095
 Alpha  occ. eigenvalues --   -1.40124  -1.38640  -1.19997  -1.18752  -1.09402
 Alpha  occ. eigenvalues --   -1.08150  -1.05377  -1.04165  -0.96239  -0.94950
 Alpha  occ. eigenvalues --   -0.86775  -0.85563  -0.83060  -0.81779  -0.78125
 Alpha  occ. eigenvalues --   -0.76786  -0.72710  -0.71936  -0.71289  -0.71081
 Alpha  occ. eigenvalues --   -0.70422  -0.69862  -0.65636  -0.65363  -0.64407
 Alpha  occ. eigenvalues --   -0.64186  -0.62712  -0.61468  -0.55869  -0.54720
 Alpha  occ. eigenvalues --   -0.53733  -0.53453  -0.52513  -0.52253  -0.49501
 Alpha  occ. eigenvalues --   -0.49472  -0.48076  -0.48025  -0.45528  -0.44024
 Alpha  occ. eigenvalues --   -0.37983  -0.36984  -0.36785  -0.35769
 Alpha virt. eigenvalues --    0.04353   0.05740   0.10640   0.11876   0.15861
 Alpha virt. eigenvalues --    0.17161   0.20862   0.21879   0.26782   0.27362
 Alpha virt. eigenvalues --    0.27907   0.28865   0.30531   0.31297   0.32085

 Mulliken charges:
               1
     1  C   -0.170896
     2  C   -0.219098
     3  C   -0.175671
     4  C    0.155987
     5  C   -0.169585
     6  C   -0.218900
     7  H    0.227381
     8  H    0.224692
     9  H    0.275613
    10  H    0.279441
    11  H    0.226077
    12  N    0.484844
    13  O   -0.452833
    14  O   -0.463352
    15  C   -0.171139
    16  C   -0.220214
    17  C   -0.171363
    18  C    0.156094
    19  C   -0.169990
    20  C   -0.225751
    21  H    0.220968
    22  H    0.219809
    23  H    0.273672
    24  H    0.293364
    25  H    0.221519
    26  N    0.487460
    27  O   -0.452607
    28  O   -0.465524
 Sum of Mulliken charges =  -0.00000

 Dipole moment (field-independent basis, Debye):
    X=             -6.5005    Y=              7.5188    Z=             -0.1035  Tot=              9.9398
 Quadrupole moment (field-independent basis, Debye-Ang):
   XX=           -102.0429   YY=           -106.6482   ZZ=           -100.0063
   XY=              5.0687   XZ=             -5.4010   YZ=              0.2831

 Normal termination of Gaussian 16 at Thu May  6 22:57:32 2021.
