 Gaussian 16, Revision A.03,
 Gaussian 16:  EM64L-G16RevA.03 25-Dec-2016

 -------------
 #p 6-31g* mp2
 -------------

 ------------------------------------------------------
 Input file generated by CHIRIPA (05-May-2021 14:55:22)
 ------------------------------------------------------
 Symbolic Z-matrix:
 Charge =  0 Multiplicity = 1

                         Standard orientation:
 ---------------------------------------------------------------------
 Center     Atomic      Atomic             Coordinates (Angstroms)
 Number     Number       Type             X           Y           Z
 ---------------------------------------------------------------------
      1          6           0       -4.581368    2.308500    0.173676
      2          6           0       -3.372599    2.130495   -0.507288
      3          6           0       -2.817335    0.855032   -0.646660
      4          6           0       -3.500704   -0.225047   -0.090129
      5          6           0       -4.706635   -0.080013    0.593965
      6          6           0       -5.243361    1.204624    0.721164
      7          1           0       -5.005510    3.302874    0.277215
      8          1           0       -2.856284    2.985954   -0.933497
      9          1           0       -1.882962    0.688710   -1.168868
     10          1           0       -5.198120   -0.952015    1.008059
     11          1           0       -6.182256    1.339877    1.250530
     12          7           0       -2.922684   -1.580179   -0.231232
     13          8           0       -3.544323   -2.515487    0.268167
     14          8           0       -1.858937   -1.681363   -0.838556
     15          6           0        3.882684    0.171860   -0.104183
     16          6           0        2.870155   -0.874942    0.361620
     17          6           0        1.433858   -0.521415   -0.025500
     18          1           0        3.615430    1.147441    0.324492
     19          1           0        3.812101    0.280016   -1.195382
     20          1           0        2.943590   -0.982092    1.451456
     21          1           0        3.139961   -1.848182   -0.068059
     22          1           0        1.338238   -0.434204   -1.112631
     23          1           0        1.140751    0.436807    0.415518
     24          1           0        0.726619   -1.283119    0.317256
     25          6           0        5.322996   -0.167497    0.275380
     26          6           0        6.335525    0.879306   -0.190423
     27          6           0        7.771823    0.525780    0.196697
     28          1           0        5.393579   -0.275652    1.366579
     29          1           0        5.590251   -1.143078   -0.153295
     30          1           0        6.065719    1.852547    0.239256
     31          1           0        6.262090    0.986456   -1.280259
     32          1           0        8.064930   -0.432444   -0.244321
     33          1           0        7.867443    0.438568    1.283827
     34          1           0        8.479061    1.287483   -0.146059
 ---------------------------------------------------------------------

 SCF Done:  E(RHF) =  -669.535993436     A.U. after   15 cycles
 E2 =    -0.2091022779D+01 EUMP2 =    -0.67162701621520D+03

 The electronic state is 1-A.
 Alpha  occ. eigenvalues --  -20.60851 -20.60840 -15.85875 -11.31202 -11.27777
 Alpha  occ. eigenvalues --  -11.27753 -11.27518 -11.26786 -11.26772 -11.21379
 Alpha  occ. eigenvalues --  -11.21076 -11.21023 -11.20963 -11.20881 -11.20240
 Alpha  occ. eigenvalues --   -1.59911  -1.39465  -1.19376  -1.08782  -1.08053
 Alpha  occ. eigenvalues --   -1.04773  -1.03098  -0.95640  -0.95517  -0.86552
 Alpha  occ. eigenvalues --   -0.86173  -0.82454  -0.79179  -0.77874  -0.77493
 Alpha  occ. eigenvalues --   -0.72102  -0.71226  -0.70486  -0.65033  -0.64778
 Alpha  occ. eigenvalues --   -0.64690  -0.62118  -0.60503  -0.58898  -0.57137
 Alpha  occ. eigenvalues --   -0.55282  -0.54841  -0.53108  -0.52869  -0.52174
 Alpha  occ. eigenvalues --   -0.51971  -0.49508  -0.48862  -0.48851  -0.47489
 Alpha  occ. eigenvalues --   -0.46230  -0.45407  -0.45337  -0.44895  -0.43267
 Alpha  occ. eigenvalues --   -0.37359  -0.36374
 Alpha virt. eigenvalues --    0.04993   0.11267   0.16470   0.21256   0.23217
 Alpha virt. eigenvalues --    0.24684   0.26498   0.26989   0.27687   0.27939
 Alpha virt. eigenvalues --    0.29066   0.30714   0.31704   0.31807   0.32638

 Mulliken charges:
               1
     1  C   -0.170580
     2  C   -0.219058
     3  C   -0.171562
     4  C    0.157807
     5  C   -0.170854
     6  C   -0.218727
     7  H    0.225624
     8  H    0.223720
     9  H    0.279037
    10  H    0.275507
    11  H    0.223430
    12  N    0.488250
    13  O   -0.459911
    14  O   -0.459294
    15  C   -0.297622
    16  C   -0.300636
    17  C   -0.478550
    18  H    0.146136
    19  H    0.148273
    20  H    0.149903
    21  H    0.154155
    22  H    0.153765
    23  H    0.142772
    24  H    0.180424
    25  C   -0.297873
    26  C   -0.299180
    27  C   -0.475481
    28  H    0.148987
    29  H    0.150320
    30  H    0.150391
    31  H    0.151332
    32  H    0.155495
    33  H    0.154883
    34  H    0.159115
 Sum of Mulliken charges =  -0.00000

 Dipole moment (field-independent basis, Debye):
    X=             -2.2068    Y=              4.6575    Z=              0.4763  Tot=              5.1758
 Quadrupole moment (field-independent basis, Debye-Ang):
   XX=            -79.5875   YY=            -96.3811   ZZ=            -93.5426
   XY=            -14.9824   XZ=             -4.2737   YZ=             -1.2013

 Normal termination of Gaussian 16 at Thu May  6 15:52:15 2021.
