 Gaussian 16, Revision A.03,
 Gaussian 16:  EM64L-G16RevA.03 25-Dec-2016

 -------------
 #p 6-31g* mp2
 -------------

 ------------------------------------------------------
 Input file generated by CHIRIPA (05-May-2021 14:51:08)
 ------------------------------------------------------
 Symbolic Z-matrix:
 Charge =  0 Multiplicity = 1

                         Standard orientation:
 ---------------------------------------------------------------------
 Center     Atomic      Atomic             Coordinates (Angstroms)
 Number     Number       Type             X           Y           Z
 ---------------------------------------------------------------------
      1          6           0        5.786222   -0.434252   -0.089695
      2          6           0        7.189663    0.158418    0.040992
      3          6           0        8.291607   -0.886084   -0.139368
      4          1           0        5.661657   -1.232957    0.654280
      5          1           0        5.686081   -0.907641   -1.076239
      6          1           0        7.286665    0.631756    1.026465
      7          1           0        7.310835    0.955935   -0.703253
      8          1           0        8.223279   -1.351378   -1.128021
      9          1           0        8.198973   -1.677398    0.611525
     10          1           0        9.286651   -0.440809   -0.042012
     11          6           0        4.673870    0.597626    0.088154
     12          6           0        3.270428    0.004956   -0.042533
     13          6           0        2.168484    1.049458    0.137827
     14          1           0        4.774010    1.071015    1.074698
     15          1           0        4.798434    1.396332   -0.655821
     16          1           0        3.149257   -0.792561    0.701712
     17          1           0        3.173426   -0.468382   -1.028006
     18          1           0        2.261119    1.840773   -0.613066
     19          1           0        2.236812    1.514752    1.126480
     20          1           0        1.173440    0.604184    0.040471
     21          6           0       -5.908307    0.213318   -0.189927
     22          6           0       -7.088140   -0.678694    0.197746
     23          6           0       -8.438222   -0.074960   -0.190300
     24          1           0       -6.024820    1.194135    0.291079
     25          1           0       -5.933235    0.391825   -1.273860
     26          1           0       -7.060204   -0.856600    1.280421
     27          1           0       -6.968706   -1.657565   -0.284086
     28          1           0       -8.491338    0.086770   -1.271790
     29          1           0       -8.583356    0.892287    0.301605
     30          1           0       -9.267693   -0.729053    0.096059
     31          6           0       -4.551785   -0.376692    0.191469
     32          6           0       -3.371951    0.515320   -0.196205
     33          6           0       -2.021869   -0.088414    0.191840
     34          1           0       -4.526857   -0.555201    1.275401
     35          1           0       -4.435271   -1.357510   -0.289538
     36          1           0       -3.491386    1.494191    0.285627
     37          1           0       -3.399888    0.693225   -1.278880
     38          1           0       -1.876736   -1.055661   -0.300065
     39          1           0       -1.968754   -0.250145    1.273332
     40          1           0       -1.192399    0.565679   -0.094519
 ---------------------------------------------------------------------

 SCF Done:  E(RHF) =  -470.733293468     A.U. after   11 cycles
 E2 =    -0.1582061987D+01 EUMP2 =    -0.47231535545451D+03

 The electronic state is 1-A.
 Alpha  occ. eigenvalues --  -11.21601 -11.21599 -11.21584 -11.21561 -11.21403
 Alpha  occ. eigenvalues --  -11.21378 -11.21343 -11.21318 -11.21069 -11.21068
 Alpha  occ. eigenvalues --  -11.21057 -11.21002  -1.08429  -1.08401  -1.03535
 Alpha  occ. eigenvalues --   -1.03493  -0.96006  -0.95927  -0.87049  -0.86921
 Alpha  occ. eigenvalues --   -0.79620  -0.79536  -0.78240  -0.78214  -0.65057
 Alpha  occ. eigenvalues --   -0.65031  -0.60925  -0.60894  -0.59604  -0.59133
 Alpha  occ. eigenvalues --   -0.57678  -0.57464  -0.55267  -0.55233  -0.53016
 Alpha  occ. eigenvalues --   -0.52474  -0.52406  -0.52192  -0.49922  -0.49888
 Alpha  occ. eigenvalues --   -0.47942  -0.47843  -0.46624  -0.46595  -0.45783
 Alpha  occ. eigenvalues --   -0.45756  -0.45706  -0.45682  -0.43977  -0.43532
 Alpha virt. eigenvalues --    0.22533   0.22953   0.23584   0.24720   0.26659
 Alpha virt. eigenvalues --    0.26683   0.26772   0.27505   0.27548   0.28634
 Alpha virt. eigenvalues --    0.29937   0.31415   0.31443   0.31848   0.31994

 Mulliken charges:
               1
     1  C   -0.298191
     2  C   -0.299602
     3  C   -0.475683
     4  H    0.149634
     5  H    0.149458
     6  H    0.151894
     7  H    0.151889
     8  H    0.155148
     9  H    0.155162
    10  H    0.160185
    11  C   -0.298546
    12  C   -0.298757
    13  C   -0.483840
    14  H    0.149442
    15  H    0.149502
    16  H    0.152091
    17  H    0.151753
    18  H    0.154506
    19  H    0.155036
    20  H    0.168529
    21  C   -0.298234
    22  C   -0.299617
    23  C   -0.475700
    24  H    0.149692
    25  H    0.149527
    26  H    0.151928
    27  H    0.151927
    28  H    0.155181
    29  H    0.155192
    30  H    0.160243
    31  C   -0.298678
    32  C   -0.299183
    33  C   -0.481811
    34  H    0.149533
    35  H    0.149610
    36  H    0.152204
    37  H    0.151962
    38  H    0.155037
    39  H    0.155481
    40  H    0.166097
 Sum of Mulliken charges =  -0.00000

 Dipole moment (field-independent basis, Debye):
    X=             -0.0204    Y=             -0.0024    Z=              0.0027  Tot=              0.0207
 Quadrupole moment (field-independent basis, Debye-Ang):
   XX=            -86.8399   YY=            -85.0614   ZZ=            -82.9706
   XY=              0.8315   XZ=             -0.1907   YZ=              0.2396

 Normal termination of Gaussian 16 at Wed May  5 22:54:34 2021.
