 Gaussian 16, Revision A.03,
 Gaussian 16:  EM64L-G16RevA.03 25-Dec-2016

 -------------
 #p 6-31g* mp2
 -------------

 ------------------------------------------------------
 Input file generated by CHIRIPA (05-May-2021 14:51:09)
 ------------------------------------------------------
 Symbolic Z-matrix:
 Charge =  0 Multiplicity = 1

                         Standard orientation:
 ---------------------------------------------------------------------
 Center     Atomic      Atomic             Coordinates (Angstroms)
 Number     Number       Type             X           Y           Z
 ---------------------------------------------------------------------
      1          6           0        4.618272    0.072969    0.137255
      2          6           0        5.898945   -0.409872   -0.544455
      3          6           0        7.052893    0.583656   -0.406250
      4          1           0        4.324334    1.040558   -0.292065
      5          1           0        4.823155    0.252630    1.201745
      6          1           0        5.691361   -0.589892   -1.607054
      7          1           0        6.189764   -1.376516   -0.113596
      8          1           0        7.288483    0.756106    0.648908
      9          1           0        6.787249    1.547200   -0.853036
     10          1           0        7.958430    0.218529   -0.900767
     11          6           0        3.455636   -0.909497    0.007776
     12          6           0        2.174963   -0.426656    0.689486
     13          6           0        1.021015   -1.420184    0.551281
     14          1           0        3.250753   -1.089158   -1.056714
     15          1           0        3.749575   -1.877087    0.437096
     16          1           0        1.884145    0.539988    0.258627
     17          1           0        2.382547   -0.246636    1.752085
     18          1           0        1.286659   -2.383728    0.998067
     19          1           0        0.785425   -1.592634   -0.503877
     20          1           0        0.115479   -1.055057    1.045797
     21          6           0       -4.403966   -0.245724   -0.161143
     22          6           0       -5.926317   -0.103155   -0.151011
     23          6           0       -6.646460   -1.440085   -0.329357
     24          1           0       -4.091705   -0.708681   -1.107246
     25          1           0       -4.101937   -0.935554    0.639049
     26          1           0       -6.225276    0.587277   -0.950099
     27          1           0       -6.234974    0.359692    0.795097
     28          1           0       -6.376998   -2.133014    0.474285
     29          1           0       -6.367245   -1.904136   -1.280828
     30          1           0       -7.733702   -1.314945   -0.319079
     31          6           0       -3.669943    1.082252    0.016112
     32          6           0       -2.147591    0.939683    0.005980
     33          6           0       -1.427448    2.276613    0.184327
     34          1           0       -3.971971    1.772082   -0.784081
     35          1           0       -3.982203    1.545209    0.962214
     36          1           0       -1.838934    0.476836   -0.940128
     37          1           0       -1.848632    0.249251    0.805069
     38          1           0       -1.706663    2.740664    1.135797
     39          1           0       -1.696911    2.969542   -0.619315
     40          1           0       -0.340206    2.151474    0.174049
 ---------------------------------------------------------------------

 SCF Done:  E(RHF) =  -470.732948318     A.U. after   11 cycles
 E2 =    -0.1583073251D+01 EUMP2 =    -0.47231602156924D+03

 The electronic state is 1-A.
 Alpha  occ. eigenvalues --  -11.21597 -11.21595 -11.21591 -11.21575 -11.21398
 Alpha  occ. eigenvalues --  -11.21390 -11.21339 -11.21331 -11.21068 -11.21066
 Alpha  occ. eigenvalues --  -11.21060 -11.20996  -1.08435  -1.08406  -1.03561
 Alpha  occ. eigenvalues --   -1.03476  -0.96006  -0.95926  -0.87015  -0.86953
 Alpha  occ. eigenvalues --   -0.79669  -0.79501  -0.78245  -0.78223  -0.65056
 Alpha  occ. eigenvalues --   -0.65055  -0.60945  -0.60931  -0.59568  -0.59137
 Alpha  occ. eigenvalues --   -0.57746  -0.57371  -0.55257  -0.55238  -0.52721
 Alpha  occ. eigenvalues --   -0.52621  -0.52402  -0.52381  -0.49911  -0.49906
 Alpha  occ. eigenvalues --   -0.48062  -0.47757  -0.46612  -0.46600  -0.45795
 Alpha  occ. eigenvalues --   -0.45761  -0.45688  -0.45687  -0.43823  -0.43661
 Alpha virt. eigenvalues --    0.20963   0.23064   0.23405   0.25207   0.25890
 Alpha virt. eigenvalues --    0.26265   0.26810   0.27147   0.28133   0.29116
 Alpha virt. eigenvalues --    0.29784   0.30288   0.31389   0.31906   0.32445

 Mulliken charges:
               1
     1  C   -0.298291
     2  C   -0.299635
     3  C   -0.475708
     4  H    0.149558
     5  H    0.149532
     6  H    0.151907
     7  H    0.151941
     8  H    0.155183
     9  H    0.155198
    10  H    0.160232
    11  C   -0.298216
    12  C   -0.302848
    13  C   -0.479300
    14  H    0.149475
    15  H    0.149764
    16  H    0.154094
    17  H    0.151791
    18  H    0.154322
    19  H    0.154997
    20  H    0.165862
    21  C   -0.298214
    22  C   -0.299628
    23  C   -0.475697
    24  H    0.149726
    25  H    0.149477
    26  H    0.151878
    27  H    0.151882
    28  H    0.155234
    29  H    0.155190
    30  H    0.160193
    31  C   -0.297909
    32  C   -0.302109
    33  C   -0.479885
    34  H    0.149343
    35  H    0.149431
    36  H    0.152458
    37  H    0.154859
    38  H    0.155149
    39  H    0.155140
    40  H    0.163624
 Sum of Mulliken charges =  -0.00000

 Dipole moment (field-independent basis, Debye):
    X=             -0.0080    Y=             -0.0048    Z=              0.0006  Tot=              0.0094
 Quadrupole moment (field-independent basis, Debye-Ang):
   XX=            -86.1095   YY=            -85.7759   ZZ=            -82.9772
   XY=             -1.2572   XZ=              0.1530   YZ=             -0.6603

 Normal termination of Gaussian 16 at Thu May  6 03:45:49 2021.
