 Gaussian 16, Revision A.03,
 Gaussian 16:  EM64L-G16RevA.03 25-Dec-2016

 -------------
 #p 6-31g* mp2
 -------------

 ------------------------------------------------------
 Input file generated by CHIRIPA (05-May-2021 14:57:21)
 ------------------------------------------------------
 Symbolic Z-matrix:
 Charge =  0 Multiplicity = 1

                         Standard orientation:
 ---------------------------------------------------------------------
 Center     Atomic      Atomic             Coordinates (Angstroms)
 Number     Number       Type             X           Y           Z
 ---------------------------------------------------------------------
      1          6           0        3.363174   -2.302666   -0.773499
      2          6           0        2.362124   -1.334779   -0.906222
      3          6           0        2.607780   -0.005642   -0.549016
      4          6           0        3.871544    0.322077   -0.060356
      5          6           0        4.889484   -0.619415    0.083459
      6          6           0        4.621440   -1.942530   -0.279952
      7          1           0        3.163647   -3.332833   -1.053395
      8          1           0        1.384002   -1.611590   -1.289232
      9          1           0        1.850949    0.763815   -0.641547
     10          1           0        5.854659   -0.313174    0.468258
     11          1           0        5.400771   -2.692092   -0.175807
     12          7           0        4.143459    1.725987    0.321086
     13          8           0        5.265167    1.989124    0.749068
     14          8           0        3.229730    2.536651    0.184857
     15          6           0       -5.951933    0.940646   -0.763213
     16          6           0       -4.791896    0.946832   -1.544748
     17          6           0       -3.608700    0.378277   -1.063768
     18          6           0       -3.621273   -0.190401    0.208919
     19          6           0       -4.760851   -0.212156    1.011528
     20          6           0       -5.932742    0.362193    0.510185
     21          1           0       -6.866677    1.384563   -1.144759
     22          1           0       -4.803869    1.395359   -2.534054
     23          1           0       -2.696348    0.369309   -1.647679
     24          1           0       -4.718028   -0.666724    1.993847
     25          1           0       -6.832144    0.355946    1.119350
     26          7           0       -2.374660   -0.795371    0.728890
     27          8           0       -2.411814   -1.290084    1.853396
     28          8           0       -1.384016   -0.763377    0.002089
 ---------------------------------------------------------------------

 SCF Done:  E(RHF) =  -868.339724757     A.U. after   16 cycles
 E2 =    -0.2598415249D+01 EUMP2 =    -0.87093814000588D+03

 The electronic state is 1-A.
 Alpha  occ. eigenvalues --  -20.61459 -20.61391 -20.59979 -20.59973 -15.86474
 Alpha  occ. eigenvalues --  -15.85022 -11.31619 -11.30183 -11.28184 -11.28144
 Alpha  occ. eigenvalues --  -11.27857 -11.27131 -11.27114 -11.26774 -11.26624
 Alpha  occ. eigenvalues --  -11.26431 -11.25789 -11.25541  -1.60485  -1.59056
 Alpha  occ. eigenvalues --   -1.40051  -1.38615  -1.19769  -1.18327  -1.09201
 Alpha  occ. eigenvalues --   -1.07771  -1.05142  -1.03675  -0.96075  -0.94641
 Alpha  occ. eigenvalues --   -0.86551  -0.85098  -0.82925  -0.81461  -0.77995
 Alpha  occ. eigenvalues --   -0.76530  -0.72713  -0.71788  -0.71250  -0.70878
 Alpha  occ. eigenvalues --   -0.70372  -0.69459  -0.65430  -0.65143  -0.63975
 Alpha  occ. eigenvalues --   -0.63664  -0.62497  -0.61014  -0.55646  -0.54229
 Alpha  occ. eigenvalues --   -0.53478  -0.53234  -0.52043  -0.51755  -0.49462
 Alpha  occ. eigenvalues --   -0.49416  -0.48011  -0.47986  -0.45504  -0.44065
 Alpha  occ. eigenvalues --   -0.37731  -0.36733  -0.36324  -0.35256
 Alpha virt. eigenvalues --    0.04529   0.05966   0.10924   0.12380   0.16065
 Alpha virt. eigenvalues --    0.17508   0.21031   0.22474   0.26973   0.27623
 Alpha virt. eigenvalues --    0.28627   0.29274   0.30712   0.31916   0.32316

 Mulliken charges:
               1
     1  C   -0.172003
     2  C   -0.215563
     3  C   -0.169303
     4  C    0.157511
     5  C   -0.172965
     6  C   -0.218680
     7  H    0.223037
     8  H    0.235985
     9  H    0.276686
    10  H    0.271940
    11  H    0.219470
    12  N    0.488327
    13  O   -0.463749
    14  O   -0.462338
    15  C   -0.169946
    16  C   -0.218140
    17  C   -0.169899
    18  C    0.158388
    19  C   -0.170186
    20  C   -0.218365
    21  H    0.227436
    22  H    0.224934
    23  H    0.272276
    24  H    0.276578
    25  H    0.225140
    26  N    0.492349
    27  O   -0.455292
    28  O   -0.473630
 Sum of Mulliken charges =  -0.00000

 Dipole moment (field-independent basis, Debye):
    X=             -5.8744    Y=             -2.8503    Z=             -3.1512  Tot=              7.2500
 Quadrupole moment (field-independent basis, Debye-Ang):
   XX=            -75.9347   YY=           -109.8010   ZZ=           -102.3441
   XY=            -27.5147   XZ=             -0.3869   YZ=             -1.0383

 Normal termination of Gaussian 16 at Wed May  5 17:43:13 2021.
