 Gaussian 16, Revision A.03,
 Gaussian 16:  EM64L-G16RevA.03 25-Dec-2016

 -------------
 #p 6-31g* mp2
 -------------

 ------------------------------------------------------
 Input file generated by CHIRIPA (05-May-2021 14:51:10)
 ------------------------------------------------------
 Symbolic Z-matrix:
 Charge =  0 Multiplicity = 1

                         Standard orientation:
 ---------------------------------------------------------------------
 Center     Atomic      Atomic             Coordinates (Angstroms)
 Number     Number       Type             X           Y           Z
 ---------------------------------------------------------------------
      1          6           0       -3.127498   -0.363276   -0.367966
      2          6           0       -4.505058   -1.026687   -0.382050
      3          6           0       -4.429517   -2.542030   -0.571320
      4          1           0       -2.608126   -0.591273   -1.308825
      5          1           0       -2.523891   -0.804648    0.437169
      6          1           0       -5.106363   -0.583224   -1.186034
      7          1           0       -5.021287   -0.796925    0.558872
      8          1           0       -3.852250   -3.002886    0.236749
      9          1           0       -3.937809   -2.787971   -1.518070
     10          1           0       -5.425425   -2.995879   -0.578346
     11          6           0       -3.186516    1.151567   -0.179564
     12          6           0       -1.808956    1.814978   -0.165480
     13          6           0       -1.884497    3.330321    0.023789
     14          1           0       -3.790124    1.592940   -0.984700
     15          1           0       -3.705889    1.379564    0.761295
     16          1           0       -1.292728    1.585217   -1.106402
     17          1           0       -1.207652    1.371516    0.638503
     18          1           0       -2.376205    3.576262    0.970540
     19          1           0       -2.461765    3.791178   -0.784279
     20          1           0       -0.888590    3.784170    0.030816
     21          6           0        3.767406    0.036045    0.113199
     22          6           0        4.837662   -0.705219   -0.688713
     23          6           0        6.052565    0.168595   -1.002175
     24          1           0        3.446944    0.924204   -0.448427
     25          1           0        4.209019    0.401540    1.050636
     26          1           0        4.393807   -1.070402   -1.623727
     27          1           0        5.155476   -1.591820   -0.125200
     28          1           0        6.521626    0.521967   -0.078210
     29          1           0        5.755631    1.046349   -1.585252
     30          1           0        6.805159   -0.381136   -1.575983
     31          6           0        2.546609   -0.824336    0.434331
     32          6           0        1.476352   -0.083073    1.236244
     33          6           0        0.261451   -0.956885    1.549705
     34          1           0        2.104997   -1.189831   -0.503106
     35          1           0        2.867070   -1.712494    0.995957
     36          1           0        1.158539    0.803530    0.672730
     37          1           0        1.920207    0.282111    2.171257
     38          1           0        0.558383   -1.834640    2.132782
     39          1           0       -0.207613   -1.310259    0.625740
     40          1           0       -0.491145   -0.407155    2.123514
 ---------------------------------------------------------------------

 SCF Done:  E(RHF) =  -470.731355850     A.U. after   11 cycles
 E2 =    -0.1584749851D+01 EUMP2 =    -0.47231610570145D+03

 The electronic state is 1-A.
 Alpha  occ. eigenvalues --  -11.21605 -11.21580 -11.21545 -11.21508 -11.21408
 Alpha  occ. eigenvalues --  -11.21349 -11.21337 -11.21245 -11.21075 -11.21071
 Alpha  occ. eigenvalues --  -11.21049 -11.21035  -1.08465  -1.08355  -1.03578
 Alpha  occ. eigenvalues --   -1.03458  -0.96018  -0.95931  -0.87031  -0.86955
 Alpha  occ. eigenvalues --   -0.79686  -0.79505  -0.78244  -0.78209  -0.65205
 Alpha  occ. eigenvalues --   -0.64923  -0.61068  -0.60817  -0.59461  -0.59210
 Alpha  occ. eigenvalues --   -0.57696  -0.57481  -0.55363  -0.55187  -0.52763
 Alpha  occ. eigenvalues --   -0.52591  -0.52519  -0.52287  -0.50024  -0.49825
 Alpha  occ. eigenvalues --   -0.47940  -0.47916  -0.46749  -0.46437  -0.45906
 Alpha  occ. eigenvalues --   -0.45701  -0.45657  -0.45389  -0.43769  -0.43722
 Alpha virt. eigenvalues --    0.21706   0.23029   0.23751   0.24577   0.26012
 Alpha virt. eigenvalues --    0.26340   0.26878   0.27433   0.28312   0.29725
 Alpha virt. eigenvalues --    0.30529   0.30852   0.31740   0.31837   0.32355

 Mulliken charges:
               1
     1  C   -0.305765
     2  C   -0.298891
     3  C   -0.475855
     4  H    0.147567
     5  H    0.159589
     6  H    0.151439
     7  H    0.151566
     8  H    0.155363
     9  H    0.154754
    10  H    0.160123
    11  C   -0.297102
    12  C   -0.309264
    13  C   -0.475391
    14  H    0.149002
    15  H    0.148729
    16  H    0.150029
    17  H    0.164643
    18  H    0.154891
    19  H    0.155036
    20  H    0.159698
    21  C   -0.298382
    22  C   -0.299655
    23  C   -0.475712
    24  H    0.149681
    25  H    0.149519
    26  H    0.151912
    27  H    0.151962
    28  H    0.155186
    29  H    0.155168
    30  H    0.160266
    31  C   -0.298215
    32  C   -0.304481
    33  C   -0.482430
    34  H    0.149838
    35  H    0.149563
    36  H    0.157360
    37  H    0.151519
    38  H    0.156213
    39  H    0.161851
    40  H    0.158673
 Sum of Mulliken charges =  -0.00000

 Dipole moment (field-independent basis, Debye):
    X=              0.0350    Y=             -0.0254    Z=              0.0252  Tot=              0.0501
 Quadrupole moment (field-independent basis, Debye-Ang):
   XX=            -85.7448   YY=            -86.2551   ZZ=            -83.1512
   XY=             -0.6834   XZ=              0.5954   YZ=             -0.3651

 Normal termination of Gaussian 16 at Thu May  6 06:59:20 2021.
