 Gaussian 16, Revision A.03,
 Gaussian 16:  EM64L-G16RevA.03 25-Dec-2016

 -------------
 #p 6-31g* mp2
 -------------

 ------------------------------------------------------
 Input file generated by CHIRIPA (05-May-2021 14:51:09)
 ------------------------------------------------------
 Symbolic Z-matrix:
 Charge =  0 Multiplicity = 1

                         Standard orientation:
 ---------------------------------------------------------------------
 Center     Atomic      Atomic             Coordinates (Angstroms)
 Number     Number       Type             X           Y           Z
 ---------------------------------------------------------------------
      1          6           0        2.648293    0.405253   -0.236992
      2          6           0        3.801230    1.399627   -0.378208
      3          6           0        3.731179    2.205610   -1.675620
      4          1           0        2.655446   -0.279157   -1.096338
      5          1           0        1.695444    0.950815   -0.279830
      6          1           0        4.751652    0.852512   -0.333728
      7          1           0        3.791447    2.081629    0.481672
      8          1           0        2.798327    2.776567   -1.724557
      9          1           0        3.763987    1.540466   -2.544590
     10          1           0        4.564809    2.910205   -1.756041
     11          6           0        2.704478   -0.407966    1.055001
     12          6           0        1.551542   -1.402341    1.196216
     13          6           0        1.621592   -2.208323    2.493629
     14          1           0        3.657328   -0.953528    1.097839
     15          1           0        2.697325    0.276444    1.914347
     16          1           0        1.561324   -2.084343    0.336336
     17          1           0        0.601120   -0.855225    1.151736
     18          1           0        1.588784   -1.543180    3.362599
     19          1           0        2.554445   -2.779280    2.542566
     20          1           0        0.787963   -2.912918    2.574050
     21          6           0       -2.756037   -0.541140   -0.940780
     22          6           0       -1.435165   -1.203576   -1.333798
     23          6           0       -1.610873   -2.286725   -2.398555
     24          1           0       -3.449252   -1.309937   -0.572881
     25          1           0       -3.219946   -0.104636   -1.836127
     26          1           0       -0.973213   -1.637500   -0.437737
     27          1           0       -0.744947   -0.433086   -1.700623
     28          1           0       -2.049236   -1.864730   -3.308697
     29          1           0       -2.278799   -3.075988   -2.038635
     30          1           0       -0.654234   -2.747046   -2.664651
     31          6           0       -2.596735    0.543853    0.122771
     32          6           0       -3.917607    1.206289    0.515789
     33          6           0       -3.741899    2.289439    1.580547
     34          1           0       -2.132826    0.107349    1.018119
     35          1           0       -1.903520    1.312650   -0.245127
     36          1           0       -4.607824    0.435799    0.882614
     37          1           0       -4.379559    1.640212   -0.380272
     38          1           0       -3.073974    3.078700    1.220626
     39          1           0       -3.303535    1.867443    2.490689
     40          1           0       -4.698538    2.749759    1.846642
 ---------------------------------------------------------------------

 SCF Done:  E(RHF) =  -470.732668139     A.U. after   11 cycles
 E2 =    -0.1583939062D+01 EUMP2 =    -0.47231660720076D+03

 The electronic state is 1-A.
 Alpha  occ. eigenvalues --  -11.21628 -11.21598 -11.21547 -11.21457 -11.21424
 Alpha  occ. eigenvalues --  -11.21390 -11.21331 -11.21331 -11.21101 -11.21080
 Alpha  occ. eigenvalues --  -11.21080 -11.21021  -1.08458  -1.08385  -1.03557
 Alpha  occ. eigenvalues --   -1.03480  -0.95980  -0.95969  -0.87008  -0.86974
 Alpha  occ. eigenvalues --   -0.79750  -0.79470  -0.78442  -0.78000  -0.65092
 Alpha  occ. eigenvalues --   -0.65017  -0.60952  -0.60894  -0.59445  -0.59247
 Alpha  occ. eigenvalues --   -0.57609  -0.57561  -0.55277  -0.55249  -0.52702
 Alpha  occ. eigenvalues --   -0.52639  -0.52419  -0.52382  -0.49928  -0.49913
 Alpha  occ. eigenvalues --   -0.48223  -0.47741  -0.46696  -0.46557  -0.46176
 Alpha  occ. eigenvalues --   -0.45718  -0.45675  -0.45111  -0.43788  -0.43746
 Alpha virt. eigenvalues --    0.21265   0.23285   0.23653   0.24050   0.24811
 Alpha virt. eigenvalues --    0.26039   0.26444   0.28007   0.28279   0.29927
 Alpha virt. eigenvalues --    0.30715   0.31371   0.31653   0.31730   0.32109

 Mulliken charges:
               1
     1  C   -0.299381
     2  C   -0.299673
     3  C   -0.475642
     4  H    0.149730
     5  H    0.150794
     6  H    0.151940
     7  H    0.151963
     8  H    0.154808
     9  H    0.155136
    10  H    0.160311
    11  C   -0.297790
    12  C   -0.305828
    13  C   -0.476007
    14  H    0.149225
    15  H    0.149463
    16  H    0.152723
    17  H    0.158619
    18  H    0.155090
    19  H    0.155317
    20  H    0.159435
    21  C   -0.298082
    22  C   -0.306921
    23  C   -0.475530
    24  H    0.149215
    25  H    0.149186
    26  H    0.161221
    27  H    0.153146
    28  H    0.154750
    29  H    0.154643
    30  H    0.159488
    31  C   -0.300647
    32  C   -0.299548
    33  C   -0.475748
    34  H    0.150507
    35  H    0.149171
    36  H    0.152161
    37  H    0.152279
    38  H    0.154976
    39  H    0.155044
    40  H    0.160457
 Sum of Mulliken charges =  -0.00000

 Dipole moment (field-independent basis, Debye):
    X=              0.0069    Y=              0.0001    Z=              0.0123  Tot=              0.0141
 Quadrupole moment (field-independent basis, Debye-Ang):
   XX=            -84.5267   YY=            -84.9229   ZZ=            -85.5088
   XY=             -0.3570   XZ=             -0.3247   YZ=             -0.2162

 Normal termination of Gaussian 16 at Wed May  5 16:39:07 2021.
