 Gaussian 16, Revision A.03,
 Gaussian 16:  EM64L-G16RevA.03 25-Dec-2016

 -------------
 #p 6-31g* mp2
 -------------

 ------------------------------------------------------
 Input file generated by CHIRIPA (05-May-2021 14:53:17)
 ------------------------------------------------------
 Symbolic Z-matrix:
 Charge =  0 Multiplicity = 1

                         Standard orientation:
 ---------------------------------------------------------------------
 Center     Atomic      Atomic             Coordinates (Angstroms)
 Number     Number       Type             X           Y           Z
 ---------------------------------------------------------------------
      1          6           0       -3.244177   -0.519638   -0.044308
      2          6           0       -3.860541   -1.510135    0.944123
      3          6           0       -3.432766   -2.953849    0.678621
      4          1           0       -3.528805   -0.805900   -1.066064
      5          1           0       -2.149109   -0.594007    0.007556
      6          1           0       -4.954102   -1.432937    0.891404
      7          1           0       -3.574570   -1.221370    1.963658
      8          1           0       -2.344855   -3.052821    0.751114
      9          1           0       -3.732226   -3.265590   -0.327233
     10          1           0       -3.884908   -3.645056    1.396717
     11          6           0       -3.662412    0.927792    0.208187
     12          6           0       -3.046048    1.918289   -0.780244
     13          6           0       -3.473823    3.362003   -0.514742
     14          1           0       -4.757480    1.002161    0.156323
     15          1           0       -3.377784    1.214054    1.229943
     16          1           0       -3.332019    1.629524   -1.799779
     17          1           0       -1.952486    1.841091   -0.727525
     18          1           0       -3.174363    3.673744    0.491112
     19          1           0       -4.561734    3.460975   -0.587235
     20          1           0       -3.021681    4.053210   -1.232837
     21          6           0        4.097612    1.778828    0.742105
     22          6           0        4.707657    0.563798    0.413364
     23          6           0        3.941983   -0.516876   -0.034336
     24          6           0        2.562566   -0.346820   -0.141948
     25          6           0        1.925430    0.851107    0.177929
     26          6           0        2.710890    1.918358    0.623546
     27          1           0        4.700091    2.613108    1.089080
     28          1           0        5.784398    0.452566    0.504466
     29          1           0        4.388376   -1.468662   -0.295591
     30          1           0        0.849929    0.931739    0.076872
     31          1           0        2.234409    2.860797    0.878142
     32          7           0        1.741508   -1.483775   -0.614806
     33          8           0        0.528057   -1.308417   -0.700964
     34          8           0        2.326960   -2.528751   -0.890319
 ---------------------------------------------------------------------

 SCF Done:  E(RHF) =  -669.536078030     A.U. after   15 cycles
 E2 =    -0.2091612110D+01 EUMP2 =    -0.67162769013940D+03

 The electronic state is 1-A.
 Alpha  occ. eigenvalues --  -20.60950 -20.60939 -15.85986 -11.31302 -11.27872
 Alpha  occ. eigenvalues --  -11.27861 -11.27599 -11.26871 -11.26862 -11.21412
 Alpha  occ. eigenvalues --  -11.21021 -11.20924 -11.20786 -11.20407 -11.20037
 Alpha  occ. eigenvalues --   -1.60010  -1.39567  -1.19470  -1.08874  -1.07838
 Alpha  occ. eigenvalues --   -1.04867  -1.02974  -0.95718  -0.95402  -0.86418
 Alpha  occ. eigenvalues --   -0.86267  -0.82554  -0.79084  -0.77695  -0.77466
 Alpha  occ. eigenvalues --   -0.72209  -0.71325  -0.70581  -0.65130  -0.64874
 Alpha  occ. eigenvalues --   -0.64476  -0.62216  -0.60383  -0.58822  -0.56994
 Alpha  occ. eigenvalues --   -0.55370  -0.54688  -0.53198  -0.52960  -0.52151
 Alpha  occ. eigenvalues --   -0.51798  -0.49355  -0.48961  -0.48950  -0.47376
 Alpha  occ. eigenvalues --   -0.46150  -0.45129  -0.45096  -0.44815  -0.43198
 Alpha  occ. eigenvalues --   -0.37448  -0.36468
 Alpha virt. eigenvalues --    0.04913   0.11185   0.16405   0.19859   0.22846
 Alpha virt. eigenvalues --    0.24767   0.25280   0.27493   0.27616   0.28538
 Alpha virt. eigenvalues --    0.29418   0.31276   0.31628   0.32116   0.32282

 Mulliken charges:
               1
     1  C   -0.308877
     2  C   -0.298714
     3  C   -0.477092
     4  H    0.149931
     5  H    0.172751
     6  H    0.147402
     7  H    0.147223
     8  H    0.167373
     9  H    0.155128
    10  H    0.154743
    11  C   -0.297873
    12  C   -0.298662
    13  C   -0.475428
    14  H    0.148044
    15  H    0.144681
    16  H    0.155288
    17  H    0.145675
    18  H    0.151469
    19  H    0.156723
    20  H    0.157785
    21  C   -0.170412
    22  C   -0.218699
    23  C   -0.170465
    24  C    0.157300
    25  C   -0.173414
    26  C   -0.219570
    27  H    0.226089
    28  H    0.223878
    29  H    0.275868
    30  H    0.279329
    31  H    0.224241
    32  N    0.494769
    33  O   -0.467679
    34  O   -0.458806
 Sum of Mulliken charges =  -0.00000

 Dipole moment (field-independent basis, Debye):
    X=              3.1090    Y=              3.8685    Z=              1.5814  Tot=              5.2089
 Quadrupole moment (field-independent basis, Debye-Ang):
   XX=            -76.6308   YY=            -97.8655   ZZ=            -95.8103
   XY=              7.2377   XZ=              4.4654   YZ=             -0.6663

 Normal termination of Gaussian 16 at Thu May  6 13:55:38 2021.
