 Gaussian 16, Revision A.03,
 Gaussian 16:  EM64L-G16RevA.03 25-Dec-2016

 -------------
 #p 6-31g* mp2
 -------------

 ------------------------------------------------------
 Input file generated by CHIRIPA (05-May-2021 14:53:12)
 ------------------------------------------------------
 Symbolic Z-matrix:
 Charge =  0 Multiplicity = 1

                         Standard orientation:
 ---------------------------------------------------------------------
 Center     Atomic      Atomic             Coordinates (Angstroms)
 Number     Number       Type             X           Y           Z
 ---------------------------------------------------------------------
      1          6           0        3.009745    0.896555   -0.028274
      2          6           0        2.765104    1.836569    1.152619
      3          6           0        1.794578    2.968951    0.815597
      4          1           0        3.400705    1.476493   -0.875485
      5          1           0        2.050160    0.473014   -0.355697
      6          1           0        3.725036    2.257143    1.478602
      7          1           0        2.374861    1.254294    1.997179
      8          1           0        0.823269    2.565983    0.511007
      9          1           0        2.181115    3.574529   -0.010518
     10          1           0        1.634052    3.628877    1.673845
     11          6           0        3.977842   -0.240649    0.293100
     12          6           0        4.222483   -1.180664   -0.887793
     13          6           0        5.193009   -2.313046   -0.550772
     14          1           0        4.937427    0.182892    0.620523
     15          1           0        3.586882   -0.820588    1.140311
     16          1           0        4.612726   -0.598389   -1.732354
     17          1           0        3.262551   -1.601238   -1.213776
     18          1           0        4.806472   -2.918624    0.275343
     19          1           0        6.164318   -1.910077   -0.246181
     20          1           0        5.353534   -2.972972   -1.409020
     21          6           0       -2.835228   -2.657765    0.662906
     22          6           0       -1.604526   -2.083188    0.328608
     23          6           0       -1.534053   -0.753432   -0.097223
     24          6           0       -2.719307   -0.024039   -0.177536
     25          6           0       -3.960615   -0.568202    0.148552
     26          6           0       -4.007278   -1.899774    0.571971
     27          1           0       -2.880725   -3.691457    0.992765
     28          1           0       -0.692677   -2.669466    0.398278
     29          1           0       -0.594635   -0.283639   -0.362185
     30          1           0       -4.852526    0.041386    0.069076
     31          1           0       -4.964457   -2.343381    0.830946
     32          7           0       -2.657304    1.384675   -0.627067
     33          8           0       -3.715922    2.006032   -0.689359
     34          8           0       -1.551263    1.840794   -0.908606
 ---------------------------------------------------------------------

 SCF Done:  E(RHF) =  -669.535974703     A.U. after   15 cycles
 E2 =    -0.2091847107D+01 EUMP2 =    -0.67162782181024D+03

 The electronic state is 1-A.
 Alpha  occ. eigenvalues --  -20.60933 -20.60919 -15.85958 -11.31282 -11.27851
 Alpha  occ. eigenvalues --  -11.27843 -11.27583 -11.26856 -11.26846 -11.21806
 Alpha  occ. eigenvalues --  -11.21491 -11.21357 -11.21294 -11.21272 -11.20218
 Alpha  occ. eigenvalues --   -1.59987  -1.39544  -1.19452  -1.08855  -1.08416
 Alpha  occ. eigenvalues --   -1.04850  -1.03398  -0.95822  -0.95694  -0.86826
 Alpha  occ. eigenvalues --   -0.86251  -0.82532  -0.79485  -0.78207  -0.77576
 Alpha  occ. eigenvalues --   -0.72183  -0.71298  -0.70564  -0.65115  -0.65085
 Alpha  occ. eigenvalues --   -0.64837  -0.62203  -0.60798  -0.59242  -0.57421
 Alpha  occ. eigenvalues --   -0.55357  -0.55100  -0.53180  -0.52948  -0.52492
 Alpha  occ. eigenvalues --   -0.52215  -0.49770  -0.48941  -0.48930  -0.47764
 Alpha  occ. eigenvalues --   -0.46551  -0.45726  -0.45682  -0.44883  -0.43682
 Alpha  occ. eigenvalues --   -0.37430  -0.36450
 Alpha virt. eigenvalues --    0.04909   0.11196   0.16383   0.19493   0.22836
 Alpha virt. eigenvalues --    0.23908   0.25390   0.27153   0.27603   0.28325
 Alpha virt. eigenvalues --    0.29680   0.30302   0.31548   0.31790   0.32101

 Mulliken charges:
               1
     1  C   -0.299662
     2  C   -0.299992
     3  C   -0.485226
     4  H    0.153847
     5  H    0.144701
     6  H    0.150571
     7  H    0.146941
     8  H    0.177049
     9  H    0.155547
    10  H    0.157375
    11  C   -0.298116
    12  C   -0.298270
    13  C   -0.475443
    14  H    0.151545
    15  H    0.145455
    16  H    0.154920
    17  H    0.145661
    18  H    0.152600
    19  H    0.156938
    20  H    0.160293
    21  C   -0.170331
    22  C   -0.220801
    23  C   -0.176448
    24  C    0.157383
    25  C   -0.170046
    26  C   -0.218874
    27  H    0.226030
    28  H    0.223905
    29  H    0.283927
    30  H    0.275866
    31  H    0.223838
    32  N    0.489719
    33  O   -0.458555
    34  O   -0.462345
 Sum of Mulliken charges =  -0.00000

 Dipole moment (field-independent basis, Debye):
    X=             -0.3419    Y=             -4.8666    Z=              1.5227  Tot=              5.1107
 Quadrupole moment (field-independent basis, Debye-Ang):
   XX=            -88.2519   YY=            -95.3912   ZZ=            -96.2103
   XY=             14.4078   XZ=             -5.4541   YZ=              0.5502

 Normal termination of Gaussian 16 at Thu May  6 05:44:12 2021.
