 Gaussian 16, Revision A.03,
 Gaussian 16:  EM64L-G16RevA.03 25-Dec-2016

 -------------
 #p 6-31g* mp2
 -------------

 ------------------------------------------------------
 Input file generated by CHIRIPA (05-May-2021 14:51:11)
 ------------------------------------------------------
 Symbolic Z-matrix:
 Charge =  0 Multiplicity = 1

                         Standard orientation:
 ---------------------------------------------------------------------
 Center     Atomic      Atomic             Coordinates (Angstroms)
 Number     Number       Type             X           Y           Z
 ---------------------------------------------------------------------
      1          6           0       -3.680809   -0.355288   -0.383418
      2          6           0       -4.897118   -0.025222    0.482395
      3          6           0       -6.027067    0.631345   -0.311286
      4          1           0       -3.312645    0.566630   -0.854021
      5          1           0       -3.991018   -1.021061   -1.200677
      6          1           0       -4.584435    0.638619    1.298582
      7          1           0       -5.262312   -0.948003    0.951143
      8          1           0       -6.367041   -0.028972   -1.115650
      9          1           0       -5.685312    1.566665   -0.766237
     10          1           0       -6.886529    0.858764    0.327044
     11          6           0       -2.542793   -1.012137    0.395811
     12          6           0       -1.326484   -1.342203   -0.470002
     13          6           0       -0.196534   -1.998770    0.323679
     14          1           0       -2.232584   -0.346364    1.213070
     15          1           0       -2.910956   -1.934055    0.866414
     16          1           0       -0.961289   -0.419422   -0.938750
     17          1           0       -1.639166   -2.006044   -1.286189
     18          1           0       -0.538289   -2.934090    0.778630
     19          1           0        0.143439   -1.338453    1.128043
     20          1           0        0.662928   -2.226189   -0.314651
     21          6           0        2.848963    1.398795    0.048616
     22          6           0        1.323472    1.489689   -0.002384
     23          6           0        0.812854    2.926624    0.108442
     24          1           0        3.205318    1.844698    0.987300
     25          1           0        3.272752    2.003299   -0.765247
     26          1           0        0.902649    0.884081    0.810489
     27          1           0        0.970694    1.043346   -0.940969
     28          1           0        1.205033    3.539020   -0.709951
     29          1           0        1.136602    3.378850    1.051458
     30          1           0       -0.280133    2.968394    0.069777
     31          6           0        3.374639   -0.031371   -0.061010
     32          6           0        4.900129   -0.122264   -0.010008
     33          6           0        5.410747   -1.559199   -0.120835
     34          1           0        2.950849   -0.635873    0.752854
     35          1           0        3.018284   -0.477273   -0.999693
     36          1           0        5.252908    0.324080    0.928577
     37          1           0        5.320952    0.483344   -0.822882
     38          1           0        5.087000   -2.011426   -1.063851
     39          1           0        5.018568   -2.171596    0.697558
     40          1           0        6.503734   -1.600969   -0.082170
 ---------------------------------------------------------------------

 SCF Done:  E(RHF) =  -470.731999248     A.U. after   11 cycles
 E2 =    -0.1584608082D+01 EUMP2 =    -0.47231660732997D+03

 The electronic state is 1-A.
 Alpha  occ. eigenvalues --  -11.21601 -11.21592 -11.21587 -11.21488 -11.21404
 Alpha  occ. eigenvalues --  -11.21375 -11.21336 -11.21312 -11.21120 -11.21063
 Alpha  occ. eigenvalues --  -11.21060 -11.20957  -1.08470  -1.08363  -1.03590
 Alpha  occ. eigenvalues --   -1.03442  -0.95996  -0.95937  -0.87011  -0.86955
 Alpha  occ. eigenvalues --   -0.79662  -0.79520  -0.78275  -0.78199  -0.65106
 Alpha  occ. eigenvalues --   -0.65010  -0.61000  -0.60908  -0.59341  -0.59286
 Alpha  occ. eigenvalues --   -0.57615  -0.57537  -0.55285  -0.55252  -0.52727
 Alpha  occ. eigenvalues --   -0.52620  -0.52417  -0.52327  -0.50018  -0.49846
 Alpha  occ. eigenvalues --   -0.48120  -0.47690  -0.46923  -0.46412  -0.45916
 Alpha  occ. eigenvalues --   -0.45821  -0.45525  -0.45383  -0.43795  -0.43720
 Alpha virt. eigenvalues --    0.20864   0.22897   0.23887   0.24434   0.24927
 Alpha virt. eigenvalues --    0.26295   0.26495   0.27774   0.28769   0.29891
 Alpha virt. eigenvalues --    0.30383   0.30568   0.31643   0.32038   0.32327

 Mulliken charges:
               1
     1  C   -0.298218
     2  C   -0.299614
     3  C   -0.475680
     4  H    0.149197
     5  H    0.149518
     6  H    0.151811
     7  H    0.151944
     8  H    0.155157
     9  H    0.155104
    10  H    0.160208
    11  C   -0.298233
    12  C   -0.304900
    13  C   -0.477700
    14  H    0.148880
    15  H    0.149479
    16  H    0.157977
    17  H    0.151183
    18  H    0.153997
    19  H    0.156151
    20  H    0.162530
    21  C   -0.297854
    22  C   -0.305393
    23  C   -0.475777
    24  H    0.149314
    25  H    0.149273
    26  H    0.156167
    27  H    0.154634
    28  H    0.155352
    29  H    0.155325
    30  H    0.159326
    31  C   -0.300280
    32  C   -0.299668
    33  C   -0.475753
    34  H    0.152843
    35  H    0.149470
    36  H    0.151827
    37  H    0.151739
    38  H    0.154931
    39  H    0.155498
    40  H    0.160238
 Sum of Mulliken charges =  -0.00000

 Dipole moment (field-independent basis, Debye):
    X=              0.0339    Y=              0.0031    Z=             -0.0012  Tot=              0.0341
 Quadrupole moment (field-independent basis, Debye-Ang):
   XX=            -85.8476   YY=            -85.2388   ZZ=            -83.8906
   XY=              1.2760   XZ=             -0.2866   YZ=              0.2396

 Normal termination of Gaussian 16 at Wed May  5 15:13:38 2021.
