 Gaussian 16, Revision A.03,
 Gaussian 16:  EM64L-G16RevA.03 25-Dec-2016

 -------------
 #p 6-31g* mp2
 -------------

 ------------------------------------------------------
 Input file generated by CHIRIPA (05-May-2021 14:51:08)
 ------------------------------------------------------
 Symbolic Z-matrix:
 Charge =  0 Multiplicity = 1

                         Standard orientation:
 ---------------------------------------------------------------------
 Center     Atomic      Atomic             Coordinates (Angstroms)
 Number     Number       Type             X           Y           Z
 ---------------------------------------------------------------------
      1          6           0       -3.007894   -0.655589   -0.104051
      2          6           0       -3.986758   -1.742659   -0.549123
      3          6           0       -3.548574   -3.143748   -0.121643
      4          1           0       -2.014404   -0.873299   -0.519412
      5          1           0       -2.904121   -0.690695    0.989290
      6          1           0       -4.089713   -1.704611   -1.641171
      7          1           0       -4.978077   -1.522233   -0.132812
      8          1           0       -3.464132   -3.205233    0.968169
      9          1           0       -2.570721   -3.388647   -0.548761
     10          1           0       -4.262628   -3.905392   -0.450101
     11          6           0       -3.432242    0.750577   -0.523996
     12          6           0       -2.453379    1.837647   -0.078923
     13          6           0       -2.891563    3.238735   -0.506404
     14          1           0       -3.536015    0.785683   -1.617337
     15          1           0       -4.425732    0.968286   -0.108635
     16          1           0       -1.462060    1.617220   -0.495235
     17          1           0       -2.350424    1.799598    1.013125
     18          1           0       -3.869416    3.483634   -0.079286
     19          1           0       -2.976005    3.300220   -1.596216
     20          1           0       -2.177509    4.000379   -0.177946
     21          6           0        2.491145    0.179314    0.339727
     22          6           0        1.815379   -0.102538    1.682070
     23          6           0        0.357490    0.356878    1.717974
     24          1           0        2.439322    1.256344    0.129336
     25          1           0        1.927773   -0.322658   -0.459042
     26          1           0        2.380652    0.398677    2.478228
     27          1           0        1.868986   -1.178997    1.889380
     28          1           0       -0.226052   -0.152329    0.944161
     29          1           0        0.288519    1.434310    1.536354
     30          1           0       -0.106232    0.145742    2.686604
     31          6           0        3.948992   -0.274302    0.288319
     32          6           0        4.624757    0.007550   -1.054023
     33          6           0        6.082647   -0.451866   -1.089927
     34          1           0        4.512364    0.227671    1.087088
     35          1           0        4.000814   -1.351333    0.498711
     36          1           0        4.571151    1.084009   -1.261334
     37          1           0        4.059485   -0.493665   -1.850182
     38          1           0        6.151617   -1.529297   -0.908308
     39          1           0        6.666189    0.057341   -0.316114
     40          1           0        6.546369   -0.240729   -2.058557
 ---------------------------------------------------------------------

 SCF Done:  E(RHF) =  -470.731563109     A.U. after   11 cycles
 E2 =    -0.1584244373D+01 EUMP2 =    -0.47231580748241D+03

 The electronic state is 1-A.
 Alpha  occ. eigenvalues --  -11.21600 -11.21596 -11.21506 -11.21455 -11.21387
 Alpha  occ. eigenvalues --  -11.21385 -11.21328 -11.21315 -11.21084 -11.21067
 Alpha  occ. eigenvalues --  -11.21004 -11.20850  -1.08439  -1.08369  -1.03527
 Alpha  occ. eigenvalues --   -1.03446  -0.95968  -0.95922  -0.87003  -0.86930
 Alpha  occ. eigenvalues --   -0.79725  -0.79462  -0.78355  -0.78026  -0.65073
 Alpha  occ. eigenvalues --   -0.65001  -0.60901  -0.60878  -0.59360  -0.59285
 Alpha  occ. eigenvalues --   -0.57597  -0.57543  -0.55262  -0.55192  -0.52763
 Alpha  occ. eigenvalues --   -0.52600  -0.52411  -0.52290  -0.49903  -0.49881
 Alpha  occ. eigenvalues --   -0.48167  -0.47687  -0.46613  -0.46584  -0.45987
 Alpha  occ. eigenvalues --   -0.45724  -0.45648  -0.45182  -0.43757  -0.43718
 Alpha virt. eigenvalues --    0.21935   0.23137   0.23973   0.24267   0.25762
 Alpha virt. eigenvalues --    0.26063   0.26789   0.27772   0.27816   0.29726
 Alpha virt. eigenvalues --    0.30847   0.31210   0.31623   0.31741   0.32329

 Mulliken charges:
               1
     1  C   -0.301608
     2  C   -0.298805
     3  C   -0.475686
     4  H    0.149501
     5  H    0.152065
     6  H    0.151772
     7  H    0.152052
     8  H    0.155323
     9  H    0.154576
    10  H    0.160343
    11  C   -0.297971
    12  C   -0.301939
    13  C   -0.475688
    14  H    0.148860
    15  H    0.149233
    16  H    0.154455
    17  H    0.155717
    18  H    0.154641
    19  H    0.154625
    20  H    0.159455
    21  C   -0.298170
    22  C   -0.300655
    23  C   -0.480922
    24  H    0.149328
    25  H    0.148129
    26  H    0.151038
    27  H    0.151230
    28  H    0.164911
    29  H    0.156517
    30  H    0.157637
    31  C   -0.298065
    32  C   -0.299598
    33  C   -0.475688
    34  H    0.149634
    35  H    0.149663
    36  H    0.151863
    37  H    0.151655
    38  H    0.155179
    39  H    0.155214
    40  H    0.160178
 Sum of Mulliken charges =  -0.00000

 Dipole moment (field-independent basis, Debye):
    X=             -0.0347    Y=             -0.0014    Z=              0.0075  Tot=              0.0355
 Quadrupole moment (field-independent basis, Debye-Ang):
   XX=            -85.7245   YY=            -85.2569   ZZ=            -84.0767
   XY=              0.7636   XZ=             -0.3226   YZ=              0.6487

 Normal termination of Gaussian 16 at Wed May  5 18:07:50 2021.
