 Gaussian 16, Revision A.03,
 Gaussian 16:  EM64L-G16RevA.03 25-Dec-2016

 -------------
 #p 6-31g* mp2
 -------------

 ------------------------------------------------------
 Input file generated by CHIRIPA (05-May-2021 14:53:12)
 ------------------------------------------------------
 Symbolic Z-matrix:
 Charge =  0 Multiplicity = 1

                         Standard orientation:
 ---------------------------------------------------------------------
 Center     Atomic      Atomic             Coordinates (Angstroms)
 Number     Number       Type             X           Y           Z
 ---------------------------------------------------------------------
      1          6           0       -3.088300    0.620771    0.075954
      2          6           0       -2.887791    1.733041   -0.953918
      3          6           0       -2.281835    2.998702   -0.346699
      4          1           0       -3.737032    0.989111    0.882439
      5          1           0       -2.120999    0.379934    0.538254
      6          1           0       -3.854950    1.970749   -1.415127
      7          1           0       -2.239616    1.361949   -1.758142
      8          1           0       -1.304528    2.783223    0.097192
      9          1           0       -2.929040    3.395482    0.442156
     10          1           0       -2.147121    3.780790   -1.100391
     11          6           0       -3.693298   -0.651000   -0.515910
     12          6           0       -3.893807   -1.763270    0.513962
     13          6           0       -4.499762   -3.028931   -0.093256
     14          1           0       -4.660599   -0.410163   -0.978210
     15          1           0       -3.044566   -1.019340   -1.322395
     16          1           0       -4.541981   -1.392178    1.318186
     17          1           0       -2.926648   -2.000978    0.975172
     18          1           0       -3.852558   -3.425711   -0.882112
     19          1           0       -5.477070   -2.813452   -0.537148
     20          1           0       -4.634477   -3.811019    0.660435
     21          6           0        1.050820    1.618933    1.280323
     22          6           0        1.525885    1.881558   -0.008809
     23          6           0        2.411760    0.998096   -0.632720
     24          6           0        2.803574   -0.143562    0.064695
     25          6           0        2.347832   -0.432956    1.349936
     26          6           0        1.462583    0.464549    1.954393
     27          1           0        0.362893    2.310682    1.757436
     28          1           0        1.207808    2.777284   -0.534688
     29          1           0        2.795049    1.176942   -1.629977
     30          1           0        2.682875   -1.334125    1.848991
     31          1           0        1.095268    0.258025    2.955628
     32          7           0        3.741079   -1.086278   -0.585515
     33          8           0        4.071098   -2.085100    0.050157
     34          8           0        4.128125   -0.808505   -1.718508
 ---------------------------------------------------------------------

 SCF Done:  E(RHF) =  -669.534944521     A.U. after   15 cycles
 E2 =    -0.2092781999D+01 EUMP2 =    -0.67162772651931D+03

 The electronic state is 1-A.
 Alpha  occ. eigenvalues --  -20.60821 -20.60816 -15.85875 -11.31263 -11.27830
 Alpha  occ. eigenvalues --  -11.27821 -11.27562 -11.26853 -11.26827 -11.22258
 Alpha  occ. eigenvalues --  -11.22009 -11.21941 -11.21917 -11.21755 -11.21303
 Alpha  occ. eigenvalues --   -1.59896  -1.39449  -1.19440  -1.08939  -1.08821
 Alpha  occ. eigenvalues --   -1.04841  -1.04059  -0.96533  -0.95662  -0.87558
 Alpha  occ. eigenvalues --   -0.86236  -0.82490  -0.80138  -0.78718  -0.77530
 Alpha  occ. eigenvalues --   -0.72093  -0.71220  -0.70573  -0.65579  -0.65092
 Alpha  occ. eigenvalues --   -0.64840  -0.62210  -0.61426  -0.59909  -0.58131
 Alpha  occ. eigenvalues --   -0.55864  -0.55317  -0.53230  -0.53194  -0.52947
 Alpha  occ. eigenvalues --   -0.52896  -0.50464  -0.48852  -0.48846  -0.48443
 Alpha  occ. eigenvalues --   -0.47148  -0.46266  -0.46160  -0.44849  -0.44293
 Alpha  occ. eigenvalues --   -0.37372  -0.36435
 Alpha virt. eigenvalues --    0.04964   0.11099   0.16387   0.20578   0.22641
 Alpha virt. eigenvalues --    0.24046   0.26054   0.26430   0.26851   0.27727
 Alpha virt. eigenvalues --    0.29070   0.30514   0.31082   0.31359   0.31756

 Mulliken charges:
               1
     1  C   -0.301384
     2  C   -0.298151
     3  C   -0.482277
     4  H    0.148216
     5  H    0.150104
     6  H    0.154842
     7  H    0.154270
     8  H    0.147940
     9  H    0.156637
    10  H    0.161273
    11  C   -0.298748
    12  C   -0.299943
    13  C   -0.476124
    14  H    0.150378
    15  H    0.152399
    16  H    0.151015
    17  H    0.151619
    18  H    0.157304
    19  H    0.155574
    20  H    0.161037
    21  C   -0.171537
    22  C   -0.218402
    23  C   -0.171897
    24  C    0.158456
    25  C   -0.171079
    26  C   -0.220242
    27  H    0.228514
    28  H    0.226280
    29  H    0.275974
    30  H    0.275924
    31  H    0.224321
    32  N    0.488071
    33  O   -0.460197
    34  O   -0.460164
 Sum of Mulliken charges =  -0.00000

 Dipole moment (field-independent basis, Debye):
    X=             -3.3353    Y=              3.2443    Z=              2.2517  Tot=              5.1691
 Quadrupole moment (field-independent basis, Debye-Ang):
   XX=           -113.1604   YY=            -95.4032   ZZ=            -91.3688
   XY=              9.3432   XZ=              5.9798   YZ=             -3.0713

 Normal termination of Gaussian 16 at Thu May  6 07:15:51 2021.
