 Gaussian 16, Revision A.03,
 Gaussian 16:  EM64L-G16RevA.03 25-Dec-2016

 -------------
 #p 6-31g* mp2
 -------------

 ------------------------------------------------------
 Input file generated by CHIRIPA (05-May-2021 14:55:20)
 ------------------------------------------------------
 Symbolic Z-matrix:
 Charge =  0 Multiplicity = 1

                         Standard orientation:
 ---------------------------------------------------------------------
 Center     Atomic      Atomic             Coordinates (Angstroms)
 Number     Number       Type             X           Y           Z
 ---------------------------------------------------------------------
      1          6           0        3.209287   -2.425814    0.794362
      2          6           0        2.691317   -1.467035    1.671273
      3          6           0        2.320879   -0.202939    1.202888
      4          6           0        2.482647    0.069734   -0.154599
      5          6           0        2.995787   -0.864331   -1.053210
      6          6           0        3.359604   -2.121937   -0.562688
      7          1           0        3.494481   -3.405273    1.166813
      8          1           0        2.573469   -1.700247    2.725677
      9          1           0        1.917302    0.558012    1.859772
     10          1           0        3.101565   -0.602532   -2.099006
     11          1           0        3.761595   -2.864577   -1.246014
     12          7           0        2.093986    1.404540   -0.662175
     13          8           0        2.246381    1.620011   -1.862585
     14          8           0        1.644317    2.210017    0.150009
     15          6           0       -3.473197   -0.353365   -0.399192
     16          6           0       -4.483752   -1.337214    0.191405
     17          6           0       -4.901040   -2.423018   -0.800913
     18          1           0       -3.905635    0.113112   -1.294928
     19          1           0       -2.584861   -0.907209   -0.733124
     20          1           0       -5.369340   -0.781513    0.525386
     21          1           0       -4.048932   -1.801262    1.085948
     22          1           0       -4.031062   -3.002698   -1.126044
     23          1           0       -5.358974   -1.977154   -1.689791
     24          1           0       -5.623773   -3.115367   -0.358001
     25          6           0       -3.046364    0.738027    0.580810
     26          6           0       -2.035809    1.721876   -0.009788
     27          6           0       -1.618520    2.807679    0.982530
     28          1           0       -3.934700    1.291870    0.914742
     29          1           0       -2.613926    0.271550    1.476545
     30          1           0       -2.470630    2.185924   -0.904331
     31          1           0       -1.150220    1.166174   -0.343768
     32          1           0       -1.160587    2.361817    1.871408
     33          1           0       -2.488499    3.387359    1.307661
     34          1           0       -0.895789    3.500029    0.539619
 ---------------------------------------------------------------------

 SCF Done:  E(RHF) =  -669.535758565     A.U. after   15 cycles
 E2 =    -0.2092194089D+01 EUMP2 =    -0.67162795265371D+03

 The electronic state is 1-A.
 Alpha  occ. eigenvalues --  -20.60959 -20.60934 -15.85967 -11.31304 -11.27865
 Alpha  occ. eigenvalues --  -11.27861 -11.27601 -11.26872 -11.26862 -11.21373
 Alpha  occ. eigenvalues --  -11.21010 -11.20923 -11.20834 -11.20697 -11.19831
 Alpha  occ. eigenvalues --   -1.60008  -1.39563  -1.19471  -1.08875  -1.07929
 Alpha  occ. eigenvalues --   -1.04866  -1.02925  -0.95725  -0.95354  -0.86392
 Alpha  occ. eigenvalues --   -0.86265  -0.82546  -0.79034  -0.77708  -0.77598
 Alpha  occ. eigenvalues --   -0.72204  -0.71334  -0.70576  -0.65128  -0.64869
 Alpha  occ. eigenvalues --   -0.64572  -0.62213  -0.60335  -0.58772  -0.56933
 Alpha  occ. eigenvalues --   -0.55369  -0.54683  -0.53198  -0.52958  -0.52007
 Alpha  occ. eigenvalues --   -0.51800  -0.49368  -0.48955  -0.48933  -0.47319
 Alpha  occ. eigenvalues --   -0.46109  -0.45281  -0.45229  -0.44832  -0.43168
 Alpha  occ. eigenvalues --   -0.37449  -0.36468
 Alpha virt. eigenvalues --    0.04911   0.11171   0.16376   0.21179   0.23219
 Alpha virt. eigenvalues --    0.24645   0.26812   0.27222   0.27813   0.27951
 Alpha virt. eigenvalues --    0.29007   0.30786   0.31681   0.32056   0.32641

 Mulliken charges:
               1
     1  C   -0.170582
     2  C   -0.218622
     3  C   -0.171507
     4  C    0.157115
     5  C   -0.170722
     6  C   -0.218611
     7  H    0.226074
     8  H    0.223924
     9  H    0.276410
    10  H    0.275988
    11  H    0.223914
    12  N    0.489305
    13  O   -0.458808
    14  O   -0.458634
    15  C   -0.297281
    16  C   -0.298802
    17  C   -0.475188
    18  H    0.150502
    19  H    0.147018
    20  H    0.151976
    21  H    0.149211
    22  H    0.153368
    23  H    0.155779
    24  H    0.158728
    25  C   -0.297423
    26  C   -0.297133
    27  C   -0.471930
    28  H    0.148328
    29  H    0.144059
    30  H    0.151817
    31  H    0.148562
    32  H    0.146157
    33  H    0.145707
    34  H    0.181300
 Sum of Mulliken charges =  -0.00000

 Dipole moment (field-independent basis, Debye):
    X=              1.6122    Y=             -4.5791    Z=              1.7086  Tot=              5.1465
 Quadrupole moment (field-independent basis, Debye-Ang):
   XX=            -88.4836   YY=            -95.6905   ZZ=            -91.5457
   XY=            -13.1007   XZ=              3.0408   YZ=              1.3633

 Normal termination of Gaussian 16 at Thu May  6 10:49:23 2021.
