 Gaussian 16, Revision A.03,
 Gaussian 16:  EM64L-G16RevA.03 25-Dec-2016

 -------------
 #p 6-31g* mp2
 -------------

 ------------------------------------------------------
 Input file generated by CHIRIPA (05-May-2021 14:55:25)
 ------------------------------------------------------
 Symbolic Z-matrix:
 Charge =  0 Multiplicity = 1

                         Standard orientation:
 ---------------------------------------------------------------------
 Center     Atomic      Atomic             Coordinates (Angstroms)
 Number     Number       Type             X           Y           Z
 ---------------------------------------------------------------------
      1          6           0        4.046386   -2.365415    0.229839
      2          6           0        4.722856   -1.404501    0.988492
      3          6           0        4.377079   -0.053165    0.894276
      4          6           0        3.345258    0.303622    0.027478
      5          6           0        2.652472   -0.630219   -0.741467
      6          6           0        3.015171   -1.975894   -0.631202
      7          1           0        4.321567   -3.412966    0.309262
      8          1           0        5.524117   -1.704114    1.658013
      9          1           0        4.884189    0.711513    1.470059
     10          1           0        1.858019   -0.301045   -1.400183
     11          1           0        2.488077   -2.719974   -1.221592
     12          7           0        2.970242    1.731224   -0.080759
     13          8           0        2.057590    2.019800   -0.851751
     14          8           0        3.596058    2.534572    0.607445
     15          6           0       -5.087456   -0.267731   -0.210527
     16          6           0       -6.057625    0.131176    0.901963
     17          6           0       -7.507003   -0.236013    0.582168
     18          1           0       -5.392661    0.219553   -1.146662
     19          1           0       -5.162992   -1.350355   -0.382618
     20          1           0       -5.979280    1.212505    1.072854
     21          1           0       -5.749963   -0.356963    1.835602
     22          1           0       -7.606728   -1.315904    0.432200
     23          1           0       -7.837347    0.262481   -0.334881
     24          1           0       -8.183437    0.058111    1.390740
     25          6           0       -3.634631    0.092790    0.094515
     26          6           0       -2.664462   -0.306116   -1.017975
     27          6           0       -1.215084    0.061072   -0.698180
     28          1           0       -3.559095    1.175414    0.266605
     29          1           0       -3.329427   -0.394494    1.030650
     30          1           0       -2.972124    0.182022   -1.951614
     31          1           0       -2.742807   -1.387446   -1.188866
     32          1           0       -0.884740   -0.437422    0.218868
     33          1           0       -1.115360    1.140963   -0.548213
     34          1           0       -0.538649   -0.233052   -1.506751
 ---------------------------------------------------------------------

 SCF Done:  E(RHF) =  -669.535448892     A.U. after   15 cycles
 E2 =    -0.2091413605D+01 EUMP2 =    -0.67162686249786D+03

 The electronic state is 1-A.
 Alpha  occ. eigenvalues --  -20.60745 -20.60737 -15.85785 -11.31130 -11.27717
 Alpha  occ. eigenvalues --  -11.27671 -11.27464 -11.26729 -11.26712 -11.21496
 Alpha  occ. eigenvalues --  -11.21493 -11.21291 -11.21223 -11.20988 -11.20915
 Alpha  occ. eigenvalues --   -1.59810  -1.39364  -1.19311  -1.08712  -1.08315
 Alpha  occ. eigenvalues --   -1.04715  -1.03419  -0.95875  -0.95541  -0.86894
 Alpha  occ. eigenvalues --   -0.86107  -0.82381  -0.79488  -0.78127  -0.77418
 Alpha  occ. eigenvalues --   -0.72008  -0.71127  -0.70432  -0.64972  -0.64936
 Alpha  occ. eigenvalues --   -0.64731  -0.62099  -0.60803  -0.59245  -0.57486
 Alpha  occ. eigenvalues --   -0.55235  -0.55126  -0.53069  -0.52956  -0.52399
 Alpha  occ. eigenvalues --   -0.52277  -0.49782  -0.48767  -0.48758  -0.47796
 Alpha  occ. eigenvalues --   -0.46500  -0.45671  -0.45588  -0.44758  -0.43677
 Alpha  occ. eigenvalues --   -0.37298  -0.36306
 Alpha virt. eigenvalues --    0.05082   0.11309   0.16579   0.20973   0.23004
 Alpha virt. eigenvalues --    0.24204   0.26255   0.26788   0.27640   0.27840
 Alpha virt. eigenvalues --    0.28937   0.30506   0.31559   0.31578   0.32008

 Mulliken charges:
               1
     1  C   -0.170646
     2  C   -0.218957
     3  C   -0.170581
     4  C    0.156480
     5  C   -0.171779
     6  C   -0.221098
     7  H    0.225320
     8  H    0.223159
     9  H    0.275369
    10  H    0.283342
    11  H    0.223232
    12  N    0.487829
    13  O   -0.460533
    14  O   -0.460577
    15  C   -0.298124
    16  C   -0.299671
    17  C   -0.475642
    18  H    0.150159
    19  H    0.147913
    20  H    0.153224
    21  H    0.151410
    22  H    0.154304
    23  H    0.155420
    24  H    0.160218
    25  C   -0.299018
    26  C   -0.300075
    27  C   -0.476590
    28  H    0.152962
    29  H    0.148620
    30  H    0.153543
    31  H    0.147319
    32  H    0.151748
    33  H    0.173037
    34  H    0.148682
 Sum of Mulliken charges =  -0.00000

 Dipole moment (field-independent basis, Debye):
    X=              1.3023    Y=             -4.9083    Z=              0.4033  Tot=              5.0941
 Quadrupole moment (field-independent basis, Debye-Ang):
   XX=            -85.2056   YY=            -97.3434   ZZ=            -92.9115
   XY=            -16.2968   XZ=              4.0610   YZ=              0.3776

 Normal termination of Gaussian 16 at Thu May  6 03:11:54 2021.
