 Gaussian 16, Revision A.03,
 Gaussian 16:  EM64L-G16RevA.03 25-Dec-2016

 -------------
 #p 6-31g* mp2
 -------------

 ------------------------------------------------------
 Input file generated by CHIRIPA (05-May-2021 14:51:10)
 ------------------------------------------------------
 Symbolic Z-matrix:
 Charge =  0 Multiplicity = 1

                         Standard orientation:
 ---------------------------------------------------------------------
 Center     Atomic      Atomic             Coordinates (Angstroms)
 Number     Number       Type             X           Y           Z
 ---------------------------------------------------------------------
      1          6           0        4.534781   -0.175289    0.212968
      2          6           0        5.067856   -0.710285   -1.116542
      3          6           0        6.567266   -0.468276   -1.292602
      4          1           0        4.744020    0.901245    0.278075
      5          1           0        5.083228   -0.650757    1.037911
      6          1           0        4.517620   -0.234977   -1.938697
      7          1           0        4.857153   -1.785632   -1.178574
      8          1           0        7.132880   -0.956720   -0.492537
      9          1           0        6.791418    0.602745   -1.256978
     10          1           0        6.927271   -0.858583   -2.249638
     11          6           0        3.037309   -0.409721    0.403618
     12          6           0        2.504233    0.125274    1.733127
     13          6           0        1.004824   -0.116734    1.909188
     14          1           0        2.488862    0.065746   -0.421325
     15          1           0        2.828069   -1.486255    0.338511
     16          1           0        2.714937    1.200621    1.795160
     17          1           0        3.054470   -0.350034    2.555282
     18          1           0        0.780672   -1.187756    1.873564
     19          1           0        0.439210    0.371710    1.109122
     20          1           0        0.644819    0.273572    2.866223
     21          6           0       -4.219468   -0.196982    0.086648
     22          6           0       -5.106816   -1.072179   -0.799146
     23          6           0       -5.967978   -2.046226    0.005482
     24          1           0       -3.572941   -0.841521    0.697809
     25          1           0       -4.852872    0.364678    0.787172
     26          1           0       -4.472026   -1.630979   -1.498718
     27          1           0       -5.751171   -0.425478   -1.408408
     28          1           0       -6.625027   -1.502781    0.692179
     29          1           0       -5.338614   -2.715131    0.601358
     30          1           0       -6.594379   -2.661979   -0.647458
     31          6           0       -3.352621    0.781993   -0.703234
     32          6           0       -2.465274    1.657189    0.182560
     33          6           0       -1.604111    2.631237   -0.622067
     34          1           0       -2.719218    0.220333   -1.403757
     35          1           0       -3.999149    1.426531   -1.314395
     36          1           0       -1.820919    1.010488    0.791823
     37          1           0       -3.100063    2.215990    0.882131
     38          1           0       -2.233475    3.300142   -1.217943
     39          1           0       -0.947063    2.087791   -1.308765
     40          1           0       -0.977711    3.246990    0.030872
 ---------------------------------------------------------------------

 SCF Done:  E(RHF) =  -470.733249094     A.U. after   11 cycles
 E2 =    -0.1582594304D+01 EUMP2 =    -0.47231584339805D+03

 The electronic state is 1-A.
 Alpha  occ. eigenvalues --  -11.21624 -11.21614 -11.21574 -11.21533 -11.21424
 Alpha  occ. eigenvalues --  -11.21369 -11.21364 -11.21309 -11.21093 -11.21087
 Alpha  occ. eigenvalues --  -11.21080 -11.21048  -1.08450  -1.08397  -1.03562
 Alpha  occ. eigenvalues --   -1.03496  -0.96015  -0.95951  -0.87026  -0.86974
 Alpha  occ. eigenvalues --   -0.79659  -0.79528  -0.78272  -0.78197  -0.65126
 Alpha  occ. eigenvalues --   -0.64997  -0.61099  -0.60783  -0.59368  -0.59328
 Alpha  occ. eigenvalues --   -0.57633  -0.57551  -0.55390  -0.55150  -0.52702
 Alpha  occ. eigenvalues --   -0.52653  -0.52436  -0.52379  -0.50008  -0.49858
 Alpha  occ. eigenvalues --   -0.48016  -0.47821  -0.46768  -0.46468  -0.45857
 Alpha  occ. eigenvalues --   -0.45755  -0.45714  -0.45551  -0.43803  -0.43755
 Alpha virt. eigenvalues --    0.21377   0.23043   0.23664   0.24931   0.26215
 Alpha virt. eigenvalues --    0.26617   0.27189   0.27509   0.28031   0.28851
 Alpha virt. eigenvalues --    0.30773   0.31577   0.31702   0.31749   0.32042

 Mulliken charges:
               1
     1  C   -0.298322
     2  C   -0.299683
     3  C   -0.475723
     4  H    0.149833
     5  H    0.149577
     6  H    0.151968
     7  H    0.151876
     8  H    0.155192
     9  H    0.155266
    10  H    0.160290
    11  C   -0.298514
    12  C   -0.299394
    13  C   -0.481829
    14  H    0.149540
    15  H    0.149489
    16  H    0.152230
    17  H    0.151965
    18  H    0.154774
    19  H    0.161535
    20  H    0.160598
    21  C   -0.298466
    22  C   -0.299635
    23  C   -0.475691
    24  H    0.150300
    25  H    0.149426
    26  H    0.151886
    27  H    0.151811
    28  H    0.155133
    29  H    0.155213
    30  H    0.160127
    31  C   -0.297764
    32  C   -0.307229
    33  C   -0.476031
    34  H    0.149220
    35  H    0.149377
    36  H    0.159844
    37  H    0.151915
    38  H    0.155511
    39  H    0.154163
    40  H    0.160222
 Sum of Mulliken charges =  -0.00000

 Dipole moment (field-independent basis, Debye):
    X=              0.0138    Y=             -0.0016    Z=              0.0148  Tot=              0.0203
 Quadrupole moment (field-independent basis, Debye-Ang):
   XX=            -85.8630   YY=            -84.0790   ZZ=            -84.8833
   XY=             -1.3223   XZ=              0.6115   YZ=              0.0103

 Normal termination of Gaussian 16 at Wed May  5 19:46:56 2021.
