 Gaussian 16, Revision A.03,
 Gaussian 16:  EM64L-G16RevA.03 25-Dec-2016

 -------------
 #p 6-31g* mp2
 -------------

 ------------------------------------------------------
 Input file generated by CHIRIPA (05-May-2021 14:55:20)
 ------------------------------------------------------
 Symbolic Z-matrix:
 Charge =  0 Multiplicity = 1

                         Standard orientation:
 ---------------------------------------------------------------------
 Center     Atomic      Atomic             Coordinates (Angstroms)
 Number     Number       Type             X           Y           Z
 ---------------------------------------------------------------------
      1          6           0        1.186845    1.623334   -0.847478
      2          6           0        1.280312    0.349476   -1.417627
      3          6           0        2.367237   -0.480428   -1.127107
      4          6           0        3.347034   -0.002339   -0.258361
      5          6           0        3.282257    1.261854    0.325514
      6          6           0        2.186354    2.074662    0.020742
      7          1           0        0.339007    2.261383   -1.078696
      8          1           0        0.505563   -0.003660   -2.092241
      9          1           0        2.464609   -1.471004   -1.554536
     10          1           0        4.070196    1.586180    0.994381
     11          1           0        2.116388    3.063496    0.464990
     12          7           0        4.502465   -0.871871    0.056743
     13          8           0        5.352470   -0.427291    0.825168
     14          8           0        4.536210   -1.981526   -0.470670
     15          6           0       -3.295576   -0.017949    0.350427
     16          6           0       -2.532747   -0.291430    1.647070
     17          6           0       -1.043799    0.038554    1.537811
     18          1           0       -2.847014   -0.605495   -0.462301
     19          1           0       -3.172448    1.039088    0.076736
     20          1           0       -2.658418   -1.347314    1.918973
     21          1           0       -2.983297    0.296689    2.456846
     22          1           0       -0.900579    1.095322    1.290164
     23          1           0       -0.573856   -0.558022    0.749234
     24          1           0       -0.517727   -0.164390    2.475853
     25          6           0       -4.785331   -0.342935    0.443926
     26          6           0       -5.548161   -0.069455   -0.852718
     27          6           0       -7.037110   -0.399438   -0.743458
     28          1           0       -4.908459   -1.399972    0.717617
     29          1           0       -5.233893    0.244610    1.256654
     30          1           0       -5.097611   -0.657573   -1.662493
     31          1           0       -5.422488    0.986430   -1.124620
     32          1           0       -7.507052    0.197137    0.045118
     33          1           0       -7.180328   -1.456207   -0.495812
     34          1           0       -7.563180   -0.196495   -1.681501
 ---------------------------------------------------------------------

 SCF Done:  E(RHF) =  -669.534409537     A.U. after   15 cycles
 E2 =    -0.2092703904D+01 EUMP2 =    -0.67162711344127D+03

 The electronic state is 1-A.
 Alpha  occ. eigenvalues --  -20.60742 -20.60737 -15.85797 -11.31154 -11.27745
 Alpha  occ. eigenvalues --  -11.27741 -11.27471 -11.26742 -11.26723 -11.22097
 Alpha  occ. eigenvalues --  -11.22050 -11.21992 -11.21866 -11.21473 -11.21400
 Alpha  occ. eigenvalues --   -1.59818  -1.39372  -1.19342  -1.08948  -1.08734
 Alpha  occ. eigenvalues --   -1.04751  -1.03983  -0.96436  -0.95568  -0.87448
 Alpha  occ. eigenvalues --   -0.86147  -0.82406  -0.80052  -0.78781  -0.77449
 Alpha  occ. eigenvalues --   -0.72017  -0.71142  -0.70460  -0.65576  -0.64997
 Alpha  occ. eigenvalues --   -0.64755  -0.62100  -0.61381  -0.59803  -0.58083
 Alpha  occ. eigenvalues --   -0.55744  -0.55242  -0.53522  -0.53074  -0.52843
 Alpha  occ. eigenvalues --   -0.52461  -0.50381  -0.48774  -0.48770  -0.48342
 Alpha  occ. eigenvalues --   -0.47094  -0.46308  -0.46249  -0.44780  -0.44254
 Alpha  occ. eigenvalues --   -0.37217  -0.36322
 Alpha virt. eigenvalues --    0.05072   0.11240   0.16492   0.20648   0.22601
 Alpha virt. eigenvalues --    0.24017   0.25583   0.26586   0.27426   0.27659
 Alpha virt. eigenvalues --    0.28788   0.30297   0.31513   0.31562   0.31764

 Mulliken charges:
               1
     1  C   -0.164264
     2  C   -0.218924
     3  C   -0.171729
     4  C    0.158733
     5  C   -0.170202
     6  C   -0.218931
     7  H    0.225569
     8  H    0.223570
     9  H    0.275377
    10  H    0.275568
    11  H    0.223154
    12  N    0.488116
    13  O   -0.460592
    14  O   -0.460712
    15  C   -0.297036
    16  C   -0.300690
    17  C   -0.474701
    18  H    0.145400
    19  H    0.144011
    20  H    0.154172
    21  H    0.152338
    22  H    0.147169
    23  H    0.158031
    24  H    0.162982
    25  C   -0.298256
    26  C   -0.299712
    27  C   -0.475934
    28  H    0.151677
    29  H    0.151045
    30  H    0.150926
    31  H    0.150420
    32  H    0.156010
    33  H    0.156470
    34  H    0.160945
 Sum of Mulliken charges =  -0.00000

 Dipole moment (field-independent basis, Debye):
    X=             -4.1005    Y=              3.0479    Z=             -1.0806  Tot=              5.2222
 Quadrupole moment (field-independent basis, Debye-Ang):
   XX=           -122.9905   YY=            -91.6998   ZZ=            -92.8511
   XY=             11.6586   XZ=             -1.5800   YZ=              1.8892

 Normal termination of Gaussian 16 at Wed May  5 23:48:25 2021.
