 Gaussian 16, Revision A.03,
 Gaussian 16:  EM64L-G16RevA.03 25-Dec-2016

 -------------
 #p 6-31g* mp2
 -------------

 ------------------------------------------------------
 Input file generated by CHIRIPA (05-May-2021 14:57:23)
 ------------------------------------------------------
 Symbolic Z-matrix:
 Charge =  0 Multiplicity = 1

                         Standard orientation:
 ---------------------------------------------------------------------
 Center     Atomic      Atomic             Coordinates (Angstroms)
 Number     Number       Type             X           Y           Z
 ---------------------------------------------------------------------
      1          6           0       -1.129954    1.397467    1.836865
      2          6           0       -0.778872    0.071178    1.564433
      3          6           0       -1.599489   -0.730783    0.765688
      4          6           0       -2.769185   -0.171592    0.253431
      5          6           0       -3.146221    1.146328    0.506854
      6          6           0       -2.310427    1.929870    1.308138
      7          1           0       -0.486584    2.013296    2.458336
      8          1           0        0.137303   -0.344951    1.973705
      9          1           0       -1.351732   -1.760636    0.538889
     10          1           0       -4.065784    1.533133    0.084713
     11          1           0       -2.585602    2.959561    1.518047
     12          7           0       -3.645969   -1.010843   -0.593509
     13          8           0       -4.671175   -0.494544   -1.032855
     14          8           0       -3.291385   -2.169055   -0.801957
     15          6           0        4.004251   -1.767521    0.711451
     16          6           0        2.705708   -2.049469    0.274630
     17          6           0        1.932234   -1.059420   -0.338631
     18          6           0        2.491309    0.207367   -0.499793
     19          6           0        3.781976    0.519186   -0.075250
     20          6           0        4.537301   -0.486353    0.535427
     21          1           0        4.598055   -2.542631    1.186843
     22          1           0        2.289146   -3.043548    0.410018
     23          1           0        0.924208   -1.250425   -0.686221
     24          1           0        4.169953    1.519559   -0.224065
     25          1           0        5.545479   -0.264529    0.873680
     26          7           0        1.682073    1.263686   -1.147657
     27          8           0        2.197644    2.371770   -1.277944
     28          8           0        0.547547    0.963544   -1.512899
 ---------------------------------------------------------------------

 SCF Done:  E(RHF) =  -868.335889686     A.U. after   16 cycles
 E2 =    -0.2604266874D+01 EUMP2 =    -0.87094015656056D+03

 The electronic state is 1-A.
 Alpha  occ. eigenvalues --  -20.61250 -20.61174 -20.60410 -20.60382 -15.86253
 Alpha  occ. eigenvalues --  -15.85448 -11.31767 -11.30731 -11.28359 -11.28337
 Alpha  occ. eigenvalues --  -11.28103 -11.27394 -11.27389 -11.27360 -11.27218
 Alpha  occ. eigenvalues --  -11.26996 -11.26332 -11.26244  -1.60284  -1.59467
 Alpha  occ. eigenvalues --   -1.39832  -1.39030  -1.19975  -1.18869  -1.09320
 Alpha  occ. eigenvalues --   -1.08291  -1.05407  -1.04308  -0.96136  -0.95158
 Alpha  occ. eigenvalues --   -0.86770  -0.85726  -0.82964  -0.82027  -0.78006
 Alpha  occ. eigenvalues --   -0.77079  -0.72487  -0.71690  -0.71630  -0.71059
 Alpha  occ. eigenvalues --   -0.70766  -0.70049  -0.65604  -0.65377  -0.64570
 Alpha  occ. eigenvalues --   -0.64375  -0.62770  -0.61665  -0.55850  -0.54833
 Alpha  occ. eigenvalues --   -0.53763  -0.53487  -0.52523  -0.52399  -0.49259
 Alpha  occ. eigenvalues --   -0.49222  -0.48444  -0.48421  -0.45183  -0.44457
 Alpha  occ. eigenvalues --   -0.37981  -0.37119  -0.36760  -0.35677
 Alpha virt. eigenvalues --    0.04446   0.05521   0.10513   0.11789   0.15948
 Alpha virt. eigenvalues --    0.17031   0.20430   0.21972   0.25768   0.27447
 Alpha virt. eigenvalues --    0.28013   0.29459   0.30434   0.31095   0.32070

 Mulliken charges:
               1
     1  C   -0.169144
     2  C   -0.217630
     3  C   -0.170636
     4  C    0.165838
     5  C   -0.167288
     6  C   -0.211989
     7  H    0.224080
     8  H    0.219648
     9  H    0.263361
    10  H    0.275336
    11  H    0.223723
    12  N    0.488615
    13  O   -0.459133
    14  O   -0.465978
    15  C   -0.170681
    16  C   -0.224176
    17  C   -0.179523
    18  C    0.156832
    19  C   -0.171721
    20  C   -0.219221
    21  H    0.228003
    22  H    0.225994
    23  H    0.282421
    24  H    0.276676
    25  H    0.225293
    26  N    0.487604
    27  O   -0.462302
    28  O   -0.454002
 Sum of Mulliken charges =  -0.00000

 Dipole moment (field-independent basis, Debye):
    X=              5.9269    Y=             -0.5387    Z=              5.1342  Tot=              7.8600
 Quadrupole moment (field-independent basis, Debye-Ang):
   XX=           -103.0429   YY=           -103.0232   ZZ=           -107.1945
   XY=            -18.1704   XZ=             -2.2127   YZ=              2.6294

 Normal termination of Gaussian 16 at Wed May  5 22:38:56 2021.
