 Gaussian 16, Revision A.03,
 Gaussian 16:  EM64L-G16RevA.03 25-Dec-2016

 -------------
 #p 6-31g* mp2
 -------------

 ------------------------------------------------------
 Input file generated by CHIRIPA (05-May-2021 14:53:16)
 ------------------------------------------------------
 Symbolic Z-matrix:
 Charge =  0 Multiplicity = 1

                         Standard orientation:
 ---------------------------------------------------------------------
 Center     Atomic      Atomic             Coordinates (Angstroms)
 Number     Number       Type             X           Y           Z
 ---------------------------------------------------------------------
      1          6           0       -3.586061   -0.754571   -0.281988
      2          6           0       -2.555913   -1.224901    0.745422
      3          6           0       -1.334946   -1.881429    0.100438
      4          1           0       -3.906938   -1.612130   -0.889092
      5          1           0       -3.108303   -0.044801   -0.971459
      6          1           0       -3.035831   -1.932516    1.433590
      7          1           0       -2.237594   -0.366158    1.350277
      8          1           0       -0.830411   -1.179893   -0.571792
      9          1           0       -1.633184   -2.755151   -0.488005
     10          1           0       -0.611411   -2.210124    0.852979
     11          6           0       -4.812422   -0.096121    0.347464
     12          6           0       -5.842569    0.374209   -0.679946
     13          6           0       -7.063537    1.030737   -0.034963
     14          1           0       -5.290180   -0.805891    1.036934
     15          1           0       -4.491545    0.761438    0.954568
     16          1           0       -6.160889   -0.484534   -1.284801
     17          1           0       -5.362652    1.081824   -1.368115
     18          1           0       -6.765299    1.904458    0.553480
     19          1           0       -7.568071    0.329201    0.637267
     20          1           0       -7.787071    1.359432   -0.787504
     21          6           0        2.050076    2.530016    0.121540
     22          6           0        3.447677    2.512576    0.067403
     23          6           0        4.139989    1.300723   -0.014244
     24          6           0        3.399625    0.119835   -0.039799
     25          6           0        2.006679    0.104405    0.012662
     26          6           0        1.335299    1.327995    0.094045
     27          1           0        1.520403    3.475972    0.184863
     28          1           0        4.005392    3.444535    0.088586
     29          1           0        5.221538    1.258272   -0.057458
     30          1           0        1.478215   -0.840910   -0.010245
     31          1           0        0.249859    1.338505    0.135953
     32          7           0        4.121465   -1.169313   -0.126095
     33          8           0        3.445991   -2.195923   -0.147096
     34          8           0        5.349050   -1.128725   -0.171099
 ---------------------------------------------------------------------

 SCF Done:  E(RHF) =  -669.535199564     A.U. after   15 cycles
 E2 =    -0.2091771316D+01 EUMP2 =    -0.67162697088034D+03

 The electronic state is 1-A.
 Alpha  occ. eigenvalues --  -20.60702 -20.60696 -15.85752 -11.31095 -11.27695
 Alpha  occ. eigenvalues --  -11.27601 -11.27448 -11.26711 -11.26690 -11.22316
 Alpha  occ. eigenvalues --  -11.22048 -11.22006 -11.21893 -11.21844 -11.21453
 Alpha  occ. eigenvalues --   -1.59776  -1.39330  -1.19284  -1.09017  -1.08688
 Alpha  occ. eigenvalues --   -1.04696  -1.04114  -0.96575  -0.95519  -0.87596
 Alpha  occ. eigenvalues --   -0.86086  -0.82356  -0.80185  -0.78808  -0.77397
 Alpha  occ. eigenvalues --   -0.71973  -0.71099  -0.70409  -0.65671  -0.64940
 Alpha  occ. eigenvalues --   -0.64703  -0.62218  -0.61377  -0.59921  -0.58159
 Alpha  occ. eigenvalues --   -0.55883  -0.55174  -0.53313  -0.53050  -0.52948
 Alpha  occ. eigenvalues --   -0.52715  -0.50498  -0.48731  -0.48725  -0.48483
 Alpha  occ. eigenvalues --   -0.47215  -0.46348  -0.46277  -0.44739  -0.44355
 Alpha  occ. eigenvalues --   -0.37278  -0.36290
 Alpha virt. eigenvalues --    0.05117   0.11350   0.16583   0.19352   0.22639
 Alpha virt. eigenvalues --    0.23692   0.25752   0.26321   0.26958   0.28133
 Alpha virt. eigenvalues --    0.29149   0.29724   0.31296   0.31436   0.32279

 Mulliken charges:
               1
     1  C   -0.298818
     2  C   -0.301177
     3  C   -0.484840
     4  H    0.153525
     5  H    0.146092
     6  H    0.157541
     7  H    0.147117
     8  H    0.147922
     9  H    0.164797
    10  H    0.167341
    11  C   -0.298367
    12  C   -0.299927
    13  C   -0.475930
    14  H    0.151875
    15  H    0.147678
    16  H    0.153765
    17  H    0.151046
    18  H    0.154588
    19  H    0.156435
    20  H    0.161564
    21  C   -0.170579
    22  C   -0.219075
    23  C   -0.170295
    24  C    0.158924
    25  C   -0.178324
    26  C   -0.223717
    27  H    0.225126
    28  H    0.223125
    29  H    0.275325
    30  H    0.286120
    31  H    0.224541
    32  N    0.487815
    33  O   -0.460394
    34  O   -0.460819
 Sum of Mulliken charges =  -0.00000

 Dipole moment (field-independent basis, Debye):
    X=             -2.7381    Y=              4.3993    Z=              0.3157  Tot=              5.1914
 Quadrupole moment (field-independent basis, Debye-Ang):
   XX=           -108.4842   YY=            -91.9858   ZZ=            -95.8093
   XY=             18.9193   XZ=              1.3673   YZ=             -0.4010

 Normal termination of Gaussian 16 at Thu May  6 15:33:27 2021.
