 Gaussian 16, Revision A.03,
 Gaussian 16:  EM64L-G16RevA.03 25-Dec-2016

 -------------
 #p 6-31g* mp2
 -------------

 ------------------------------------------------------
 Input file generated by CHIRIPA (05-May-2021 14:55:24)
 ------------------------------------------------------
 Symbolic Z-matrix:
 Charge =  0 Multiplicity = 1

                         Standard orientation:
 ---------------------------------------------------------------------
 Center     Atomic      Atomic             Coordinates (Angstroms)
 Number     Number       Type             X           Y           Z
 ---------------------------------------------------------------------
      1          6           0       -1.402727    0.328034    1.625758
      2          6           0       -1.843609   -0.981318    1.407258
      3          6           0       -2.987004   -1.226970    0.641196
      4          6           0       -3.668393   -0.134792    0.106272
      5          6           0       -3.254206    1.181189    0.306105
      6          6           0       -2.108189    1.403213    1.075455
      7          1           0       -0.513492    0.509685    2.222130
      8          1           0       -1.297724   -1.818254    1.833396
      9          1           0       -3.350444   -2.230531    0.456278
     10          1           0       -3.819304    1.995070   -0.131707
     11          1           0       -1.768114    2.421131    1.243492
     12          7           0       -4.880243   -0.382345   -0.706463
     13          8           0       -5.462874    0.597104   -1.166742
     14          8           0       -5.224512   -1.551140   -0.867817
     15          6           0        5.173142    0.276229   -0.160966
     16          6           0        6.077961   -0.955057   -0.217732
     17          6           0        7.541854   -0.627028    0.077576
     18          1           0        5.535414    1.023093   -0.880618
     19          1           0        5.253373    0.736043    0.833785
     20          1           0        5.994989   -1.413207   -1.211628
     21          1           0        5.713378   -1.699152    0.502003
     22          1           0        7.644941   -0.190536    1.076299
     23          1           0        7.928152    0.097035   -0.647069
     24          1           0        8.170863   -1.521512    0.031685
     25          6           0        3.706643   -0.035611   -0.454000
     26          6           0        2.801825    1.195675   -0.397235
     27          6           0        1.337931    0.867647   -0.692541
     28          1           0        3.626411   -0.495424   -1.448751
     29          1           0        3.344371   -0.782474    0.265652
     30          1           0        3.166407    1.939771   -1.116969
     31          1           0        2.884796    1.653825    0.596662
     32          1           0        0.951633    0.143584    0.032102
     33          1           0        1.234844    0.431154   -1.691265
     34          1           0        0.708922    1.762131   -0.646651
 ---------------------------------------------------------------------

 SCF Done:  E(RHF) =  -669.534460299     A.U. after   15 cycles
 E2 =    -0.2092207506D+01 EUMP2 =    -0.67162666780529D+03

 The electronic state is 1-A.
 Alpha  occ. eigenvalues --  -20.60742 -20.60736 -15.85798 -11.31156 -11.27758
 Alpha  occ. eigenvalues --  -11.27752 -11.27496 -11.26755 -11.26737 -11.22196
 Alpha  occ. eigenvalues --  -11.22015 -11.21942 -11.21839 -11.21605 -11.21426
 Alpha  occ. eigenvalues --   -1.59818  -1.39372  -1.19351  -1.08946  -1.08747
 Alpha  occ. eigenvalues --   -1.04757  -1.04029  -0.96479  -0.95577  -0.87486
 Alpha  occ. eigenvalues --   -0.86157  -0.82414  -0.80091  -0.78750  -0.77452
 Alpha  occ. eigenvalues --   -0.72017  -0.71142  -0.70487  -0.65581  -0.65008
 Alpha  occ. eigenvalues --   -0.64765  -0.62108  -0.61444  -0.59848  -0.58083
 Alpha  occ. eigenvalues --   -0.55868  -0.55216  -0.53434  -0.52971  -0.52845
 Alpha  occ. eigenvalues --   -0.52738  -0.50383  -0.48775  -0.48770  -0.48402
 Alpha  occ. eigenvalues --   -0.47136  -0.46289  -0.46219  -0.44779  -0.44287
 Alpha  occ. eigenvalues --   -0.37225  -0.36353
 Alpha virt. eigenvalues --    0.05078   0.11189   0.16510   0.20588   0.22591
 Alpha virt. eigenvalues --    0.24014   0.26050   0.26685   0.27149   0.27438
 Alpha virt. eigenvalues --    0.28988   0.30058   0.31129   0.31498   0.31875

 Mulliken charges:
               1
     1  C   -0.166036
     2  C   -0.219978
     3  C   -0.169982
     4  C    0.158190
     5  C   -0.171236
     6  C   -0.217424
     7  H    0.226025
     8  H    0.223119
     9  H    0.275660
    10  H    0.275603
    11  H    0.223081
    12  N    0.488146
    13  O   -0.460596
    14  O   -0.460625
    15  C   -0.298336
    16  C   -0.299843
    17  C   -0.475914
    18  H    0.151161
    19  H    0.148466
    20  H    0.153192
    21  H    0.151066
    22  H    0.154960
    23  H    0.156078
    24  H    0.161365
    25  C   -0.297720
    26  C   -0.300762
    27  C   -0.475693
    28  H    0.152128
    29  H    0.146085
    30  H    0.154365
    31  H    0.146714
    32  H    0.152076
    33  H    0.159571
    34  H    0.157096
 Sum of Mulliken charges =  -0.00000

 Dipole moment (field-independent basis, Debye):
    X=              4.3191    Y=              0.8634    Z=              2.8184  Tot=              5.2291
 Quadrupole moment (field-independent basis, Debye-Ang):
   XX=           -127.7887   YY=            -90.2024   ZZ=            -93.8066
   XY=             -4.5623   XZ=            -10.5801   YZ=             -1.2670

 Normal termination of Gaussian 16 at Thu May  6 00:00:02 2021.
