 Gaussian 16, Revision A.03,
 Gaussian 16:  EM64L-G16RevA.03 25-Dec-2016

 -------------
 #p 6-31g* mp2
 -------------

 ------------------------------------------------------
 Input file generated by CHIRIPA (05-May-2021 14:51:11)
 ------------------------------------------------------
 Symbolic Z-matrix:
 Charge =  0 Multiplicity = 1

                         Standard orientation:
 ---------------------------------------------------------------------
 Center     Atomic      Atomic             Coordinates (Angstroms)
 Number     Number       Type             X           Y           Z
 ---------------------------------------------------------------------
      1          6           0        2.912591   -0.680238    0.175963
      2          6           0        2.237371   -1.747864   -0.685567
      3          6           0        0.761650   -1.943003   -0.336336
      4          1           0        2.818563   -0.958888    1.234480
      5          1           0        2.377141    0.271575    0.054552
      6          1           0        2.774773   -2.697046   -0.563635
      7          1           0        2.333185   -1.466737   -1.742167
      8          1           0        0.206126   -1.009975   -0.475809
      9          1           0        0.650223   -2.247275    0.709419
     10          1           0        0.298616   -2.710632   -0.964194
     11          6           0        4.388166   -0.473676   -0.161289
     12          6           0        5.063387    0.593950    0.700241
     13          6           0        6.539108    0.789089    0.351010
     14          1           0        4.923617   -1.425489   -0.039878
     15          1           0        4.482195   -0.195026   -1.219806
     16          1           0        4.967573    0.312823    1.756841
     17          1           0        4.525984    1.543132    0.578309
     18          1           0        6.650534    1.093361   -0.694745
     19          1           0        7.094632   -0.143939    0.490483
     20          1           0        7.002142    1.556718    0.978868
     21          6           0       -3.310688    1.258706   -0.064433
     22          6           0       -1.818185    1.167648   -0.384008
     23          6           0       -1.152630    2.539689   -0.495069
     24          1           0       -3.810949    1.848403   -0.844780
     25          1           0       -3.444023    1.809238    0.877125
     26          1           0       -1.687625    0.616251   -1.323971
     27          1           0       -1.321449    0.577938    0.397088
     28          1           0       -1.253391    3.093860    0.443730
     29          1           0       -1.621647    3.132391   -1.287109
     30          1           0       -0.086034    2.451159   -0.723971
     31          6           0       -3.990070   -0.104792    0.049759
     32          6           0       -5.482573   -0.013734    0.369334
     33          6           0       -6.148128   -1.385775    0.480395
     34          1           0       -3.856734   -0.655324   -0.891798
     35          1           0       -3.489808   -0.694490    0.830106
     36          1           0       -5.979309    0.575977   -0.411762
     37          1           0       -5.613133    0.537663    1.309298
     38          1           0       -5.679110   -1.978477    1.272436
     39          1           0       -6.047367   -1.939946   -0.458403
     40          1           0       -7.214724   -1.297246    0.709297
 ---------------------------------------------------------------------

 SCF Done:  E(RHF) =  -470.732889906     A.U. after   11 cycles
 E2 =    -0.1583026230D+01 EUMP2 =    -0.47231591613584D+03

 The electronic state is 1-A.
 Alpha  occ. eigenvalues --  -11.21618 -11.21593 -11.21589 -11.21545 -11.21406
 Alpha  occ. eigenvalues --  -11.21387 -11.21342 -11.21328 -11.21131 -11.21061
 Alpha  occ. eigenvalues --  -11.21059 -11.20913  -1.08445  -1.08397  -1.03566
 Alpha  occ. eigenvalues --   -1.03473  -0.96001  -0.95931  -0.87031  -0.86937
 Alpha  occ. eigenvalues --   -0.79714  -0.79478  -0.78298  -0.78170  -0.65075
 Alpha  occ. eigenvalues --   -0.65030  -0.60963  -0.60891  -0.59403  -0.59279
 Alpha  occ. eigenvalues --   -0.57674  -0.57491  -0.55280  -0.55225  -0.52703
 Alpha  occ. eigenvalues --   -0.52623  -0.52474  -0.52320  -0.49958  -0.49904
 Alpha  occ. eigenvalues --   -0.48116  -0.47687  -0.46673  -0.46569  -0.45885
 Alpha  occ. eigenvalues --   -0.45733  -0.45701  -0.45475  -0.43795  -0.43748
 Alpha virt. eigenvalues --    0.21365   0.23029   0.23619   0.24926   0.26103
 Alpha virt. eigenvalues --    0.26479   0.26700   0.27250   0.28462   0.29060
 Alpha virt. eigenvalues --    0.30723   0.31219   0.31552   0.31769   0.32040

 Mulliken charges:
               1
     1  C   -0.298951
     2  C   -0.298978
     3  C   -0.485027
     4  H    0.149459
     5  H    0.149402
     6  H    0.151477
     7  H    0.151353
     8  H    0.167525
     9  H    0.153529
    10  H    0.159390
    11  C   -0.298221
    12  C   -0.299633
    13  C   -0.475690
    14  H    0.149609
    15  H    0.149567
    16  H    0.151876
    17  H    0.151882
    18  H    0.155165
    19  H    0.155162
    20  H    0.160221
    21  C   -0.297271
    22  C   -0.305283
    23  C   -0.476563
    24  H    0.149495
    25  H    0.149502
    26  H    0.152868
    27  H    0.156510
    28  H    0.155735
    29  H    0.155569
    30  H    0.159734
    31  C   -0.298525
    32  C   -0.299660
    33  C   -0.475681
    34  H    0.149727
    35  H    0.150332
    36  H    0.151833
    37  H    0.151857
    38  H    0.155309
    39  H    0.155222
    40  H    0.160173
 Sum of Mulliken charges =  -0.00000

 Dipole moment (field-independent basis, Debye):
    X=             -0.0438    Y=              0.0202    Z=              0.0042  Tot=              0.0485
 Quadrupole moment (field-independent basis, Debye-Ang):
   XX=            -86.2941   YY=            -85.2808   ZZ=            -83.3222
   XY=             -0.9984   XZ=              0.6172   YZ=             -0.3898

 Normal termination of Gaussian 16 at Thu May  6 02:14:49 2021.
