 Gaussian 16, Revision A.03,
 Gaussian 16:  EM64L-G16RevA.03 25-Dec-2016

 -------------
 #p 6-31g* mp2
 -------------

 ------------------------------------------------------
 Input file generated by CHIRIPA (05-May-2021 14:51:11)
 ------------------------------------------------------
 Symbolic Z-matrix:
 Charge =  0 Multiplicity = 1

                         Standard orientation:
 ---------------------------------------------------------------------
 Center     Atomic      Atomic             Coordinates (Angstroms)
 Number     Number       Type             X           Y           Z
 ---------------------------------------------------------------------
      1          6           0        5.388198   -0.430349   -0.309645
      2          6           0        6.672888   -0.172441    0.478416
      3          6           0        7.917829   -0.709508   -0.228318
      4          1           0        5.279061   -1.510587   -0.477336
      5          1           0        5.475962    0.032752   -1.302232
      6          1           0        6.582179   -0.634709    1.469727
      7          1           0        6.778880    0.907293    0.644416
      8          1           0        8.036057   -0.240030   -1.210262
      9          1           0        7.838238   -1.790794   -0.380262
     10          1           0        8.824755   -0.514370    0.352428
     11          6           0        4.135017    0.100774    0.384021
     12          6           0        2.850327   -0.157135   -0.404041
     13          6           0        1.605386    0.379932    0.302694
     14          1           0        4.047253   -0.362328    1.376608
     15          1           0        4.244154    1.181012    0.551712
     16          1           0        2.744335   -1.236869   -0.570040
     17          1           0        2.941036    0.305134   -1.395351
     18          1           0        1.684977    1.461218    0.454638
     19          1           0        1.487158   -0.089546    1.284638
     20          1           0        0.698460    0.184794   -0.278053
     21          6           0       -5.504062    0.088377    0.125156
     22          6           0       -6.039715   -1.320034   -0.134533
     23          6           0       -7.526462   -1.457133    0.194988
     24          1           0       -5.673176    0.349618    1.178767
     25          1           0       -6.080805    0.808340   -0.471849
     26          1           0       -5.461227   -2.037276    0.461730
     27          1           0       -5.869133   -1.578027   -1.187605
     28          1           0       -8.120527   -0.764111   -0.409504
     29          1           0       -7.710303   -1.225971    1.249202
     30          1           0       -7.888539   -2.471785    0.002010
     31          6           0       -4.019154    0.241200   -0.199532
     32          6           0       -3.483499    1.649610    0.060158
     33          6           0       -1.996753    1.786708   -0.269363
     34          1           0       -3.442410   -0.478764    0.397472
     35          1           0       -3.850038   -0.020042   -1.253144
     36          1           0       -3.654083    1.907603    1.113228
     37          1           0       -4.061988    2.366853   -0.536106
     38          1           0       -1.812911    1.555546   -1.323577
     39          1           0       -1.402688    1.093688    0.335128
     40          1           0       -1.634676    2.801361   -0.076386
 ---------------------------------------------------------------------

 SCF Done:  E(RHF) =  -470.732901510     A.U. after   11 cycles
 E2 =    -0.1582320760D+01 EUMP2 =    -0.47231522227071D+03

 The electronic state is 1-A.
 Alpha  occ. eigenvalues --  -11.21588 -11.21581 -11.21549 -11.21546 -11.21382
 Alpha  occ. eigenvalues --  -11.21372 -11.21323 -11.21312 -11.21060 -11.21055
 Alpha  occ. eigenvalues --  -11.20970 -11.20966  -1.08406  -1.08391  -1.03520
 Alpha  occ. eigenvalues --   -1.03467  -0.96008  -0.95882  -0.87073  -0.86855
 Alpha  occ. eigenvalues --   -0.79655  -0.79467  -0.78228  -0.78197  -0.65034
 Alpha  occ. eigenvalues --   -0.65025  -0.60907  -0.60885  -0.59368  -0.59291
 Alpha  occ. eigenvalues --   -0.57668  -0.57443  -0.55252  -0.55220  -0.52903
 Alpha  occ. eigenvalues --   -0.52613  -0.52378  -0.52124  -0.49891  -0.49855
 Alpha  occ. eigenvalues --   -0.47950  -0.47785  -0.46600  -0.46583  -0.45766
 Alpha  occ. eigenvalues --   -0.45747  -0.45683  -0.45677  -0.43766  -0.43669
 Alpha virt. eigenvalues --    0.22691   0.22954   0.23729   0.24696   0.26474
 Alpha virt. eigenvalues --    0.26665   0.26857   0.27503   0.27659   0.28953
 Alpha virt. eigenvalues --    0.30795   0.31217   0.31421   0.32003   0.32138

 Mulliken charges:
               1
     1  C   -0.298215
     2  C   -0.299575
     3  C   -0.475674
     4  H    0.149536
     5  H    0.149471
     6  H    0.151842
     7  H    0.151902
     8  H    0.155156
     9  H    0.155130
    10  H    0.160171
    11  C   -0.298457
    12  C   -0.300036
    13  C   -0.478884
    14  H    0.149273
    15  H    0.149563
    16  H    0.151510
    17  H    0.151893
    18  H    0.155792
    19  H    0.153572
    20  H    0.165718
    21  C   -0.298204
    22  C   -0.299630
    23  C   -0.475690
    24  H    0.149644
    25  H    0.149506
    26  H    0.151881
    27  H    0.151866
    28  H    0.155164
    29  H    0.155168
    30  H    0.160186
    31  C   -0.298343
    32  C   -0.299839
    33  C   -0.479510
    34  H    0.149385
    35  H    0.149344
    36  H    0.151783
    37  H    0.151442
    38  H    0.153868
    39  H    0.162391
    40  H    0.159901
 Sum of Mulliken charges =  -0.00000

 Dipole moment (field-independent basis, Debye):
    X=             -0.0039    Y=              0.0063    Z=              0.0030  Tot=              0.0080
 Quadrupole moment (field-independent basis, Debye-Ang):
   XX=            -87.1030   YY=            -84.1052   ZZ=            -83.8295
   XY=              0.1408   XZ=              0.7219   YZ=             -0.7699

 Normal termination of Gaussian 16 at Thu May  6 00:39:46 2021.
