 Gaussian 16, Revision A.03,
 Gaussian 16:  EM64L-G16RevA.03 25-Dec-2016

 -------------
 #p 6-31g* mp2
 -------------

 ------------------------------------------------------
 Input file generated by CHIRIPA (05-May-2021 14:55:25)
 ------------------------------------------------------
 Symbolic Z-matrix:
 Charge =  0 Multiplicity = 1

                         Standard orientation:
 ---------------------------------------------------------------------
 Center     Atomic      Atomic             Coordinates (Angstroms)
 Number     Number       Type             X           Y           Z
 ---------------------------------------------------------------------
      1          6           0       -0.443064   -2.312554   -0.416894
      2          6           0       -1.378190   -1.984589   -1.404062
      3          6           0       -2.393329   -1.059934   -1.141284
      4          6           0       -2.443872   -0.479762    0.125261
      5          6           0       -1.526911   -0.785849    1.129644
      6          6           0       -0.520273   -1.713194    0.844584
      7          1           0        0.342218   -3.031894   -0.629681
      8          1           0       -1.320669   -2.448489   -2.384640
      9          1           0       -3.130269   -0.787793   -1.887124
     10          1           0       -1.609963   -0.306856    2.097676
     11          1           0        0.204596   -1.965984    1.613159
     12          7           0       -3.514054    0.500553    0.415247
     13          8           0       -3.536874    0.997708    1.539059
     14          8           0       -4.309779    0.753206   -0.486765
     15          6           0        3.280376    0.313999    0.329336
     16          6           0        4.646923   -0.064365   -0.242832
     17          6           0        5.390967   -1.079278    0.625584
     18          1           0        3.413630    0.722355    1.340490
     19          1           0        2.671390   -0.594285    0.436799
     20          1           0        5.252656    0.844544   -0.350479
     21          1           0        4.510419   -0.471690   -1.252816
     22          1           0        4.809897   -2.001993    0.723331
     23          1           0        5.556353   -0.678281    1.630796
     24          1           0        6.365314   -1.335619    0.198037
     25          6           0        2.524405    1.327806   -0.527654
     26          6           0        1.157858    1.706170    0.044512
     27          6           0        0.413814    2.721082   -0.823902
     28          1           0        3.133391    2.236091   -0.635118
     29          1           0        2.391152    0.919450   -1.538810
     30          1           0        1.294362    2.113495    1.054497
     31          1           0        0.552124    0.797261    0.152160
     32          1           0        0.248428    2.320087   -1.829114
     33          1           0        0.994884    3.643799   -0.921651
     34          1           0       -0.560533    2.977425   -0.396356
 ---------------------------------------------------------------------

 SCF Done:  E(RHF) =  -669.534394430     A.U. after   15 cycles
 E2 =    -0.2094464861D+01 EUMP2 =    -0.67162885929028D+03

 The electronic state is 1-A.
 Alpha  occ. eigenvalues --  -20.60851 -20.60846 -15.85907 -11.31309 -11.27885
 Alpha  occ. eigenvalues --  -11.27852 -11.27634 -11.26906 -11.26868 -11.22058
 Alpha  occ. eigenvalues --  -11.21839 -11.21595 -11.21593 -11.21472 -11.20972
 Alpha  occ. eigenvalues --   -1.59926  -1.39478  -1.19504  -1.08883  -1.08718
 Alpha  occ. eigenvalues --   -1.04910  -1.03757  -0.96229  -0.95705  -0.87239
 Alpha  occ. eigenvalues --   -0.86288  -0.82533  -0.79853  -0.78545  -0.77569
 Alpha  occ. eigenvalues --   -0.72122  -0.71252  -0.70588  -0.65390  -0.65140
 Alpha  occ. eigenvalues --   -0.64879  -0.62234  -0.61197  -0.59617  -0.57841
 Alpha  occ. eigenvalues --   -0.55547  -0.55390  -0.53339  -0.52978  -0.52852
 Alpha  occ. eigenvalues --   -0.52639  -0.50175  -0.48885  -0.48875  -0.48149
 Alpha  occ. eigenvalues --   -0.46891  -0.46062  -0.45964  -0.44870  -0.44021
 Alpha  occ. eigenvalues --   -0.37476  -0.36364
 Alpha virt. eigenvalues --    0.04948   0.11001   0.16412   0.20695   0.22782
 Alpha virt. eigenvalues --    0.23999   0.25827   0.26629   0.27516   0.28023
 Alpha virt. eigenvalues --    0.28839   0.30790   0.31240   0.31574   0.31857

 Mulliken charges:
               1
     1  C   -0.170497
     2  C   -0.218279
     3  C   -0.171045
     4  C    0.163287
     5  C   -0.175012
     6  C   -0.218959
     7  H    0.226352
     8  H    0.224124
     9  H    0.276325
    10  H    0.276822
    11  H    0.225775
    12  N    0.487914
    13  O   -0.460233
    14  O   -0.459901
    15  C   -0.298121
    16  C   -0.299649
    17  C   -0.475012
    18  H    0.150191
    19  H    0.140443
    20  H    0.154732
    21  H    0.150660
    22  H    0.149849
    23  H    0.156482
    24  H    0.161938
    25  C   -0.296272
    26  C   -0.311217
    27  C   -0.476612
    28  H    0.150513
    29  H    0.147629
    30  H    0.149752
    31  H    0.164389
    32  H    0.153201
    33  H    0.155143
    34  H    0.165287
 Sum of Mulliken charges =  -0.00000

 Dipole moment (field-independent basis, Debye):
    X=              3.6547    Y=             -3.4500    Z=             -1.0208  Tot=              5.1285
 Quadrupole moment (field-independent basis, Debye-Ang):
   XX=           -113.5066   YY=            -92.0247   ZZ=            -90.7835
   XY=              7.7902   XZ=              4.7697   YZ=              1.5205

 Normal termination of Gaussian 16 at Thu May  6 09:35:55 2021.
