 Gaussian 16, Revision A.03,
 Gaussian 16:  EM64L-G16RevA.03 25-Dec-2016

 -------------
 #p 6-31g* mp2
 -------------

 ------------------------------------------------------
 Input file generated by CHIRIPA (05-May-2021 14:53:11)
 ------------------------------------------------------
 Symbolic Z-matrix:
 Charge =  0 Multiplicity = 1

                         Standard orientation:
 ---------------------------------------------------------------------
 Center     Atomic      Atomic             Coordinates (Angstroms)
 Number     Number       Type             X           Y           Z
 ---------------------------------------------------------------------
      1          6           0        3.110755   -0.677368    0.046458
      2          6           0        4.126337   -1.368136   -0.864266
      3          6           0        3.854318   -2.864068   -1.025473
      4          1           0        3.122692   -1.162002    1.032325
      5          1           0        2.101685   -0.825525   -0.362468
      6          1           0        5.133323   -1.217545   -0.454487
      7          1           0        4.112118   -0.881678   -1.848020
      8          1           0        2.861621   -3.030914   -1.455954
      9          1           0        3.888628   -3.368690   -0.054504
     10          1           0        4.592126   -3.337991   -1.680375
     11          6           0        3.369414    0.818489    0.217438
     12          6           0        2.353832    1.509257    1.128162
     13          6           0        2.625851    3.005189    1.289369
     14          1           0        4.378485    0.966646    0.626365
     15          1           0        3.357477    1.303123   -0.768429
     16          1           0        2.368052    1.022799    2.111916
     17          1           0        1.346846    1.358666    0.718384
     18          1           0        2.591541    3.509811    0.318400
     19          1           0        3.618549    3.172035    1.719851
     20          1           0        1.888043    3.479112    1.944272
     21          6           0       -3.139219   -2.185966    1.103521
     22          6           0       -4.141332   -1.394365    0.532855
     23          6           0       -3.816103   -0.211712   -0.138045
     24          6           0       -2.472547    0.150876   -0.219735
     25          6           0       -1.451363   -0.616529    0.338444
     26          6           0       -1.799794   -1.795210    1.004669
     27          1           0       -3.400877   -3.103136    1.622876
     28          1           0       -5.182385   -1.695360    0.608071
     29          1           0       -4.571829    0.419899   -0.589003
     30          1           0       -0.422415   -0.290433    0.247093
     31          1           0       -1.019436   -2.408008    1.446895
     32          7           0       -2.115959    1.400795   -0.927512
     33          8           0       -0.924834    1.698243   -0.985658
     34          8           0       -3.034344    2.059367   -1.410719
 ---------------------------------------------------------------------

 SCF Done:  E(RHF) =  -669.535862079     A.U. after   15 cycles
 E2 =    -0.2092513543D+01 EUMP2 =    -0.67162837562136D+03

 The electronic state is 1-A.
 Alpha  occ. eigenvalues --  -20.60902 -20.60889 -15.85932 -11.31225 -11.27793
 Alpha  occ. eigenvalues --  -11.27758 -11.27524 -11.26798 -11.26775 -11.21666
 Alpha  occ. eigenvalues --  -11.21527 -11.21234 -11.21189 -11.21118 -11.20517
 Alpha  occ. eigenvalues --   -1.59962  -1.39520  -1.19395  -1.08805  -1.08331
 Alpha  occ. eigenvalues --   -1.04786  -1.03351  -0.95824  -0.95652  -0.86838
 Alpha  occ. eigenvalues --   -0.86193  -0.82486  -0.79468  -0.78208  -0.77503
 Alpha  occ. eigenvalues --   -0.72163  -0.71274  -0.70512  -0.65080  -0.65000
 Alpha  occ. eigenvalues --   -0.64718  -0.62142  -0.60709  -0.59217  -0.57439
 Alpha  occ. eigenvalues --   -0.55303  -0.55103  -0.53121  -0.52900  -0.52487
 Alpha  occ. eigenvalues --   -0.52257  -0.49763  -0.48945  -0.48905  -0.47767
 Alpha  occ. eigenvalues --   -0.46490  -0.45675  -0.45546  -0.44891  -0.43636
 Alpha  occ. eigenvalues --   -0.37377  -0.36384
 Alpha virt. eigenvalues --    0.04958   0.11237   0.16473   0.20221   0.23108
 Alpha virt. eigenvalues --    0.24363   0.24887   0.26991   0.27829   0.28059
 Alpha virt. eigenvalues --    0.29885   0.30896   0.31576   0.31764   0.32362

 Mulliken charges:
               1
     1  C   -0.302197
     2  C   -0.299208
     3  C   -0.476067
     4  H    0.145090
     5  H    0.145547
     6  H    0.153146
     7  H    0.155914
     8  H    0.153622
     9  H    0.152514
    10  H    0.161684
    11  C   -0.297129
    12  C   -0.315228
    13  C   -0.473600
    14  H    0.148383
    15  H    0.156417
    16  H    0.143916
    17  H    0.171588
    18  H    0.162497
    19  H    0.150943
    20  H    0.160457
    21  C   -0.170213
    22  C   -0.219102
    23  C   -0.169784
    24  C    0.155472
    25  C   -0.177605
    26  C   -0.223274
    27  H    0.225841
    28  H    0.223562
    29  H    0.275553
    30  H    0.291260
    31  H    0.225025
    32  N    0.489599
    33  O   -0.465537
    34  O   -0.459090
 Sum of Mulliken charges =  -0.00000

 Dipole moment (field-independent basis, Debye):
    X=             -1.3070    Y=             -4.2766    Z=              2.3777  Tot=              5.0646
 Quadrupole moment (field-independent basis, Debye-Ang):
   XX=            -83.4082   YY=            -97.5856   ZZ=            -96.0125
   XY=              9.9864   XZ=             -4.8716   YZ=              0.5312

 Normal termination of Gaussian 16 at Thu May  6 05:39:27 2021.
