 Gaussian 16, Revision A.03,
 Gaussian 16:  EM64L-G16RevA.03 25-Dec-2016

 -------------
 #p 6-31g* mp2
 -------------

 ------------------------------------------------------
 Input file generated by CHIRIPA (05-May-2021 14:55:21)
 ------------------------------------------------------
 Symbolic Z-matrix:
 Charge =  0 Multiplicity = 1

                         Standard orientation:
 ---------------------------------------------------------------------
 Center     Atomic      Atomic             Coordinates (Angstroms)
 Number     Number       Type             X           Y           Z
 ---------------------------------------------------------------------
      1          6           0        3.230621   -2.388630    0.190982
      2          6           0        3.523927   -1.607378    1.313541
      3          6           0        3.447317   -0.212975    1.247818
      4          6           0        3.072453    0.369613    0.038125
      5          6           0        2.774071   -0.381564   -1.097653
      6          6           0        2.857287   -1.774313   -1.008916
      7          1           0        3.292699   -3.471194    0.250976
      8          1           0        3.814132   -2.081739    2.246712
      9          1           0        3.668957    0.415847    2.101560
     10          1           0        2.487610    0.120024   -2.014041
     11          1           0        2.628932   -2.378528   -1.882314
     12          7           0        2.987853    1.844929   -0.043635
     13          8           0        2.655208    2.333942   -1.121063
     14          8           0        3.255790    2.484335    0.971258
     15          6           0       -3.257476    0.060759   -0.297272
     16          6           0       -2.208632   -1.049530   -0.225391
     17          6           0       -0.827148   -0.588769   -0.691219
     18          1           0       -3.321408    0.429730   -1.330093
     19          1           0       -2.926163    0.908948    0.317710
     20          1           0       -2.542482   -1.895919   -0.839220
     21          1           0       -2.147326   -1.416033    0.807340
     22          1           0       -0.468966    0.240727   -0.072962
     23          1           0       -0.866367   -0.241886   -1.728878
     24          1           0       -0.092779   -1.398094   -0.631584
     25          6           0       -4.643697   -0.384505    0.165177
     26          6           0       -5.692542    0.725785    0.093296
     27          6           0       -7.074026    0.265023    0.559124
     28          1           0       -4.975011   -1.232693   -0.449806
     29          1           0       -4.579765   -0.753477    1.197997
     30          1           0       -5.753847    1.092288   -0.939435
     31          1           0       -5.358692    1.572174    0.707125
     32          1           0       -7.034805   -0.081860    1.596782
     33          1           0       -7.432206   -0.564472   -0.059133
     34          1           0       -7.808394    1.074348    0.499488
 ---------------------------------------------------------------------

 SCF Done:  E(RHF) =  -669.534967164     A.U. after   15 cycles
 E2 =    -0.2092377962D+01 EUMP2 =    -0.67162734512582D+03

 The electronic state is 1-A.
 Alpha  occ. eigenvalues --  -20.60763 -20.60756 -15.85816 -11.31172 -11.27764
 Alpha  occ. eigenvalues --  -11.27747 -11.27523 -11.26773 -11.26753 -11.21625
 Alpha  occ. eigenvalues --  -11.21526 -11.21354 -11.21287 -11.21040 -11.21019
 Alpha  occ. eigenvalues --   -1.59837  -1.39390  -1.19367  -1.08762  -1.08390
 Alpha  occ. eigenvalues --   -1.04776  -1.03502  -0.95957  -0.95590  -0.86978
 Alpha  occ. eigenvalues --   -0.86168  -0.82426  -0.79577  -0.78199  -0.77466
 Alpha  occ. eigenvalues --   -0.72034  -0.71161  -0.70476  -0.65030  -0.65014
 Alpha  occ. eigenvalues --   -0.64775  -0.62117  -0.60905  -0.59358  -0.57571
 Alpha  occ. eigenvalues --   -0.55278  -0.55245  -0.53450  -0.52867  -0.52381
 Alpha  occ. eigenvalues --   -0.52282  -0.49890  -0.48794  -0.48787  -0.47888
 Alpha  occ. eigenvalues --   -0.46605  -0.45743  -0.45665  -0.44794  -0.43765
 Alpha  occ. eigenvalues --   -0.37342  -0.36282
 Alpha virt. eigenvalues --    0.05065   0.11203   0.16528   0.21316   0.22904
 Alpha virt. eigenvalues --    0.24304   0.26621   0.26961   0.27515   0.28019
 Alpha virt. eigenvalues --    0.28517   0.30648   0.31302   0.31768   0.32063

 Mulliken charges:
               1
     1  C   -0.171071
     2  C   -0.218508
     3  C   -0.171134
     4  C    0.158987
     5  C   -0.164064
     6  C   -0.220560
     7  H    0.225702
     8  H    0.223369
     9  H    0.275554
    10  H    0.276242
    11  H    0.223845
    12  N    0.487706
    13  O   -0.460031
    14  O   -0.460877
    15  C   -0.298718
    16  C   -0.300016
    17  C   -0.479506
    18  H    0.150440
    19  H    0.152495
    20  H    0.149044
    21  H    0.150746
    22  H    0.157997
    23  H    0.153213
    24  H    0.159982
    25  C   -0.298155
    26  C   -0.299804
    27  C   -0.475676
    28  H    0.148225
    29  H    0.148918
    30  H    0.152401
    31  H    0.153336
    32  H    0.154801
    33  H    0.154457
    34  H    0.160660
 Sum of Mulliken charges =  -0.00000

 Dipole moment (field-independent basis, Debye):
    X=              0.3626    Y=             -5.1568    Z=              0.2837  Tot=              5.1773
 Quadrupole moment (field-independent basis, Debye-Ang):
   XX=            -94.4664   YY=            -99.2896   ZZ=            -89.3645
   XY=            -16.2760   XZ=              2.9129   YZ=              0.5920

 Normal termination of Gaussian 16 at Thu May  6 12:30:07 2021.
