 Gaussian 16, Revision A.03,
 Gaussian 16:  EM64L-G16RevA.03 25-Dec-2016

 -------------
 #p 6-31g* mp2
 -------------

 ------------------------------------------------------
 Input file generated by CHIRIPA (05-May-2021 14:51:10)
 ------------------------------------------------------
 Symbolic Z-matrix:
 Charge =  0 Multiplicity = 1

                         Standard orientation:
 ---------------------------------------------------------------------
 Center     Atomic      Atomic             Coordinates (Angstroms)
 Number     Number       Type             X           Y           Z
 ---------------------------------------------------------------------
      1          6           0        2.324672   -1.229782   -0.521049
      2          6           0        0.849421   -1.513238   -0.806132
      3          6           0        0.624400   -2.880128   -1.453258
      4          1           0        2.891245   -1.290096   -1.460359
      5          1           0        2.722012   -2.016842    0.134735
      6          1           0        0.454621   -0.725124   -1.460063
      7          1           0        0.286264   -1.452054    0.133935
      8          1           0        0.991717   -3.679841   -0.801999
      9          1           0        1.161031   -2.948781   -2.405053
     10          1           0       -0.437053   -3.062099   -1.648354
     11          6           0        2.565719    0.132974    0.125883
     12          6           0        4.040970    0.416430    0.410966
     13          6           0        4.265990    1.783320    1.058091
     14          1           0        2.168378    0.920033   -0.529901
     15          1           0        1.999146    0.193287    1.065193
     16          1           0        4.604127    0.355245   -0.529101
     17          1           0        4.435770   -0.371684    1.064897
     18          1           0        3.729360    1.851973    2.009887
     19          1           0        3.898673    2.583033    0.406832
     20          1           0        5.327444    1.965290    1.253187
     21          6           0       -2.420326    1.047386   -0.380197
     22          6           0       -2.113859    2.477320    0.066295
     23          6           0       -2.067452    3.463937   -1.100848
     24          1           0       -1.659701    0.725222   -1.104494
     25          1           0       -3.382455    1.034615   -0.910800
     26          1           0       -1.153255    2.487153    0.597106
     27          1           0       -2.875193    2.796048    0.789759
     28          1           0       -3.027339    3.483680   -1.626994
     29          1           0       -1.295617    3.173029   -1.820740
     30          1           0       -1.846940    4.480024   -0.759083
     31          6           0       -2.470065    0.049422    0.775363
     32          6           0       -2.776531   -1.380511    0.328870
     33          6           0       -2.822938   -2.367129    1.496014
     34          1           0       -1.507935    0.062193    1.305966
     35          1           0       -3.230689    0.371586    1.499660
     36          1           0       -2.015197   -1.699240   -0.394592
     37          1           0       -3.737135   -1.390344   -0.201940
     38          1           0       -3.594774   -2.076221    2.215907
     39          1           0       -1.863052   -2.386871    2.022160
     40          1           0       -3.043450   -3.383215    1.154250
 ---------------------------------------------------------------------

 SCF Done:  E(RHF) =  -470.731894574     A.U. after   11 cycles
 E2 =    -0.1585475445D+01 EUMP2 =    -0.47231737001926D+03

 The electronic state is 1-A.
 Alpha  occ. eigenvalues --  -11.21682 -11.21665 -11.21549 -11.21492 -11.21472
 Alpha  occ. eigenvalues --  -11.21432 -11.21334 -11.21274 -11.21154 -11.21118
 Alpha  occ. eigenvalues --  -11.21054 -11.21050  -1.08552  -1.08345  -1.03658
 Alpha  occ. eigenvalues --   -1.03447  -0.96068  -0.95936  -0.87075  -0.86957
 Alpha  occ. eigenvalues --   -0.79713  -0.79543  -0.78388  -0.78151  -0.65252
 Alpha  occ. eigenvalues --   -0.64971  -0.61263  -0.60754  -0.59443  -0.59229
 Alpha  occ. eigenvalues --   -0.57683  -0.57513  -0.55381  -0.55197  -0.52761
 Alpha  occ. eigenvalues --   -0.52626  -0.52512  -0.52348  -0.50052  -0.49841
 Alpha  occ. eigenvalues --   -0.48010  -0.47874  -0.46779  -0.46486  -0.46086
 Alpha  occ. eigenvalues --   -0.45900  -0.45509  -0.45406  -0.43870  -0.43727
 Alpha virt. eigenvalues --    0.20269   0.22827   0.23389   0.23882   0.25563
 Alpha virt. eigenvalues --    0.25965   0.27165   0.27783   0.28903   0.29957
 Alpha virt. eigenvalues --    0.30262   0.30876   0.31683   0.31886   0.32698

 Mulliken charges:
               1
     1  C   -0.297526
     2  C   -0.309666
     3  C   -0.479387
     4  H    0.149888
     5  H    0.149862
     6  H    0.154807
     7  H    0.158607
     8  H    0.156028
     9  H    0.155984
    10  H    0.162992
    11  C   -0.298879
    12  C   -0.299687
    13  C   -0.475837
    14  H    0.149307
    15  H    0.149234
    16  H    0.152256
    17  H    0.152192
    18  H    0.155250
    19  H    0.155348
    20  H    0.160552
    21  C   -0.301905
    22  C   -0.299987
    23  C   -0.475476
    24  H    0.153737
    25  H    0.149042
    26  H    0.152665
    27  H    0.151684
    28  H    0.155101
    29  H    0.154323
    30  H    0.160175
    31  C   -0.298557
    32  C   -0.310873
    33  C   -0.475830
    34  H    0.149460
    35  H    0.149574
    36  H    0.164170
    37  H    0.151890
    38  H    0.155367
    39  H    0.153973
    40  H    0.160142
 Sum of Mulliken charges =  -0.00000

 Dipole moment (field-independent basis, Debye):
    X=              0.0512    Y=             -0.0258    Z=             -0.0213  Tot=              0.0612
 Quadrupole moment (field-independent basis, Debye-Ang):
   XX=            -83.9736   YY=            -86.1891   ZZ=            -84.6898
   XY=             -0.5049   XZ=             -0.2731   YZ=             -0.1516

 Normal termination of Gaussian 16 at Thu May  6 02:12:55 2021.
