 Gaussian 16, Revision A.03,
 Gaussian 16:  EM64L-G16RevA.03 25-Dec-2016

 -------------
 #p 6-31g* mp2
 -------------

 ------------------------------------------------------
 Input file generated by CHIRIPA (05-May-2021 14:57:26)
 ------------------------------------------------------
 Symbolic Z-matrix:
 Charge =  0 Multiplicity = 1

                         Standard orientation:
 ---------------------------------------------------------------------
 Center     Atomic      Atomic             Coordinates (Angstroms)
 Number     Number       Type             X           Y           Z
 ---------------------------------------------------------------------
      1          6           0        4.077637    1.109456   -1.146579
      2          6           0        3.442967    0.014809   -1.742785
      3          6           0        2.537389   -0.763461   -1.015618
      4          6           0        2.288838   -0.417043    0.311600
      5          6           0        2.905272    0.667522    0.933707
      6          6           0        3.807241    1.431751    0.187412
      7          1           0        4.779710    1.708581   -1.718889
      8          1           0        3.651032   -0.237830   -2.778607
      9          1           0        2.032015   -1.616246   -1.452394
     10          1           0        2.677541    0.894702    1.968089
     11          1           0        4.298663    2.281308    0.653032
     12          7           0        1.332053   -1.233530    1.091544
     13          8           0        1.130236   -0.907513    2.259286
     14          8           0        0.802059   -2.184049    0.520355
     15          6           0       -2.345173    2.720270    0.459446
     16          6           0       -2.427593    2.354363   -0.888084
     17          6           0       -2.484291    1.006693   -1.255672
     18          6           0       -2.456327    0.046799   -0.245171
     19          6           0       -2.374612    0.379679    1.106052
     20          6           0       -2.318991    1.733501    1.450467
     21          1           0       -2.301547    3.769562    0.735997
     22          1           0       -2.448100    3.118550   -1.659862
     23          1           0       -2.548456    0.695462   -2.291257
     24          1           0       -2.356002   -0.404760    1.852864
     25          1           0       -2.255019    2.014740    2.497776
     26          7           0       -2.515779   -1.383174   -0.622053
     27          8           0       -2.489595   -2.209712    0.287225
     28          8           0       -2.587437   -1.650373   -1.819596
 ---------------------------------------------------------------------

 SCF Done:  E(RHF) =  -868.337162257     A.U. after   16 cycles
 E2 =    -0.2601580346D+01 EUMP2 =    -0.87093874260271D+03

 The electronic state is 1-A.
 Alpha  occ. eigenvalues --  -20.60691 -20.60605 -20.59865 -20.59707 -15.85685
 Alpha  occ. eigenvalues --  -15.84840 -11.31139 -11.30491 -11.27760 -11.27672
 Alpha  occ. eigenvalues --  -11.27497 -11.27168 -11.26986 -11.26946 -11.26788
 Alpha  occ. eigenvalues --  -11.26729 -11.26248 -11.26130  -1.59722  -1.58844
 Alpha  occ. eigenvalues --   -1.39272  -1.38391  -1.19326  -1.18706  -1.08709
 Alpha  occ. eigenvalues --   -1.08057  -1.04740  -1.04135  -0.95524  -0.94836
 Alpha  occ. eigenvalues --   -0.86135  -0.85524  -0.82351  -0.81659  -0.77386
 Alpha  occ. eigenvalues --   -0.76645  -0.71910  -0.71150  -0.71055  -0.70437
 Alpha  occ. eigenvalues --   -0.70068  -0.69809  -0.64975  -0.64744  -0.64346
 Alpha  occ. eigenvalues --   -0.64142  -0.62080  -0.61457  -0.55247  -0.54663
 Alpha  occ. eigenvalues --   -0.53071  -0.52831  -0.52479  -0.52222  -0.48684
 Alpha  occ. eigenvalues --   -0.48639  -0.47862  -0.47795  -0.44736  -0.43616
 Alpha  occ. eigenvalues --   -0.37321  -0.36741  -0.36347  -0.35748
 Alpha virt. eigenvalues --    0.05122   0.05909   0.11301   0.11880   0.16600
 Alpha virt. eigenvalues --    0.17313   0.21432   0.21986   0.27342   0.27894
 Alpha virt. eigenvalues --    0.28347   0.28937   0.30962   0.31487   0.32624

 Mulliken charges:
               1
     1  C   -0.171399
     2  C   -0.219056
     3  C   -0.171806
     4  C    0.158344
     5  C   -0.171195
     6  C   -0.219056
     7  H    0.224751
     8  H    0.224405
     9  H    0.281174
    10  H    0.272981
    11  H    0.221607
    12  N    0.485857
    13  O   -0.467514
    14  O   -0.448310
    15  C   -0.172956
    16  C   -0.219397
    17  C   -0.173265
    18  C    0.154696
    19  C   -0.168582
    20  C   -0.219543
    21  H    0.221594
    22  H    0.219083
    23  H    0.272331
    24  H    0.286458
    25  H    0.223668
    26  N    0.489843
    27  O   -0.444777
    28  O   -0.469938
 Sum of Mulliken charges =  -0.00000

 Dipole moment (field-independent basis, Debye):
    X=              3.6041    Y=              7.5154    Z=             -1.2814  Tot=              8.4328
 Quadrupole moment (field-independent basis, Debye-Ang):
   XX=            -92.2915   YY=           -105.7608   ZZ=            -99.8774
   XY=             -6.3396   XZ=             -8.5293   YZ=              2.0578

 Normal termination of Gaussian 16 at Fri May  7 12:44:45 2021.
