 Gaussian 16, Revision A.03,
 Gaussian 16:  EM64L-G16RevA.03 25-Dec-2016

 -------------
 #p 6-31g* mp2
 -------------

 ------------------------------------------------------
 Input file generated by CHIRIPA (05-May-2021 14:51:08)
 ------------------------------------------------------
 Symbolic Z-matrix:
 Charge =  0 Multiplicity = 1

                         Standard orientation:
 ---------------------------------------------------------------------
 Center     Atomic      Atomic             Coordinates (Angstroms)
 Number     Number       Type             X           Y           Z
 ---------------------------------------------------------------------
      1          6           0        2.750570   -0.467727    0.224833
      2          6           0        2.684086   -1.562049   -0.841011
      3          6           0        2.386040   -2.941928   -0.253732
      4          1           0        3.522557   -0.728761    0.961611
      5          1           0        1.796539   -0.437305    0.769161
      6          1           0        3.637464   -1.589470   -1.384089
      7          1           0        1.912299   -1.298285   -1.575443
      8          1           0        1.425598   -2.937694    0.271753
      9          1           0        3.160565   -3.230533    0.464195
     10          1           0        2.342984   -3.709161   -1.033065
     11          6           0        3.047769    0.917430   -0.346781
     12          6           0        3.114253    2.011752    0.719063
     13          6           0        3.412299    3.391631    0.131783
     14          1           0        4.001800    0.887008   -0.891110
     15          1           0        2.275782    1.178464   -1.083559
     16          1           0        3.886039    1.747988    1.453495
     17          1           0        2.160874    2.039173    1.262140
     18          1           0        2.637774    3.680236   -0.586143
     19          1           0        4.372741    3.387397   -0.393702
     20          1           0        3.455354    4.158864    0.911116
     21          6           0       -3.155560    0.330735   -0.396213
     22          6           0       -3.848212    1.465851    0.358590
     23          6           0       -4.355657    2.569765   -0.569672
     24          1           0       -2.315698    0.741485   -0.973156
     25          1           0       -3.856998   -0.096422   -1.126224
     26          1           0       -3.146118    1.889828    1.087922
     27          1           0       -4.686403    1.052323    0.933954
     28          1           0       -5.076124    2.167243   -1.289050
     29          1           0       -3.527087    3.009508   -1.134207
     30          1           0       -4.847353    3.371035   -0.009260
     31          6           0       -2.642779   -0.780438    0.518162
     32          6           0       -1.950127   -1.915554   -0.236642
     33          6           0       -1.442682   -3.019468    0.691620
     34          1           0       -1.941339   -0.353282    1.248173
     35          1           0       -3.482640   -1.191188    1.095104
     36          1           0       -1.111935   -1.502025   -0.812006
     37          1           0       -2.652220   -2.339530   -0.965973
     38          1           0       -2.271251   -3.459210    1.256155
     39          1           0       -0.722214   -2.616947    1.410998
     40          1           0       -0.950984   -3.820738    0.131209
 ---------------------------------------------------------------------

 SCF Done:  E(RHF) =  -470.732846759     A.U. after   11 cycles
 E2 =    -0.1583440729D+01 EUMP2 =    -0.47231628748845D+03

 The electronic state is 1-A.
 Alpha  occ. eigenvalues --  -11.21678 -11.21647 -11.21634 -11.21588 -11.21469
 Alpha  occ. eigenvalues --  -11.21433 -11.21409 -11.21374 -11.21126 -11.21107
 Alpha  occ. eigenvalues --  -11.21098 -11.20933  -1.08499  -1.08440  -1.03617
 Alpha  occ. eigenvalues --   -1.03503  -0.96087  -0.95932  -0.87119  -0.86934
 Alpha  occ. eigenvalues --   -0.79698  -0.79549  -0.78310  -0.78254  -0.65249
 Alpha  occ. eigenvalues --   -0.64977  -0.61240  -0.60720  -0.59410  -0.59340
 Alpha  occ. eigenvalues --   -0.57656  -0.57587  -0.55569  -0.55032  -0.52798
 Alpha  occ. eigenvalues --   -0.52644  -0.52457  -0.52352  -0.50188  -0.49693
 Alpha  occ. eigenvalues --   -0.47984  -0.47875  -0.46821  -0.46478  -0.45887
 Alpha  occ. eigenvalues --   -0.45820  -0.45752  -0.45647  -0.43844  -0.43776
 Alpha virt. eigenvalues --    0.19696   0.23391   0.23539   0.25083   0.25896
 Alpha virt. eigenvalues --    0.26348   0.26998   0.28124   0.28253   0.29297
 Alpha virt. eigenvalues --    0.30594   0.30804   0.31298   0.31972   0.32231

 Mulliken charges:
               1
     1  C   -0.298978
     2  C   -0.299860
     3  C   -0.484915
     4  H    0.149992
     5  H    0.148688
     6  H    0.151811
     7  H    0.151772
     8  H    0.167755
     9  H    0.154347
    10  H    0.159064
    11  C   -0.298167
    12  C   -0.299585
    13  C   -0.475693
    14  H    0.149885
    15  H    0.149134
    16  H    0.152142
    17  H    0.151430
    18  H    0.155047
    19  H    0.155355
    20  H    0.160351
    21  C   -0.298233
    22  C   -0.299704
    23  C   -0.475725
    24  H    0.149209
    25  H    0.149816
    26  H    0.151881
    27  H    0.152147
    28  H    0.155302
    29  H    0.155124
    30  H    0.160463
    31  C   -0.298547
    32  C   -0.302284
    33  C   -0.480308
    34  H    0.149284
    35  H    0.150166
    36  H    0.153562
    37  H    0.152674
    38  H    0.156756
    39  H    0.155547
    40  H    0.163294
 Sum of Mulliken charges =  -0.00000

 Dipole moment (field-independent basis, Debye):
    X=             -0.0418    Y=             -0.0208    Z=              0.0117  Tot=              0.0481
 Quadrupole moment (field-independent basis, Debye-Ang):
   XX=            -83.1595   YY=            -86.3315   ZZ=            -85.1649
   XY=              0.5296   XZ=              0.0612   YZ=              0.7482

 Normal termination of Gaussian 16 at Wed May  5 22:56:21 2021.
