 Gaussian 16, Revision A.03,
 Gaussian 16:  EM64L-G16RevA.03 25-Dec-2016

 -------------
 #p 6-31g* mp2
 -------------

 ------------------------------------------------------
 Input file generated by CHIRIPA (05-May-2021 14:55:24)
 ------------------------------------------------------
 Symbolic Z-matrix:
 Charge =  0 Multiplicity = 1

                         Standard orientation:
 ---------------------------------------------------------------------
 Center     Atomic      Atomic             Coordinates (Angstroms)
 Number     Number       Type             X           Y           Z
 ---------------------------------------------------------------------
      1          6           0        2.621664    2.613099    0.658798
      2          6           0        1.538608    2.279378   -0.161045
      3          6           0        1.422923    0.992879   -0.695913
      4          6           0        2.412900    0.060668   -0.388962
      5          6           0        3.503826    0.362701    0.424639
      6          6           0        3.599093    1.655384    0.948512
      7          1           0        2.703600    3.614885    1.070025
      8          1           0        0.778031    3.021119   -0.387733
      9          1           0        0.594914    0.707645   -1.333455
     10          1           0        4.246277   -0.398129    0.632778
     11          1           0        4.441304    1.911739    1.584914
     12          7           0        2.301238   -1.304565   -0.949383
     13          8           0        3.186689   -2.107755   -0.663902
     14          8           0        1.330380   -1.545593   -1.663511
     15          6           0       -2.420357   -0.683402    0.316320
     16          6           0       -1.958761   -1.390264    1.591177
     17          6           0       -0.573185   -2.020911    1.448841
     18          1           0       -2.427349   -1.404034   -0.512887
     19          1           0       -1.689010    0.092280    0.050157
     20          1           0       -2.691468   -2.163454    1.855625
     21          1           0       -1.953051   -0.667910    2.417487
     22          1           0        0.174387   -1.258128    1.208219
     23          1           0       -0.568226   -2.762169    0.643166
     24          1           0       -0.262901   -2.520822    2.371702
     25          6           0       -3.803780   -0.047926    0.442971
     26          6           0       -4.265376    0.658936   -0.831886
     27          6           0       -5.650951    1.289584   -0.689550
     28          1           0       -4.535127   -0.823608    0.709133
     29          1           0       -3.796787    0.672708    1.272178
     30          1           0       -4.271086   -0.063417   -1.658196
     31          1           0       -3.532668    1.432127   -1.096335
     32          1           0       -5.655910    2.030843    0.116125
     33          1           0       -6.398524    0.526801   -0.448929
     34          1           0       -5.961236    1.789495   -1.612411
 ---------------------------------------------------------------------

 SCF Done:  E(RHF) =  -669.535275891     A.U. after   15 cycles
 E2 =    -0.2093510756D+01 EUMP2 =    -0.67162878664756D+03

 The electronic state is 1-A.
 Alpha  occ. eigenvalues --  -20.60786 -20.60781 -15.85821 -11.31226 -11.27802
 Alpha  occ. eigenvalues --  -11.27791 -11.27550 -11.26830 -11.26818 -11.21664
 Alpha  occ. eigenvalues --  -11.21347 -11.21330 -11.21206 -11.21140 -11.20525
 Alpha  occ. eigenvalues --   -1.59847  -1.39401  -1.19415  -1.08799  -1.08321
 Alpha  occ. eigenvalues --   -1.04817  -1.03376  -0.95813  -0.95625  -0.86829
 Alpha  occ. eigenvalues --   -0.86211  -0.82455  -0.79466  -0.78145  -0.77481
 Alpha  occ. eigenvalues --   -0.72051  -0.71178  -0.70511  -0.65062  -0.64983
 Alpha  occ. eigenvalues --   -0.64796  -0.62161  -0.60782  -0.59195  -0.57421
 Alpha  occ. eigenvalues --   -0.55313  -0.55116  -0.53153  -0.52910  -0.52500
 Alpha  occ. eigenvalues --   -0.52218  -0.49753  -0.48816  -0.48802  -0.47775
 Alpha  occ. eigenvalues --   -0.46505  -0.45719  -0.45579  -0.44702  -0.43640
 Alpha  occ. eigenvalues --   -0.37364  -0.36402
 Alpha virt. eigenvalues --    0.04989   0.11156   0.16467   0.20920   0.22991
 Alpha virt. eigenvalues --    0.24422   0.25587   0.27158   0.27711   0.28008
 Alpha virt. eigenvalues --    0.29254   0.30862   0.31488   0.31876   0.32102

 Mulliken charges:
               1
     1  C   -0.170724
     2  C   -0.218960
     3  C   -0.172496
     4  C    0.156072
     5  C   -0.171499
     6  C   -0.218281
     7  H    0.225837
     8  H    0.223670
     9  H    0.278191
    10  H    0.276111
    11  H    0.223760
    12  N    0.492083
    13  O   -0.459830
    14  O   -0.459301
    15  C   -0.298165
    16  C   -0.299818
    17  C   -0.477972
    18  H    0.158437
    19  H    0.140394
    20  H    0.152225
    21  H    0.147823
    22  H    0.147595
    23  H    0.170458
    24  H    0.158025
    25  C   -0.298284
    26  C   -0.298403
    27  C   -0.475525
    28  H    0.151069
    29  H    0.147021
    30  H    0.155158
    31  H    0.145146
    32  H    0.153706
    33  H    0.156605
    34  H    0.159872
 Sum of Mulliken charges =  -0.00000

 Dipole moment (field-independent basis, Debye):
    X=              0.4572    Y=              4.6649    Z=              1.8979  Tot=              5.0569
 Quadrupole moment (field-independent basis, Debye-Ang):
   XX=            -90.1355   YY=            -93.6220   ZZ=            -96.0035
   XY=             11.7327   XZ=              7.1882   YZ=             -1.9478

 Normal termination of Gaussian 16 at Wed May  5 22:25:32 2021.
