 Gaussian 16, Revision A.03,
 Gaussian 16:  EM64L-G16RevA.03 25-Dec-2016

 -------------
 #p 6-31g* mp2
 -------------

 ------------------------------------------------------
 Input file generated by CHIRIPA (05-May-2021 14:57:26)
 ------------------------------------------------------
 Symbolic Z-matrix:
 Charge =  0 Multiplicity = 1

                         Standard orientation:
 ---------------------------------------------------------------------
 Center     Atomic      Atomic             Coordinates (Angstroms)
 Number     Number       Type             X           Y           Z
 ---------------------------------------------------------------------
      1          6           0       -5.062793    0.237474   -1.526285
      2          6           0       -3.910754    1.030323   -1.499478
      3          6           0       -2.924669    0.817391   -0.531570
      4          6           0       -3.124053   -0.201702    0.398476
      5          6           0       -4.260927   -1.008429    0.397792
      6          6           0       -5.233900   -0.777582   -0.579235
      7          1           0       -5.823715    0.409842   -2.281721
      8          1           0       -3.775196    1.819347   -2.233719
      9          1           0       -2.023155    1.416372   -0.487853
     10          1           0       -4.367888   -1.787397    1.142899
     11          1           0       -6.127577   -1.394873   -0.597647
     12          7           0       -2.087070   -0.436606    1.427983
     13          8           0       -2.286510   -1.340819    2.236227
     14          8           0       -1.094477    0.287938    1.407172
     15          6           0        4.662037   -1.897847   -0.728792
     16          6           0        3.408289   -1.727820   -1.325222
     17          6           0        2.642147   -0.589923   -1.055469
     18          6           0        3.162797    0.362220   -0.180463
     19          6           0        4.408413    0.221495    0.429395
     20          6           0        5.157224   -0.924363    0.145072
     21          1           0        5.250462   -2.784885   -0.944002
     22          1           0        3.021195   -2.482198   -2.004279
     23          1           0        1.668428   -0.432992   -1.503423
     24          1           0        4.767698    0.990807    1.102070
     25          1           0        6.130575   -1.053756    0.609712
     26          7           0        2.360891    1.571075    0.112825
     27          8           0        2.842031    2.395301    0.887287
     28          8           0        1.266401    1.671460   -0.437313
 ---------------------------------------------------------------------

 SCF Done:  E(RHF) =  -868.338069675     A.U. after   16 cycles
 E2 =    -0.2599927545D+01 EUMP2 =    -0.87093799721995D+03

 The electronic state is 1-A.
 Alpha  occ. eigenvalues --  -20.60160 -20.60153 -20.60111 -20.60084 -15.85186
 Alpha  occ. eigenvalues --  -15.85166 -11.30611 -11.30605 -11.27262 -11.27211
 Alpha  occ. eigenvalues --  -11.27192 -11.27061 -11.27012 -11.26981 -11.26291
 Alpha  occ. eigenvalues --  -11.26256 -11.26240 -11.26195  -1.59213  -1.59170
 Alpha  occ. eigenvalues --   -1.38765  -1.38719  -1.18808  -1.18792  -1.08205
 Alpha  occ. eigenvalues --   -1.08178  -1.04222  -1.04209  -0.95036  -0.94985
 Alpha  occ. eigenvalues --   -0.85619  -0.85604  -0.81889  -0.81798  -0.76933
 Alpha  occ. eigenvalues --   -0.76796  -0.71531  -0.71318  -0.70569  -0.70398
 Alpha  occ. eigenvalues --   -0.69931  -0.69902  -0.64478  -0.64438  -0.64247
 Alpha  occ. eigenvalues --   -0.64210  -0.61581  -0.61520  -0.54742  -0.54736
 Alpha  occ. eigenvalues --   -0.52565  -0.52526  -0.52334  -0.52287  -0.48212
 Alpha  occ. eigenvalues --   -0.48181  -0.48177  -0.48082  -0.44292  -0.43939
 Alpha  occ. eigenvalues --   -0.36831  -0.36771  -0.35827  -0.35821
 Alpha virt. eigenvalues --    0.05583   0.05756   0.11819   0.11836   0.17049
 Alpha virt. eigenvalues --    0.17200   0.21777   0.22046   0.27711   0.27863
 Alpha virt. eigenvalues --    0.28512   0.29111   0.31202   0.31608   0.32698

 Mulliken charges:
               1
     1  C   -0.171299
     2  C   -0.220697
     3  C   -0.176983
     4  C    0.154836
     5  C   -0.172021
     6  C   -0.219612
     7  H    0.223321
     8  H    0.224040
     9  H    0.294812
    10  H    0.273303
    11  H    0.220765
    12  N    0.485954
    13  O   -0.466919
    14  O   -0.451104
    15  C   -0.170899
    16  C   -0.218289
    17  C   -0.166694
    18  C    0.162427
    19  C   -0.170139
    20  C   -0.218411
    21  H    0.223617
    22  H    0.220823
    23  H    0.272109
    24  H    0.275156
    25  H    0.221901
    26  N    0.493913
    27  O   -0.460897
    28  O   -0.463013
 Sum of Mulliken charges =  -0.00000

 Dipole moment (field-independent basis, Debye):
    X=             -0.6764    Y=             -3.2314    Z=             -4.6037  Tot=              5.6651
 Quadrupole moment (field-independent basis, Debye-Ang):
   XX=            -62.1912   YY=           -106.0631   ZZ=           -106.2411
   XY=            -11.0731   XZ=              7.8976   YZ=              1.1200

 Normal termination of Gaussian 16 at Wed May  5 16:29:02 2021.
