 Gaussian 16, Revision A.03,
 Gaussian 16:  EM64L-G16RevA.03 25-Dec-2016

 -------------
 #p 6-31g* mp2
 -------------

 ------------------------------------------------------
 Input file generated by CHIRIPA (05-May-2021 14:53:15)
 ------------------------------------------------------
 Symbolic Z-matrix:
 Charge =  0 Multiplicity = 1

                         Standard orientation:
 ---------------------------------------------------------------------
 Center     Atomic      Atomic             Coordinates (Angstroms)
 Number     Number       Type             X           Y           Z
 ---------------------------------------------------------------------
      1          6           0       -3.790329   -0.397724   -0.183859
      2          6           0       -2.997089   -1.673336   -0.469462
      3          6           0       -3.826902   -2.942232   -0.271709
      4          1           0       -4.169829   -0.432498    0.846537
      5          1           0       -4.670899   -0.367118   -0.840406
      6          1           0       -2.117531   -1.700845    0.186462
      7          1           0       -2.619272   -1.635434   -1.499236
      8          1           0       -4.696487   -2.941414   -0.936858
      9          1           0       -4.191895   -3.007197    0.758418
     10          1           0       -3.240373   -3.842206   -0.481209
     11          6           0       -2.974315    0.879175   -0.377194
     12          6           0       -3.767555    2.154787   -0.091592
     13          6           0       -2.937742    3.423683   -0.289345
     14          1           0       -2.093745    0.848570    0.279353
     15          1           0       -2.594815    0.913949   -1.407590
     16          1           0       -4.145372    2.116885    0.938182
     17          1           0       -4.647113    2.182296   -0.747516
     18          1           0       -2.572749    3.488648   -1.319471
     19          1           0       -2.068157    3.422866    0.375804
     20          1           0       -3.524271    4.323657   -0.079845
     21          6           0        0.744610   -0.805048    1.763021
     22          6           0        1.637207    0.210281    2.122045
     23          6           0        2.692393    0.560507    1.274417
     24          6           0        2.825914   -0.128419    0.069906
     25          6           0        1.953008   -1.144533   -0.315886
     26          6           0        0.905076   -1.478028    0.547345
     27          1           0       -0.072266   -1.070613    2.427540
     28          1           0        1.515024    0.734631    3.065534
     29          1           0        3.397891    1.342556    1.527574
     30          1           0        2.100490   -1.649280   -1.262933
     31          1           0        0.213391   -2.266964    0.265925
     32          7           0        3.939153    0.233492   -0.835698
     33          8           0        4.035099   -0.388608   -1.891361
     34          8           0        4.694682    1.132405   -0.472702
 ---------------------------------------------------------------------

 SCF Done:  E(RHF) =  -669.535316435     A.U. after   15 cycles
 E2 =    -0.2092164537D+01 EUMP2 =    -0.67162748097216D+03

 The electronic state is 1-A.
 Alpha  occ. eigenvalues --  -20.60775 -20.60770 -15.85828 -11.31210 -11.27771
 Alpha  occ. eigenvalues --  -11.27755 -11.27536 -11.26808 -11.26766 -11.22485
 Alpha  occ. eigenvalues --  -11.22057 -11.22030 -11.21870 -11.21868 -11.21399
 Alpha  occ. eigenvalues --   -1.59850  -1.39403  -1.19381  -1.09056  -1.08776
 Alpha  occ. eigenvalues --   -1.04783  -1.04147  -0.96567  -0.95610  -0.87583
 Alpha  occ. eigenvalues --   -0.86188  -0.82437  -0.80243  -0.78844  -0.77475
 Alpha  occ. eigenvalues --   -0.72047  -0.71172  -0.70496  -0.65730  -0.65032
 Alpha  occ. eigenvalues --   -0.64783  -0.62167  -0.61516  -0.59952  -0.58180
 Alpha  occ. eigenvalues --   -0.55848  -0.55291  -0.53294  -0.53100  -0.53004
 Alpha  occ. eigenvalues --   -0.52861  -0.50506  -0.48824  -0.48800  -0.48510
 Alpha  occ. eigenvalues --   -0.47277  -0.46370  -0.46294  -0.44804  -0.44386
 Alpha  occ. eigenvalues --   -0.37343  -0.36362
 Alpha virt. eigenvalues --    0.05030   0.11163   0.16482   0.20101   0.22627
 Alpha virt. eigenvalues --    0.23744   0.25638   0.26214   0.26883   0.28099
 Alpha virt. eigenvalues --    0.28868   0.30264   0.30957   0.31518   0.31891

 Mulliken charges:
               1
     1  C   -0.298269
     2  C   -0.303255
     3  C   -0.476084
     4  H    0.148184
     5  H    0.152739
     6  H    0.142905
     7  H    0.154913
     8  H    0.159781
     9  H    0.155145
    10  H    0.158657
    11  C   -0.300192
    12  C   -0.300109
    13  C   -0.475732
    14  H    0.149020
    15  H    0.152405
    16  H    0.150402
    17  H    0.153300
    18  H    0.157718
    19  H    0.154497
    20  H    0.161335
    21  C   -0.172154
    22  C   -0.218960
    23  C   -0.171031
    24  C    0.158888
    25  C   -0.172098
    26  C   -0.217180
    27  H    0.225469
    28  H    0.223466
    29  H    0.275707
    30  H    0.275814
    31  H    0.227254
    32  N    0.488031
    33  O   -0.460260
    34  O   -0.460308
 Sum of Mulliken charges =  -0.00000

 Dipole moment (field-independent basis, Debye):
    X=             -3.9887    Y=             -1.2208    Z=              3.1154  Tot=              5.2064
 Quadrupole moment (field-independent basis, Debye-Ang):
   XX=           -116.9963   YY=            -93.3601   ZZ=            -91.5778
   XY=             -2.4215   XZ=             10.4998   YZ=              2.2062

 Normal termination of Gaussian 16 at Thu May  6 18:48:30 2021.
