 Gaussian 16, Revision A.03,
 Gaussian 16:  EM64L-G16RevA.03 25-Dec-2016

 -------------
 #p 6-31g* mp2
 -------------

 ------------------------------------------------------
 Input file generated by CHIRIPA (05-May-2021 14:53:11)
 ------------------------------------------------------
 Symbolic Z-matrix:
 Charge =  0 Multiplicity = 1

                         Standard orientation:
 ---------------------------------------------------------------------
 Center     Atomic      Atomic             Coordinates (Angstroms)
 Number     Number       Type             X           Y           Z
 ---------------------------------------------------------------------
      1          6           0        3.596185    1.078236    0.218725
      2          6           0        2.142668    1.460527    0.500023
      3          6           0        1.947674    2.969016    0.655689
      4          1           0        4.230796    1.449102    1.035225
      5          1           0        3.932039    1.588488   -0.694642
      6          1           0        1.809222    0.948619    1.411823
      7          1           0        1.511418    1.088541   -0.317146
      8          1           0        2.253754    3.493081   -0.255504
      9          1           0        2.553251    3.352364    1.483289
     10          1           0        0.901415    3.219999    0.856212
     11          6           0        3.807116   -0.426503    0.060618
     12          6           0        5.260632   -0.808795   -0.220679
     13          6           0        5.455627   -2.317284   -0.376345
     14          1           0        3.471261   -0.936755    0.973986
     15          1           0        3.172504   -0.797370   -0.755881
     16          1           0        5.891883   -0.436808    0.596490
     17          1           0        5.594078   -0.296886   -1.132479
     18          1           0        4.850050   -2.700631   -1.203945
     19          1           0        5.149546   -2.841348    0.534848
     20          1           0        6.501886   -2.568266   -0.576868
     21          6           0       -2.707252    2.216220   -0.585519
     22          6           0       -1.593383    1.386376   -0.750370
     23          6           0       -1.684156    0.015911   -0.489347
     24          6           0       -2.909767   -0.493451   -0.063062
     25          6           0       -4.037451    0.307465    0.110586
     26          6           0       -3.923586    1.675070   -0.156323
     27          1           0       -2.627768    3.279719   -0.790573
     28          1           0       -0.647490    1.803884   -1.083565
     29          1           0       -0.837637   -0.649360   -0.608674
     30          1           0       -4.966965   -0.137769    0.444031
     31          1           0       -4.790288    2.317143   -0.027427
     32          7           0       -3.018087   -1.942788    0.216387
     33          8           0       -4.109162   -2.367017    0.590848
     34          8           0       -2.009862   -2.627103    0.055666
 ---------------------------------------------------------------------

 SCF Done:  E(RHF) =  -669.535302676     A.U. after   15 cycles
 E2 =    -0.2091921322D+01 EUMP2 =    -0.67162722399861D+03

 The electronic state is 1-A.
 Alpha  occ. eigenvalues --  -20.60732 -20.60727 -15.85785 -11.31146 -11.27719
 Alpha  occ. eigenvalues --  -11.27699 -11.27456 -11.26733 -11.26684 -11.22416
 Alpha  occ. eigenvalues --  -11.21912 -11.21904 -11.21823 -11.21702 -11.21149
 Alpha  occ. eigenvalues --   -1.59808  -1.39361  -1.19318  -1.08911  -1.08713
 Alpha  occ. eigenvalues --   -1.04725  -1.04011  -0.96444  -0.95550  -0.87460
 Alpha  occ. eigenvalues --   -0.86117  -0.82391  -0.80112  -0.78681  -0.77422
 Alpha  occ. eigenvalues --   -0.72004  -0.71131  -0.70427  -0.65586  -0.64968
 Alpha  occ. eigenvalues --   -0.64725  -0.62171  -0.61340  -0.59822  -0.58039
 Alpha  occ. eigenvalues --   -0.55725  -0.55214  -0.53186  -0.53030  -0.52899
 Alpha  occ. eigenvalues --   -0.52736  -0.50384  -0.48763  -0.48759  -0.48404
 Alpha  occ. eigenvalues --   -0.47143  -0.46221  -0.46111  -0.44768  -0.44252
 Alpha  occ. eigenvalues --   -0.37300  -0.36306
 Alpha virt. eigenvalues --    0.05095   0.11267   0.16544   0.19787   0.22846
 Alpha virt. eigenvalues --    0.23918   0.25044   0.26501   0.26853   0.28595
 Alpha virt. eigenvalues --    0.29151   0.30393   0.31121   0.31434   0.31983

 Mulliken charges:
               1
     1  C   -0.298156
     2  C   -0.302069
     3  C   -0.479691
     4  H    0.152412
     5  H    0.149335
     6  H    0.158950
     7  H    0.140805
     8  H    0.154129
     9  H    0.161179
    10  H    0.157527
    11  C   -0.299222
    12  C   -0.300127
    13  C   -0.476224
    14  H    0.153393
    15  H    0.148573
    16  H    0.152485
    17  H    0.151454
    18  H    0.156634
    19  H    0.157494
    20  H    0.160849
    21  C   -0.172383
    22  C   -0.220942
    23  C   -0.171826
    24  C    0.158279
    25  C   -0.171039
    26  C   -0.218547
    27  H    0.225726
    28  H    0.229343
    29  H    0.275905
    30  H    0.275437
    31  H    0.223231
    32  N    0.488178
    33  O   -0.460684
    34  O   -0.460409
 Sum of Mulliken charges =  -0.00000

 Dipole moment (field-independent basis, Debye):
    X=              0.5409    Y=              5.0670    Z=             -0.8983  Tot=              5.1744
 Quadrupole moment (field-independent basis, Debye-Ang):
   XX=            -91.8744   YY=           -101.4670   ZZ=            -94.0842
   XY=            -15.6817   XZ=              1.9541   YZ=              0.1878

 Normal termination of Gaussian 16 at Wed May  5 23:19:32 2021.
