 Gaussian 16, Revision A.03,
 Gaussian 16:  EM64L-G16RevA.03 25-Dec-2016

 -------------
 #p 6-31g* mp2
 -------------

 ------------------------------------------------------
 Input file generated by CHIRIPA (05-May-2021 14:53:12)
 ------------------------------------------------------
 Symbolic Z-matrix:
 Charge =  0 Multiplicity = 1

                         Standard orientation:
 ---------------------------------------------------------------------
 Center     Atomic      Atomic             Coordinates (Angstroms)
 Number     Number       Type             X           Y           Z
 ---------------------------------------------------------------------
      1          6           0        5.072252   -0.535117   -0.126872
      2          6           0        6.545279   -0.596260    0.278638
      3          6           0        7.187472   -1.949283   -0.029110
      4          1           0        4.521874   -1.330721    0.393746
      5          1           0        4.985913   -0.747044   -1.201594
      6          1           0        6.628946   -0.382917    1.351998
      7          1           0        7.092179    0.199703   -0.242859
      8          1           0        7.133456   -2.166501   -1.100790
      9          1           0        6.667591   -2.752432    0.503128
     10          1           0        8.240393   -1.970965    0.268795
     11          6           0        4.416332    0.811247    0.174456
     12          6           0        2.943305    0.872390   -0.231054
     13          6           0        2.301112    2.225413    0.076694
     14          1           0        4.502671    1.023174    1.249178
     15          1           0        4.966710    1.606851   -0.346162
     16          1           0        2.396406    0.076427    0.290443
     17          1           0        2.859638    0.659047   -1.304414
     18          1           0        2.820993    3.028562   -0.455544
     19          1           0        2.355128    2.442631    1.148374
     20          1           0        1.248191    2.247095   -0.221211
     21          6           0       -2.440832    2.072218   -0.124933
     22          6           0       -1.763031    0.860354   -0.293736
     23          6           0       -2.454111   -0.353611   -0.236777
     24          6           0       -3.828837   -0.318625   -0.008306
     25          6           0       -4.532383    0.872467    0.163769
     26          6           0       -3.820910    2.074403    0.102879
     27          1           0       -1.896064    3.010582   -0.170707
     28          1           0       -0.691271    0.855622   -0.470796
     29          1           0       -1.954297   -1.306193   -0.364025
     30          1           0       -5.601043    0.845209    0.338813
     31          1           0       -4.349911    3.014043    0.234334
     32          7           0       -4.571245   -1.597429    0.054074
     33          8           0       -5.782147   -1.539610    0.256587
     34          8           0       -3.928187   -2.633358   -0.100727
 ---------------------------------------------------------------------

 SCF Done:  E(RHF) =  -669.535470680     A.U. after   15 cycles
 E2 =    -0.2090906871D+01 EUMP2 =    -0.67162637755106D+03

 The electronic state is 1-A.
 Alpha  occ. eigenvalues --  -20.60732 -20.60727 -15.85785 -11.31144 -11.27714
 Alpha  occ. eigenvalues --  -11.27705 -11.27451 -11.26730 -11.26695 -11.22535
 Alpha  occ. eigenvalues --  -11.22221 -11.22067 -11.22002 -11.21877 -11.21376
 Alpha  occ. eigenvalues --   -1.59808  -1.39362  -1.19315  -1.09073  -1.08713
 Alpha  occ. eigenvalues --   -1.04719  -1.04209  -0.96663  -0.95548  -0.87682
 Alpha  occ. eigenvalues --   -0.86118  -0.82380  -0.80286  -0.78838  -0.77431
 Alpha  occ. eigenvalues --   -0.72004  -0.71131  -0.70426  -0.65693  -0.64969
 Alpha  occ. eigenvalues --   -0.64768  -0.62119  -0.61586  -0.60058  -0.58258
 Alpha  occ. eigenvalues --   -0.55920  -0.55217  -0.53447  -0.53146  -0.53046
 Alpha  occ. eigenvalues --   -0.52677  -0.50578  -0.48766  -0.48759  -0.48593
 Alpha  occ. eigenvalues --   -0.47300  -0.46389  -0.46278  -0.44769  -0.44456
 Alpha  occ. eigenvalues --   -0.37297  -0.36320
 Alpha virt. eigenvalues --    0.05106   0.11323   0.16599   0.19273   0.22504
 Alpha virt. eigenvalues --    0.23774   0.25873   0.26044   0.26706   0.27746
 Alpha virt. eigenvalues --    0.28581   0.30445   0.30782   0.31477   0.31905

 Mulliken charges:
               1
     1  C   -0.299171
     2  C   -0.300236
     3  C   -0.476163
     4  H    0.150965
     5  H    0.150411
     6  H    0.152708
     7  H    0.152394
     8  H    0.155809
     9  H    0.156274
    10  H    0.161571
    11  C   -0.298772
    12  C   -0.302235
    13  C   -0.477867
    14  H    0.151463
    15  H    0.151353
    16  H    0.151332
    17  H    0.153158
    18  H    0.160084
    19  H    0.160027
    20  H    0.147584
    21  C   -0.172496
    22  C   -0.224874
    23  C   -0.171812
    24  C    0.158887
    25  C   -0.171316
    26  C   -0.218561
    27  H    0.225727
    28  H    0.232278
    29  H    0.275853
    30  H    0.275451
    31  H    0.223294
    32  N    0.487947
    33  O   -0.460561
    34  O   -0.460508
 Sum of Mulliken charges =  -0.00000

 Dipole moment (field-independent basis, Debye):
    X=              2.8576    Y=              4.5010    Z=             -0.1935  Tot=              5.3350
 Quadrupole moment (field-independent basis, Debye-Ang):
   XX=           -110.6503   YY=            -97.5328   ZZ=            -94.6542
   XY=            -20.0340   XZ=             -0.0943   YZ=              0.0841

 Normal termination of Gaussian 16 at Thu May  6 15:17:31 2021.
