 Gaussian 16, Revision A.03,
 Gaussian 16:  EM64L-G16RevA.03 25-Dec-2016

 -------------
 #p 6-31g* mp2
 -------------

 ------------------------------------------------------
 Input file generated by CHIRIPA (05-May-2021 14:51:08)
 ------------------------------------------------------
 Symbolic Z-matrix:
 Charge =  0 Multiplicity = 1

                         Standard orientation:
 ---------------------------------------------------------------------
 Center     Atomic      Atomic             Coordinates (Angstroms)
 Number     Number       Type             X           Y           Z
 ---------------------------------------------------------------------
      1          6           0        2.335418   -0.258457    0.724812
      2          6           0        2.206281   -1.608303    1.431371
      3          6           0        0.904121   -1.739564    2.221905
      4          1           0        2.274932    0.545901    1.470664
      5          1           0        1.479773   -0.122935    0.048868
      6          1           0        3.062635   -1.741847    2.104750
      7          1           0        2.267274   -2.409547    0.683772
      8          1           0        0.038933   -1.632381    1.559664
      9          1           0        0.838813   -0.960887    2.988715
     10          1           0        0.832500   -2.712027    2.718942
     11          6           0        3.631991   -0.112124   -0.069677
     12          6           0        3.761129    1.237722   -0.776236
     13          6           0        5.063289    1.368983   -1.566770
     14          1           0        4.487636   -0.247647    0.606268
     15          1           0        3.692478   -0.916482   -0.815529
     16          1           0        3.700136    2.038966   -0.028637
     17          1           0        2.904774    1.371265   -1.449615
     18          1           0        5.128596    0.590306   -2.333580
     19          1           0        5.928476    1.261800   -0.904529
     20          1           0        5.134910    2.341446   -2.063807
     21          6           0       -3.289506   -0.444419   -0.633155
     22          6           0       -2.261364   -1.538313   -0.923512
     23          6           0       -2.888408   -2.791770   -1.534621
     24          1           0       -4.055846   -0.841451    0.046575
     25          1           0       -3.806127   -0.179537   -1.566072
     26          1           0       -1.745870   -1.800075    0.009420
     27          1           0       -1.497278   -1.138572   -1.602478
     28          1           0       -3.386950   -2.551719   -2.479308
     29          1           0       -3.636954   -3.216982   -0.858252
     30          1           0       -2.135638   -3.560792   -1.734124
     31          6           0       -2.677904    0.815000   -0.021981
     32          6           0       -3.706045    1.908893    0.268377
     33          6           0       -3.079001    3.162351    0.879486
     34          1           0       -2.161282    0.550118    0.910937
     35          1           0       -1.911563    1.212031   -0.701711
     36          1           0       -4.470131    1.509152    0.947343
     37          1           0       -4.221540    2.170656   -0.664555
     38          1           0       -2.330455    3.587562    0.203117
     39          1           0       -2.580460    2.922300    1.824173
     40          1           0       -3.831772    3.931373    1.078988
 ---------------------------------------------------------------------

 SCF Done:  E(RHF) =  -470.733407351     A.U. after   11 cycles
 E2 =    -0.1583028445D+01 EUMP2 =    -0.47231643579614D+03

 The electronic state is 1-A.
 Alpha  occ. eigenvalues --  -11.21654 -11.21606 -11.21589 -11.21582 -11.21425
 Alpha  occ. eigenvalues --  -11.21377 -11.21363 -11.21314 -11.21110 -11.21063
 Alpha  occ. eigenvalues --  -11.21063 -11.21049  -1.08458  -1.08404  -1.03559
 Alpha  occ. eigenvalues --   -1.03509  -0.95997  -0.95965  -0.87021  -0.86977
 Alpha  occ. eigenvalues --   -0.79655  -0.79551  -0.78309  -0.78176  -0.65118
 Alpha  occ. eigenvalues --   -0.65013  -0.61036  -0.60842  -0.59378  -0.59320
 Alpha  occ. eigenvalues --   -0.57614  -0.57570  -0.55304  -0.55240  -0.52699
 Alpha  occ. eigenvalues --   -0.52661  -0.52438  -0.52379  -0.50028  -0.49852
 Alpha  occ. eigenvalues --   -0.48033  -0.47834  -0.46782  -0.46510  -0.45957
 Alpha  occ. eigenvalues --   -0.45752  -0.45704  -0.45425  -0.43805  -0.43766
 Alpha virt. eigenvalues --    0.20909   0.23214   0.23700   0.24520   0.25655
 Alpha virt. eigenvalues --    0.25708   0.27112   0.27901   0.28328   0.29447
 Alpha virt. eigenvalues --    0.30535   0.31511   0.31731   0.31864   0.32035

 Mulliken charges:
               1
     1  C   -0.299366
     2  C   -0.298807
     3  C   -0.484591
     4  H    0.149536
     5  H    0.151153
     6  H    0.151807
     7  H    0.151877
     8  H    0.163067
     9  H    0.154916
    10  H    0.159989
    11  C   -0.298338
    12  C   -0.299533
    13  C   -0.475691
    14  H    0.149433
    15  H    0.149543
    16  H    0.152032
    17  H    0.151643
    18  H    0.155109
    19  H    0.155197
    20  H    0.160160
    21  C   -0.297686
    22  C   -0.308518
    23  C   -0.475034
    24  H    0.149853
    25  H    0.149666
    26  H    0.159914
    27  H    0.151321
    28  H    0.155354
    29  H    0.155509
    30  H    0.160228
    31  C   -0.300132
    32  C   -0.299689
    33  C   -0.475717
    34  H    0.151453
    35  H    0.149471
    36  H    0.152050
    37  H    0.151920
    38  H    0.155279
    39  H    0.155443
    40  H    0.160182
 Sum of Mulliken charges =  -0.00000

 Dipole moment (field-independent basis, Debye):
    X=             -0.0259    Y=              0.0012    Z=             -0.0019  Tot=              0.0260
 Quadrupole moment (field-independent basis, Debye-Ang):
   XX=            -85.4376   YY=            -85.4972   ZZ=            -83.8328
   XY=             -0.2449   XZ=              0.6417   YZ=             -0.2899

 Normal termination of Gaussian 16 at Wed May  5 21:19:40 2021.
