 Gaussian 16, Revision A.03,
 Gaussian 16:  EM64L-G16RevA.03 25-Dec-2016

 -------------
 #p 6-31g* mp2
 -------------

 ------------------------------------------------------
 Input file generated by CHIRIPA (05-May-2021 14:53:14)
 ------------------------------------------------------
 Symbolic Z-matrix:
 Charge =  0 Multiplicity = 1

                         Standard orientation:
 ---------------------------------------------------------------------
 Center     Atomic      Atomic             Coordinates (Angstroms)
 Number     Number       Type             X           Y           Z
 ---------------------------------------------------------------------
      1          6           0        2.121062    1.132780   -0.209437
      2          6           0        2.340601    2.233194    0.829253
      3          6           0        1.555616    3.507255    0.515627
      4          1           0        2.410905    1.509262   -1.199991
      5          1           0        1.048742    0.899507   -0.265200
      6          1           0        3.412349    2.463350    0.884033
      7          1           0        2.050382    1.853984    1.817479
      8          1           0        0.481331    3.299142    0.480963
      9          1           0        1.851036    3.911970   -0.457786
     10          1           0        1.727167    4.280643    1.270810
     11          6           0        2.899200   -0.147207    0.090332
     12          6           0        2.679661   -1.247621   -0.948357
     13          6           0        3.464646   -2.521682   -0.634731
     14          1           0        3.971520    0.086065    0.146095
     15          1           0        2.609358   -0.523690    1.080886
     16          1           0        2.969880   -0.868412   -1.936583
     17          1           0        1.607913   -1.477778   -1.003137
     18          1           0        3.169226   -2.926398    0.338682
     19          1           0        4.538931   -2.313569   -0.600067
     20          1           0        3.293095   -3.295070   -1.389914
     21          6           0       -1.371032   -1.412230    2.274213
     22          6           0       -0.844743   -1.948845    1.094557
     23          6           0       -1.164821   -1.387807   -0.145335
     24          6           0       -2.018080   -0.285680   -0.168840
     25          6           0       -2.558455    0.271699    0.989010
     26          6           0       -2.224702   -0.305622    2.217773
     27          1           0       -1.117076   -1.854381    3.233068
     28          1           0       -0.181518   -2.808213    1.135361
     29          1           0       -0.771522   -1.783177   -1.074000
     30          1           0       -3.216934    1.128762    0.916438
     31          1           0       -2.634907    0.113224    3.132293
     32          7           0       -2.364170    0.316885   -1.475568
     33          8           0       -3.118134    1.287521   -1.469346
     34          8           0       -1.874917   -0.192872   -2.481260
 ---------------------------------------------------------------------

 SCF Done:  E(RHF) =  -669.534845813     A.U. after   15 cycles
 E2 =    -0.2094375047D+01 EUMP2 =    -0.67162922086009D+03

 The electronic state is 1-A.
 Alpha  occ. eigenvalues --  -20.60844 -20.60836 -15.85899 -11.31312 -11.27885
 Alpha  occ. eigenvalues --  -11.27874 -11.27625 -11.26903 -11.26890 -11.21885
 Alpha  occ. eigenvalues --  -11.21616 -11.21571 -11.21507 -11.21335 -11.20992
 Alpha  occ. eigenvalues --   -1.59918  -1.39469  -1.19498  -1.08873  -1.08558
 Alpha  occ. eigenvalues --   -1.04905  -1.03689  -0.96128  -0.95702  -0.87144
 Alpha  occ. eigenvalues --   -0.86293  -0.82532  -0.79764  -0.78357  -0.77566
 Alpha  occ. eigenvalues --   -0.72114  -0.71247  -0.70599  -0.65264  -0.65108
 Alpha  occ. eigenvalues --   -0.64889  -0.62293  -0.61052  -0.59506  -0.57733
 Alpha  occ. eigenvalues --   -0.55449  -0.55373  -0.53239  -0.53004  -0.52819
 Alpha  occ. eigenvalues --   -0.52538  -0.50075  -0.48878  -0.48867  -0.48066
 Alpha  occ. eigenvalues --   -0.46805  -0.45883  -0.45808  -0.44851  -0.43918
 Alpha  occ. eigenvalues --   -0.37448  -0.36443
 Alpha virt. eigenvalues --    0.04924   0.11059   0.16338   0.20253   0.22931
 Alpha virt. eigenvalues --    0.23883   0.25813   0.26585   0.27483   0.28170
 Alpha virt. eigenvalues --    0.28557   0.30182   0.31263   0.31649   0.32611

 Mulliken charges:
               1
     1  C   -0.300948
     2  C   -0.299356
     3  C   -0.475772
     4  H    0.153404
     5  H    0.152027
     6  H    0.151296
     7  H    0.148613
     8  H    0.156122
     9  H    0.158240
    10  H    0.158735
    11  C   -0.296862
    12  C   -0.302629
    13  C   -0.476163
    14  H    0.150188
    15  H    0.145010
    16  H    0.158154
    17  H    0.146505
    18  H    0.147989
    19  H    0.158555
    20  H    0.160981
    21  C   -0.171371
    22  C   -0.217129
    23  C   -0.172703
    24  C    0.159249
    25  C   -0.172291
    26  C   -0.218004
    27  H    0.226332
    28  H    0.225462
    29  H    0.277684
    30  H    0.276289
    31  H    0.224170
    32  N    0.488004
    33  O   -0.460235
    34  O   -0.459546
 Sum of Mulliken charges =  -0.00000

 Dipole moment (field-independent basis, Debye):
    X=              1.1618    Y=             -2.0628    Z=              4.5423  Tot=              5.1223
 Quadrupole moment (field-independent basis, Debye-Ang):
   XX=            -98.1483   YY=            -92.6013   ZZ=            -95.3421
   XY=              2.6438   XZ=            -11.9054   YZ=              0.5902

 Normal termination of Gaussian 16 at Thu May  6 13:46:36 2021.
