 Gaussian 16, Revision A.03,
 Gaussian 16:  EM64L-G16RevA.03 25-Dec-2016

 -------------
 #p 6-31g* mp2
 -------------

 ------------------------------------------------------
 Input file generated by CHIRIPA (05-May-2021 14:57:22)
 ------------------------------------------------------
 Symbolic Z-matrix:
 Charge =  0 Multiplicity = 1

                         Standard orientation:
 ---------------------------------------------------------------------
 Center     Atomic      Atomic             Coordinates (Angstroms)
 Number     Number       Type             X           Y           Z
 ---------------------------------------------------------------------
      1          6           0        5.484792    0.759834   -0.146528
      2          6           0        5.332053   -0.570650    0.257208
      3          6           0        4.074400   -1.180704    0.230882
      4          6           0        2.986175   -0.427414   -0.206852
      5          6           0        3.106171    0.899977   -0.615415
      6          6           0        4.373324    1.489615   -0.580785
      7          1           0        6.465457    1.225809   -0.122852
      8          1           0        6.193462   -1.139830    0.594926
      9          1           0        3.927758   -2.209135    0.537871
     10          1           0        2.228805    1.441838   -0.947127
     11          1           0        4.488967    2.523053   -0.894915
     12          7           0        1.649726   -1.062444   -0.239117
     13          8           0        0.706761   -0.377246   -0.628934
     14          8           0        1.570488   -2.233355    0.126021
     15          6           0       -1.378250    1.766847    1.170165
     16          6           0       -1.629768    0.500797    1.709031
     17          6           0       -2.640205   -0.307929    1.180329
     18          6           0       -3.383180    0.183144    0.107889
     19          6           0       -3.156658    1.440027   -0.450879
     20          6           0       -2.141153    2.231602    0.093828
     21          1           0       -0.591349    2.388423    1.587090
     22          1           0       -1.038871    0.137270    2.544933
     23          1           0       -2.856162   -1.292047    1.578191
     24          1           0       -3.762383    1.775095   -1.284093
     25          1           0       -1.948048    3.214416   -0.326686
     26          7           0       -4.455568   -0.663940   -0.460294
     27          8           0       -5.096040   -0.208243   -1.405162
     28          8           0       -4.635327   -1.767541    0.049988
 ---------------------------------------------------------------------

 SCF Done:  E(RHF) =  -868.336963951     A.U. after   16 cycles
 E2 =    -0.2600876903D+01 EUMP2 =    -0.87093784085397D+03

 The electronic state is 1-A.
 Alpha  occ. eigenvalues --  -20.61295 -20.61239 -20.59759 -20.59742 -15.86291
 Alpha  occ. eigenvalues --  -15.84803 -11.31717 -11.30014 -11.28308 -11.28257
 Alpha  occ. eigenvalues --  -11.28005 -11.27311 -11.27270 -11.26653 -11.26547
 Alpha  occ. eigenvalues --  -11.26433 -11.25705 -11.25596  -1.60342  -1.58827
 Alpha  occ. eigenvalues --   -1.39893  -1.38387  -1.19886  -1.18183  -1.09268
 Alpha  occ. eigenvalues --   -1.07646  -1.05292  -1.03600  -0.96097  -0.94507
 Alpha  occ. eigenvalues --   -0.86685  -0.85048  -0.82925  -0.81361  -0.77976
 Alpha  occ. eigenvalues --   -0.76401  -0.72522  -0.71684  -0.71041  -0.70980
 Alpha  occ. eigenvalues --   -0.70133  -0.69420  -0.65532  -0.65286  -0.63899
 Alpha  occ. eigenvalues --   -0.63694  -0.62638  -0.60996  -0.55774  -0.54228
 Alpha  occ. eigenvalues --   -0.53626  -0.53378  -0.51889  -0.51769  -0.49289
 Alpha  occ. eigenvalues --   -0.49255  -0.47794  -0.47783  -0.45283  -0.43828
 Alpha  occ. eigenvalues --   -0.37869  -0.36903  -0.36116  -0.35100
 Alpha virt. eigenvalues --    0.04538   0.06164   0.10749   0.12489   0.16045
 Alpha virt. eigenvalues --    0.17657   0.20897   0.22277   0.26790   0.27755
 Alpha virt. eigenvalues --    0.28214   0.29129   0.30537   0.31658   0.32162

 Mulliken charges:
               1
     1  C   -0.170812
     2  C   -0.218296
     3  C   -0.171281
     4  C    0.157721
     5  C   -0.173396
     6  C   -0.218397
     7  H    0.227040
     8  H    0.225206
     9  H    0.276916
    10  H    0.273159
    11  H    0.223461
    12  N    0.486334
    13  O   -0.456852
    14  O   -0.460098
    15  C   -0.163499
    16  C   -0.206730
    17  C   -0.161410
    18  C    0.160716
    19  C   -0.169615
    20  C   -0.217394
    21  H    0.215357
    22  H    0.218201
    23  H    0.274815
    24  H    0.271286
    25  H    0.215183
    26  N    0.488264
    27  O   -0.464710
    28  O   -0.461169
 Sum of Mulliken charges =  -0.00000

 Dipole moment (field-independent basis, Debye):
    X=              8.7134    Y=              5.0126    Z=              2.1088  Tot=             10.2712
 Quadrupole moment (field-independent basis, Debye-Ang):
   XX=           -102.7814   YY=           -100.4499   ZZ=           -103.0087
   XY=             -7.1651   XZ=             -5.4920   YZ=             -4.4381

 Normal termination of Gaussian 16 at Thu May  6 16:11:45 2021.
