 Gaussian 16, Revision A.03,
 Gaussian 16:  EM64L-G16RevA.03 25-Dec-2016

 -------------
 #p 6-31g* mp2
 -------------

 ------------------------------------------------------
 Input file generated by CHIRIPA (05-May-2021 14:51:12)
 ------------------------------------------------------
 Symbolic Z-matrix:
 Charge =  0 Multiplicity = 1

                         Standard orientation:
 ---------------------------------------------------------------------
 Center     Atomic      Atomic             Coordinates (Angstroms)
 Number     Number       Type             X           Y           Z
 ---------------------------------------------------------------------
      1          6           0       -2.964929   -0.700623   -0.413632
      2          6           0       -4.036752    0.148707    0.270342
      3          6           0       -5.101281    0.654121   -0.703890
      4          1           0       -2.487212   -0.108324   -1.206042
      5          1           0       -3.445438   -1.555641   -0.909061
      6          1           0       -3.554218    1.001112    0.765500
      7          1           0       -4.511842   -0.445619    1.061343
      8          1           0       -5.609113   -0.185614   -1.189228
      9          1           0       -4.646048    1.269338   -1.486751
     10          1           0       -5.857504    1.258979   -0.193857
     11          6           0       -1.893667   -1.213216    0.547291
     12          6           0       -0.821845   -2.062545   -0.136684
     13          6           0        0.242684   -2.567959    0.837548
     14          1           0       -1.413158   -0.358197    1.042720
     15          1           0       -2.371385   -1.805514    1.339700
     16          1           0       -0.346755   -1.468219   -0.927685
     17          1           0       -1.304379   -2.914951   -0.631842
     18          1           0       -0.212548   -3.183176    1.620410
     19          1           0        0.750517   -1.728225    1.322886
     20          1           0        0.998907   -3.172817    0.327515
     21          6           0        2.942824    0.459606    0.202247
     22          6           0        3.502997   -0.474102   -0.871242
     23          6           0        4.529092   -1.463199   -0.317517
     24          1           0        3.771063    1.010737    0.668317
     25          1           0        2.481327   -0.142285    0.997321
     26          1           0        3.962081    0.129416   -1.664731
     27          1           0        2.673310   -1.022934   -1.334943
     28          1           0        4.079690   -2.089863    0.459613
     29          1           0        5.375782   -0.930966    0.127952
     30          1           0        4.916521   -2.120951   -1.101814
     31          6           0        1.915772    1.454232   -0.335906
     32          6           0        1.355599    2.387940    0.737584
     33          6           0        0.329505    3.377038    0.183858
     34          1           0        2.377271    2.056122   -1.130979
     35          1           0        1.087534    0.903102   -0.801976
     36          1           0        2.185287    2.936772    1.201285
     37          1           0        0.896517    1.784421    1.531073
     38          1           0       -0.517185    2.844803   -0.261610
     39          1           0        0.778908    4.003701   -0.593272
     40          1           0       -0.057925    4.034789    0.968155
 ---------------------------------------------------------------------

 SCF Done:  E(RHF) =  -470.733136274     A.U. after   11 cycles
 E2 =    -0.1584680482D+01 EUMP2 =    -0.47231781675588D+03

 The electronic state is 1-A.
 Alpha  occ. eigenvalues --  -11.21694 -11.21669 -11.21640 -11.21590 -11.21479
 Alpha  occ. eigenvalues --  -11.21433 -11.21417 -11.21352 -11.21147 -11.21142
 Alpha  occ. eigenvalues --  -11.21094 -11.21046  -1.08528  -1.08432  -1.03605
 Alpha  occ. eigenvalues --   -1.03544  -0.96054  -0.95994  -0.87084  -0.86998
 Alpha  occ. eigenvalues --   -0.79669  -0.79614  -0.78360  -0.78222  -0.65476
 Alpha  occ. eigenvalues --   -0.64802  -0.61085  -0.60855  -0.59402  -0.59371
 Alpha  occ. eigenvalues --   -0.57678  -0.57598  -0.55491  -0.55129  -0.52732
 Alpha  occ. eigenvalues --   -0.52698  -0.52516  -0.52378  -0.50188  -0.49769
 Alpha  occ. eigenvalues --   -0.47983  -0.47930  -0.46829  -0.46642  -0.45993
 Alpha  occ. eigenvalues --   -0.45929  -0.45645  -0.45406  -0.43848  -0.43808
 Alpha virt. eigenvalues --    0.18130   0.21684   0.23803   0.24662   0.25275
 Alpha virt. eigenvalues --    0.25831   0.27074   0.27904   0.28717   0.29929
 Alpha virt. eigenvalues --    0.30961   0.31071   0.31596   0.31919   0.32360

 Mulliken charges:
               1
     1  C   -0.298504
     2  C   -0.300158
     3  C   -0.475726
     4  H    0.149309
     5  H    0.149928
     6  H    0.152485
     7  H    0.152093
     8  H    0.155209
     9  H    0.155353
    10  H    0.160518
    11  C   -0.300356
    12  C   -0.303146
    13  C   -0.481098
    14  H    0.150800
    15  H    0.150240
    16  H    0.154292
    17  H    0.152692
    18  H    0.155719
    19  H    0.159306
    20  H    0.161339
    21  C   -0.302564
    22  C   -0.301202
    23  C   -0.476912
    24  H    0.149876
    25  H    0.154347
    26  H    0.151754
    27  H    0.153933
    28  H    0.156754
    29  H    0.155044
    30  H    0.159983
    31  C   -0.302023
    32  C   -0.300455
    33  C   -0.476257
    34  H    0.149933
    35  H    0.152173
    36  H    0.152587
    37  H    0.151719
    38  H    0.154727
    39  H    0.155682
    40  H    0.160604
 Sum of Mulliken charges =  -0.00000

 Dipole moment (field-independent basis, Debye):
    X=             -0.0111    Y=             -0.0119    Z=              0.0079  Tot=              0.0181
 Quadrupole moment (field-independent basis, Debye-Ang):
   XX=            -85.1313   YY=            -84.3520   ZZ=            -85.1211
   XY=              1.9631   XZ=             -0.9020   YZ=              0.1604

 Normal termination of Gaussian 16 at Thu May  6 03:55:33 2021.
