 Gaussian 16, Revision A.03,
 Gaussian 16:  EM64L-G16RevA.03 25-Dec-2016

 -------------
 #p 6-31g* mp2
 -------------

 ------------------------------------------------------
 Input file generated by CHIRIPA (05-May-2021 14:53:17)
 ------------------------------------------------------
 Symbolic Z-matrix:
 Charge =  0 Multiplicity = 1

                         Standard orientation:
 ---------------------------------------------------------------------
 Center     Atomic      Atomic             Coordinates (Angstroms)
 Number     Number       Type             X           Y           Z
 ---------------------------------------------------------------------
      1          6           0       -4.060791   -0.170725   -0.232711
      2          6           0       -5.477958   -0.445606    0.271335
      3          6           0       -5.897297   -1.904724    0.089888
      4          1           0       -3.997200   -0.442584   -1.295253
      5          1           0       -3.356402   -0.824587    0.299919
      6          1           0       -6.179304    0.209559   -0.261104
      7          1           0       -5.538235   -0.172881    1.332751
      8          1           0       -5.220739   -2.570659    0.635233
      9          1           0       -5.865450   -2.186047   -0.967677
     10          1           0       -6.913586   -2.078971    0.456843
     11          6           0       -3.627164    1.283656   -0.058149
     12          6           0       -2.209996    1.558536   -0.562195
     13          6           0       -1.790658    3.017654   -0.380748
     14          1           0       -4.331553    1.937517   -0.590780
     15          1           0       -3.690755    1.555515    1.004392
     16          1           0       -2.149720    1.285811   -1.623611
     17          1           0       -1.508651    0.903372   -0.029757
     18          1           0       -1.822505    3.298977    0.676817
     19          1           0       -2.467216    3.683589   -0.926093
     20          1           0       -0.774369    3.191902   -0.747703
     21          6           0        5.203126    0.783295   -0.091895
     22          6           0        4.167312    1.332856    0.670729
     23          6           0        2.944099    0.666755    0.791592
     24          6           0        2.790417   -0.552493    0.133486
     25          6           0        3.803417   -1.125813   -0.633604
     26          6           0        5.018198   -0.442125   -0.740484
     27          1           0        6.150073    1.307570   -0.180352
     28          1           0        4.308102    2.284379    1.175533
     29          1           0        2.125434    1.069459    1.375574
     30          1           0        3.633281   -2.075964   -1.125220
     31          1           0        5.820867   -0.871304   -1.333419
     32          7           0        1.499920   -1.266974    0.254035
     33          8           0        1.389677   -2.339761   -0.335548
     34          8           0        0.623105   -0.740667    0.935824
 ---------------------------------------------------------------------

 SCF Done:  E(RHF) =  -669.536412314     A.U. after   15 cycles
 E2 =    -0.2091038853D+01 EUMP2 =    -0.67162745116679D+03

 The electronic state is 1-A.
 Alpha  occ. eigenvalues --  -20.60988 -20.60980 -15.86009 -11.31303 -11.27863
 Alpha  occ. eigenvalues --  -11.27860 -11.27599 -11.26867 -11.26857 -11.20778
 Alpha  occ. eigenvalues --  -11.20538 -11.20476 -11.20447 -11.20336 -11.20294
 Alpha  occ. eigenvalues --   -1.60038  -1.39596  -1.19470  -1.08879  -1.07500
 Alpha  occ. eigenvalues --   -1.04862  -1.02686  -0.95726  -0.95172  -0.86264
 Alpha  occ. eigenvalues --   -0.86189  -0.82563  -0.78732  -0.77621  -0.77284
 Alpha  occ. eigenvalues --   -0.72237  -0.71344  -0.70579  -0.65128  -0.64866
 Alpha  occ. eigenvalues --   -0.64120  -0.62210  -0.60077  -0.58543  -0.56775
 Alpha  occ. eigenvalues --   -0.55369  -0.54464  -0.53195  -0.52954  -0.51901
 Alpha  occ. eigenvalues --   -0.51594  -0.49119  -0.49001  -0.48979  -0.47072
 Alpha  occ. eigenvalues --   -0.45799  -0.45109  -0.44854  -0.44508  -0.42926
 Alpha  occ. eigenvalues --   -0.37446  -0.36462
 Alpha virt. eigenvalues --    0.04870   0.11190   0.16337   0.21272   0.23773
 Alpha virt. eigenvalues --    0.24984   0.27221   0.27551   0.28033   0.28742
 Alpha virt. eigenvalues --    0.28791   0.30866   0.32087   0.32274   0.32555

 Mulliken charges:
               1
     1  C   -0.300826
     2  C   -0.299038
     3  C   -0.475479
     4  H    0.147835
     5  H    0.162200
     6  H    0.148449
     7  H    0.150476
     8  H    0.158039
     9  H    0.154201
    10  H    0.156898
    11  C   -0.296702
    12  C   -0.312004
    13  C   -0.474422
    14  H    0.144406
    15  H    0.147727
    16  H    0.148019
    17  H    0.177476
    18  H    0.152364
    19  H    0.152193
    20  H    0.153423
    21  C   -0.170536
    22  C   -0.218579
    23  C   -0.170710
    24  C    0.158264
    25  C   -0.170737
    26  C   -0.218586
    27  H    0.226071
    28  H    0.224051
    29  H    0.276000
    30  H    0.275848
    31  H    0.223853
    32  N    0.489634
    33  O   -0.458265
    34  O   -0.461542
 Sum of Mulliken charges =  -0.00000

 Dipole moment (field-independent basis, Debye):
    X=              4.8130    Y=              2.3180    Z=             -0.3618  Tot=              5.3543
 Quadrupole moment (field-independent basis, Debye-Ang):
   XX=            -70.2096   YY=            -96.7391   ZZ=            -93.0172
   XY=              3.0301   XZ=             -1.6977   YZ=              2.9678

 Normal termination of Gaussian 16 at Thu May  6 10:42:10 2021.
