 Gaussian 16, Revision A.03,
 Gaussian 16:  EM64L-G16RevA.03 25-Dec-2016

 -------------
 #p 6-31g* mp2
 -------------

 ------------------------------------------------------
 Input file generated by CHIRIPA (05-May-2021 14:51:09)
 ------------------------------------------------------
 Symbolic Z-matrix:
 Charge =  0 Multiplicity = 1

                         Standard orientation:
 ---------------------------------------------------------------------
 Center     Atomic      Atomic             Coordinates (Angstroms)
 Number     Number       Type             X           Y           Z
 ---------------------------------------------------------------------
      1          6           0       -3.229511    1.111021   -0.443176
      2          6           0       -2.761661    2.066768    0.654845
      3          6           0       -2.583744    3.500498    0.154288
      4          1           0       -2.503124    1.125719   -1.267247
      5          1           0       -4.179475    1.476330   -0.857317
      6          1           0       -1.813562    1.699015    1.067741
      7          1           0       -3.489148    2.049649    1.476481
      8          1           0       -3.527689    3.890969   -0.239540
      9          1           0       -1.842583    3.538344   -0.650603
     10          1           0       -2.248892    4.166779    0.955415
     11          6           0       -3.411930   -0.326073    0.041811
     12          6           0       -3.879780   -1.281819   -1.056210
     13          6           0       -4.057697   -2.715549   -0.555654
     14          1           0       -2.461966   -0.691381    0.455951
     15          1           0       -4.138316   -0.340770    0.865881
     16          1           0       -3.152293   -1.264700   -1.877846
     17          1           0       -4.827879   -0.914067   -1.469106
     18          1           0       -4.798858   -2.753395    0.249237
     19          1           0       -3.113752   -3.106021   -0.161826
     20          1           0       -4.392549   -3.381830   -1.356780
     21          6           0        4.051750   -0.189575    0.289331
     22          6           0        4.720332    0.253101   -1.012600
     23          6           0        6.182542    0.655919   -0.819022
     24          1           0        4.114845    0.626313    1.022332
     25          1           0        4.612762   -1.034210    0.712714
     26          1           0        4.157422    1.095759   -1.434116
     27          1           0        4.655470   -0.563866   -1.742650
     28          1           0        6.763571   -0.182250   -0.420927
     29          1           0        6.262693    1.486804   -0.110639
     30          1           0        6.641006    0.968860   -1.762282
     31          6           0        2.589690   -0.595374    0.112035
     32          6           0        1.921109   -1.038050    1.413965
     33          6           0        0.458899   -1.440867    1.220387
     34          1           0        2.028679    0.249262   -0.311348
     35          1           0        2.526597   -1.411261   -0.620967
     36          1           0        1.985971   -0.221083    2.144016
     37          1           0        2.484019   -1.880708    1.835481
     38          1           0        0.378747   -2.271752    0.512005
     39          1           0       -0.122130   -0.602698    0.822292
     40          1           0        0.000435   -1.753808    2.163647
 ---------------------------------------------------------------------

 SCF Done:  E(RHF) =  -470.733124885     A.U. after   11 cycles
 E2 =    -0.1583063682D+01 EUMP2 =    -0.47231618856723D+03

 The electronic state is 1-A.
 Alpha  occ. eigenvalues --  -11.21674 -11.21638 -11.21606 -11.21527 -11.21462
 Alpha  occ. eigenvalues --  -11.21399 -11.21351 -11.21237 -11.21170 -11.21098
 Alpha  occ. eigenvalues --  -11.21081 -11.21003  -1.08489  -1.08380  -1.03592
 Alpha  occ. eigenvalues --   -1.03491  -0.96053  -0.95932  -0.87074  -0.86949
 Alpha  occ. eigenvalues --   -0.79673  -0.79549  -0.78318  -0.78167  -0.65168
 Alpha  occ. eigenvalues --   -0.64987  -0.60994  -0.60887  -0.59409  -0.59304
 Alpha  occ. eigenvalues --   -0.57668  -0.57540  -0.55429  -0.55148  -0.52752
 Alpha  occ. eigenvalues --   -0.52641  -0.52497  -0.52336  -0.50041  -0.49846
 Alpha  occ. eigenvalues --   -0.48015  -0.47866  -0.46744  -0.46592  -0.45942
 Alpha  occ. eigenvalues --   -0.45783  -0.45713  -0.45379  -0.43835  -0.43736
 Alpha virt. eigenvalues --    0.20803   0.22990   0.23908   0.24475   0.25618
 Alpha virt. eigenvalues --    0.26639   0.27193   0.27551   0.27799   0.29377
 Alpha virt. eigenvalues --    0.30210   0.31453   0.31745   0.31901   0.32233

 Mulliken charges:
               1
     1  C   -0.297919
     2  C   -0.302074
     3  C   -0.475571
     4  H    0.148999
     5  H    0.149509
     6  H    0.152805
     7  H    0.152333
     8  H    0.155460
     9  H    0.154826
    10  H    0.160096
    11  C   -0.307609
    12  C   -0.298836
    13  C   -0.476140
    14  H    0.160837
    15  H    0.149007
    16  H    0.151593
    17  H    0.151409
    18  H    0.154922
    19  H    0.155985
    20  H    0.159774
    21  C   -0.298346
    22  C   -0.299700
    23  C   -0.475748
    24  H    0.149831
    25  H    0.149715
    26  H    0.151946
    27  H    0.151984
    28  H    0.155253
    29  H    0.155278
    30  H    0.160384
    31  C   -0.298478
    32  C   -0.300032
    33  C   -0.481233
    34  H    0.149235
    35  H    0.149750
    36  H    0.152323
    37  H    0.152344
    38  H    0.155301
    39  H    0.159391
    40  H    0.161395
 Sum of Mulliken charges =  -0.00000

 Dipole moment (field-independent basis, Debye):
    X=              0.0402    Y=             -0.0157    Z=              0.0212  Tot=              0.0481
 Quadrupole moment (field-independent basis, Debye-Ang):
   XX=            -84.9911   YY=            -85.1033   ZZ=            -84.7524
   XY=             -1.0356   XZ=             -0.2761   YZ=              0.4401

 Normal termination of Gaussian 16 at Thu May  6 03:44:45 2021.
