 Gaussian 16, Revision A.03,
 Gaussian 16:  EM64L-G16RevA.03 25-Dec-2016

 -------------
 #p 6-31g* mp2
 -------------

 ------------------------------------------------------
 Input file generated by CHIRIPA (05-May-2021 14:51:14)
 ------------------------------------------------------
 Symbolic Z-matrix:
 Charge =  0 Multiplicity = 1

                         Standard orientation:
 ---------------------------------------------------------------------
 Center     Atomic      Atomic             Coordinates (Angstroms)
 Number     Number       Type             X           Y           Z
 ---------------------------------------------------------------------
      1          6           0       -3.214766    0.017930   -0.039737
      2          6           0       -4.577891   -0.047718   -0.729350
      3          6           0       -5.197505   -1.444737   -0.682331
      4          1           0       -2.535202   -0.702346   -0.515489
      5          1           0       -3.325079   -0.300254    1.006200
      6          1           0       -4.465291    0.271818   -1.773301
      7          1           0       -5.254231    0.672935   -0.252026
      8          1           0       -5.338650   -1.768889    0.353818
      9          1           0       -4.545227   -2.172285   -1.176101
     10          1           0       -6.171447   -1.468941   -1.181040
     11          6           0       -2.582586    1.408103   -0.078435
     12          6           0       -1.219462    1.473751    0.611178
     13          6           0       -0.599847    2.870770    0.564160
     14          1           0       -2.472273    1.726287   -1.124372
     15          1           0       -3.262150    2.128379    0.397318
     16          1           0       -0.543121    0.753098    0.133854
     17          1           0       -1.332061    1.154215    1.655130
     18          1           0       -1.252125    3.598317    1.057929
     19          1           0       -0.458703    3.194922   -0.471989
     20          1           0        0.374095    2.894974    1.062868
     21          6           0        3.412291   -0.553805   -0.483394
     22          6           0        4.605824    0.252645    0.029537
     23          6           0        5.624647    0.563330   -1.067400
     24          1           0        3.774609   -1.491931   -0.925649
     25          1           0        2.922083    0.004542   -1.292926
     26          1           0        5.092808   -0.306429    0.838796
     27          1           0        4.240608    1.188874    0.470795
     28          1           0        5.159839    1.142030   -1.872173
     29          1           0        6.016880   -0.361769   -1.502081
     30          1           0        6.469510    1.140461   -0.678830
     31          6           0        2.385062   -0.872228    0.601565
     32          6           0        1.191527   -1.678679    0.088635
     33          6           0        0.172705   -1.989362    1.185572
     34          1           0        2.875269   -1.430574    1.411097
     35          1           0        2.022744    0.065898    1.043821
     36          1           0        1.556744   -2.614908   -0.352622
     37          1           0        0.704545   -1.119605   -0.720623
     38          1           0       -0.219527   -1.064264    1.620253
     39          1           0        0.637514   -2.568064    1.990345
     40          1           0       -0.672158   -2.566493    0.797002
 ---------------------------------------------------------------------

 SCF Done:  E(RHF) =  -470.731590269     A.U. after   11 cycles
 E2 =    -0.1585176241D+01 EUMP2 =    -0.47231676650973D+03

 The electronic state is 1-A.
 Alpha  occ. eigenvalues --  -11.21616 -11.21607 -11.21601 -11.21590 -11.21426
 Alpha  occ. eigenvalues --  -11.21400 -11.21356 -11.21340 -11.21139 -11.21076
 Alpha  occ. eigenvalues --  -11.21070 -11.20879  -1.08509  -1.08383  -1.03623
 Alpha  occ. eigenvalues --   -1.03458  -0.96014  -0.95946  -0.87037  -0.86958
 Alpha  occ. eigenvalues --   -0.79683  -0.79562  -0.78320  -0.78209  -0.65314
 Alpha  occ. eigenvalues --   -0.64891  -0.61197  -0.60752  -0.59401  -0.59263
 Alpha  occ. eigenvalues --   -0.57663  -0.57515  -0.55308  -0.55261  -0.52715
 Alpha  occ. eigenvalues --   -0.52652  -0.52496  -0.52282  -0.50010  -0.49875
 Alpha  occ. eigenvalues --   -0.48148  -0.47670  -0.46826  -0.46513  -0.45940
 Alpha  occ. eigenvalues --   -0.45817  -0.45571  -0.45461  -0.43813  -0.43752
 Alpha virt. eigenvalues --    0.20521   0.22790   0.23967   0.24078   0.25484
 Alpha virt. eigenvalues --    0.26217   0.26459   0.27759   0.28797   0.29957
 Alpha virt. eigenvalues --    0.30436   0.30770   0.31607   0.31831   0.32151

 Mulliken charges:
               1
     1  C   -0.300785
     2  C   -0.299675
     3  C   -0.475689
     4  H    0.152575
     5  H    0.150146
     6  H    0.151755
     7  H    0.151951
     8  H    0.155371
     9  H    0.154997
    10  H    0.160294
    11  C   -0.297448
    12  C   -0.310278
    13  C   -0.475501
    14  H    0.149076
    15  H    0.149609
    16  H    0.163314
    17  H    0.152403
    18  H    0.155572
    19  H    0.155066
    20  H    0.159815
    21  C   -0.298024
    22  C   -0.299606
    23  C   -0.475702
    24  H    0.149698
    25  H    0.149101
    26  H    0.151953
    27  H    0.151851
    28  H    0.155193
    29  H    0.155152
    30  H    0.160276
    31  C   -0.300759
    32  C   -0.303811
    33  C   -0.481462
    34  H    0.150016
    35  H    0.151760
    36  H    0.153255
    37  H    0.150697
    38  H    0.163810
    39  H    0.153904
    40  H    0.160128
 Sum of Mulliken charges =  -0.00000

 Dipole moment (field-independent basis, Debye):
    X=             -0.0247    Y=              0.0164    Z=              0.0125  Tot=              0.0322
 Quadrupole moment (field-independent basis, Debye-Ang):
   XX=            -85.3570   YY=            -85.1111   ZZ=            -84.4278
   XY=             -1.3231   XZ=              0.2090   YZ=              0.2023

 Normal termination of Gaussian 16 at Wed May  5 23:14:45 2021.
