 Gaussian 16, Revision A.03,
 Gaussian 16:  EM64L-G16RevA.03 25-Dec-2016

 -------------
 #p 6-31g* mp2
 -------------

 ------------------------------------------------------
 Input file generated by CHIRIPA (05-May-2021 14:51:12)
 ------------------------------------------------------
 Symbolic Z-matrix:
 Charge =  0 Multiplicity = 1

                         Standard orientation:
 ---------------------------------------------------------------------
 Center     Atomic      Atomic             Coordinates (Angstroms)
 Number     Number       Type             X           Y           Z
 ---------------------------------------------------------------------
      1          6           0       -2.898882    0.704125   -0.313843
      2          6           0       -3.410840    2.141506   -0.214758
      3          6           0       -2.287057    3.175680   -0.288173
      4          1           0       -2.177634    0.521977    0.494593
      5          1           0       -2.348466    0.582525   -1.257056
      6          1           0       -3.961310    2.259980    0.727347
      7          1           0       -4.131097    2.320194   -1.023409
      8          1           0       -1.742495    3.086365   -1.233729
      9          1           0       -1.571743    3.025809    0.526974
     10          1           0       -2.675370    4.196356   -0.215411
     11          6           0       -4.010553   -0.341224   -0.241986
     12          6           0       -3.498595   -1.778605   -0.341071
     13          6           0       -4.622378   -2.812779   -0.267656
     14          1           0       -4.560969   -0.219624    0.701226
     15          1           0       -4.731801   -0.159076   -1.050422
     16          1           0       -2.778338   -1.957292    0.467580
     17          1           0       -2.948125   -1.897079   -1.283176
     18          1           0       -5.337692   -2.662908   -1.082804
     19          1           0       -5.166940   -2.723463    0.677900
     20          1           0       -4.234065   -3.833455   -0.340418
     21          6           0        4.041870   -0.577824   -0.007693
     22          6           0        5.195185    0.305651   -0.484475
     23          6           0        6.362363   -0.501831   -1.053215
     24          1           0        4.413733   -1.274946    0.755644
     25          1           0        3.688943   -1.192724   -0.847179
     26          1           0        5.544920    0.919702    0.355312
     27          1           0        4.820491    1.000880   -1.246628
     28          1           0        6.034935   -1.102572   -1.907909
     29          1           0        6.763481   -1.184210   -0.296866
     30          1           0        7.175722    0.149482   -1.388026
     31          6           0        2.867565    0.214923    0.563523
     32          6           0        1.714250   -0.668552    1.040304
     33          6           0        0.547072    0.138929    1.609044
     34          1           0        3.220492    0.829823    1.403008
     35          1           0        2.495702    0.912045   -0.199815
     36          1           0        2.088943   -1.363781    1.802457
     37          1           0        1.364515   -1.282603    0.200517
     38          1           0        0.145955    0.821309    0.852695
     39          1           0        0.874499    0.739671    2.463737
     40          1           0       -0.266288   -0.512383    1.943856
 ---------------------------------------------------------------------

 SCF Done:  E(RHF) =  -470.732603511     A.U. after   11 cycles
 E2 =    -0.1583397206D+01 EUMP2 =    -0.47231600071709D+03

 The electronic state is 1-A.
 Alpha  occ. eigenvalues --  -11.21610 -11.21602 -11.21585 -11.21548 -11.21408
 Alpha  occ. eigenvalues --  -11.21348 -11.21333 -11.21221 -11.21077 -11.21071
 Alpha  occ. eigenvalues --  -11.21057 -11.21054  -1.08441  -1.08374  -1.03549
 Alpha  occ. eigenvalues --   -1.03491  -0.96010  -0.95933  -0.87041  -0.86946
 Alpha  occ. eigenvalues --   -0.79666  -0.79520  -0.78280  -0.78151  -0.65117
 Alpha  occ. eigenvalues --   -0.64974  -0.61002  -0.60843  -0.59376  -0.59316
 Alpha  occ. eigenvalues --   -0.57632  -0.57527  -0.55351  -0.55184  -0.52750
 Alpha  occ. eigenvalues --   -0.52631  -0.52423  -0.52353  -0.50028  -0.49848
 Alpha  occ. eigenvalues --   -0.48016  -0.47794  -0.46771  -0.46528  -0.45867
 Alpha  occ. eigenvalues --   -0.45736  -0.45689  -0.45389  -0.43769  -0.43721
 Alpha virt. eigenvalues --    0.21605   0.23072   0.23428   0.24186   0.25981
 Alpha virt. eigenvalues --    0.26554   0.27016   0.27218   0.27952   0.29614
 Alpha virt. eigenvalues --    0.30261   0.31437   0.31786   0.31912   0.32415

 Mulliken charges:
               1
     1  C   -0.307422
     2  C   -0.298854
     3  C   -0.478556
     4  H    0.162210
     5  H    0.147489
     6  H    0.151675
     7  H    0.151441
     8  H    0.154374
     9  H    0.157706
    10  H    0.160379
    11  C   -0.297705
    12  C   -0.300160
    13  C   -0.475648
    14  H    0.149135
    15  H    0.149196
    16  H    0.151923
    17  H    0.151621
    18  H    0.155239
    19  H    0.155145
    20  H    0.160091
    21  C   -0.298336
    22  C   -0.299667
    23  C   -0.475708
    24  H    0.149638
    25  H    0.149573
    26  H    0.151943
    27  H    0.152009
    28  H    0.155174
    29  H    0.155167
    30  H    0.160272
    31  C   -0.298862
    32  C   -0.299489
    33  C   -0.482807
    34  H    0.149489
    35  H    0.150248
    36  H    0.151813
    37  H    0.152716
    38  H    0.162612
    39  H    0.154816
    40  H    0.160123
 Sum of Mulliken charges =  -0.00000

 Dipole moment (field-independent basis, Debye):
    X=              0.0329    Y=              0.0042    Z=              0.0191  Tot=              0.0383
 Quadrupole moment (field-independent basis, Debye-Ang):
   XX=            -86.1178   YY=            -85.7982   ZZ=            -83.0912
   XY=             -0.2107   XZ=              0.8488   YZ=             -0.2040

 Normal termination of Gaussian 16 at Wed May  5 18:20:32 2021.
