 Gaussian 16, Revision A.03,
 Gaussian 16:  EM64L-G16RevA.03 25-Dec-2016

 -------------
 #p 6-31g* mp2
 -------------

 ------------------------------------------------------
 Input file generated by CHIRIPA (05-May-2021 14:53:15)
 ------------------------------------------------------
 Symbolic Z-matrix:
 Charge =  0 Multiplicity = 1

                         Standard orientation:
 ---------------------------------------------------------------------
 Center     Atomic      Atomic             Coordinates (Angstroms)
 Number     Number       Type             X           Y           Z
 ---------------------------------------------------------------------
      1          6           0       -2.749809   -0.197064   -0.330766
      2          6           0       -4.083196   -0.922736   -0.513695
      3          6           0       -3.930301   -2.443908   -0.534988
      4          1           0       -2.067523   -0.487117   -1.141505
      5          1           0       -2.283085   -0.532739    0.605656
      6          1           0       -4.547918   -0.584767   -1.448803
      7          1           0       -4.762453   -0.630774    0.297467
      8          1           0       -3.489427   -2.799922    0.401754
      9          1           0       -3.273673   -2.753653   -1.354438
     10          1           0       -4.895599   -2.942615   -0.666717
     11          6           0       -2.886277    1.324304   -0.307449
     12          6           0       -1.552890    2.049977   -0.124520
     13          6           0       -1.705785    3.571149   -0.103227
     14          1           0       -3.353001    1.659979   -1.243871
     15          1           0       -3.568564    1.614358    0.503290
     16          1           0       -0.873633    1.758015   -0.935682
     17          1           0       -1.088168    1.712008    0.810588
     18          1           0       -2.362413    3.880894    0.716223
     19          1           0       -2.146659    3.927163   -1.039969
     20          1           0       -0.740488    4.069855    0.028502
     21          6           0        4.131472    0.258758   -1.217933
     22          6           0        3.735685    1.069075   -0.148700
     23          6           0        2.667753    0.691673    0.670834
     24          6           0        2.015023   -0.507913    0.391149
     25          6           0        2.385715   -1.336772   -0.666618
     26          6           0        3.456414   -0.939467   -1.473029
     27          1           0        4.962141    0.559664   -1.849470
     28          1           0        4.258108    2.000166    0.051772
     29          1           0        2.340488    1.300007    1.505249
     30          1           0        1.845595   -2.259310   -0.841581
     31          1           0        3.761602   -1.570761   -2.302712
     32          7           0        0.882987   -0.917987    1.251809
     33          8           0        0.324261   -1.979569    0.984402
     34          8           0        0.575857   -0.170056    2.177502
 ---------------------------------------------------------------------

 SCF Done:  E(RHF) =  -669.536877235     A.U. after   15 cycles
 E2 =    -0.2093091934D+01 EUMP2 =    -0.67162996916894D+03

 The electronic state is 1-A.
 Alpha  occ. eigenvalues --  -20.61046 -20.61020 -15.86012 -11.31297 -11.27853
 Alpha  occ. eigenvalues --  -11.27849 -11.27587 -11.26852 -11.26842 -11.20850
 Alpha  occ. eigenvalues --  -11.20686 -11.20611 -11.20561 -11.20253 -11.20090
 Alpha  occ. eigenvalues --   -1.60060  -1.39622  -1.19457  -1.08872  -1.07551
 Alpha  occ. eigenvalues --   -1.04848  -1.02726  -0.95722  -0.95177  -0.86251
 Alpha  occ. eigenvalues --   -0.86194  -0.82564  -0.78811  -0.77627  -0.77348
 Alpha  occ. eigenvalues --   -0.72250  -0.71339  -0.70571  -0.65118  -0.64855
 Alpha  occ. eigenvalues --   -0.64168  -0.62197  -0.60122  -0.58571  -0.56791
 Alpha  occ. eigenvalues --   -0.55361  -0.54454  -0.53178  -0.52942  -0.51921
 Alpha  occ. eigenvalues --   -0.51604  -0.49152  -0.49029  -0.48985  -0.47176
 Alpha  occ. eigenvalues --   -0.45927  -0.44990  -0.44831  -0.44604  -0.42957
 Alpha  occ. eigenvalues --   -0.37425  -0.36444
 Alpha virt. eigenvalues --    0.04847   0.11192   0.16316   0.21294   0.23754
 Alpha virt. eigenvalues --    0.25025   0.27154   0.27572   0.27711   0.28651
 Alpha virt. eigenvalues --    0.28797   0.30993   0.31915   0.32210   0.32518

 Mulliken charges:
               1
     1  C   -0.306317
     2  C   -0.299095
     3  C   -0.475184
     4  H    0.142612
     5  H    0.172745
     6  H    0.146434
     7  H    0.150745
     8  H    0.165038
     9  H    0.151711
    10  H    0.154907
    11  C   -0.295925
    12  C   -0.312295
    13  C   -0.473712
    14  H    0.144332
    15  H    0.149590
    16  H    0.144119
    17  H    0.169423
    18  H    0.156196
    19  H    0.152509
    20  H    0.153644
    21  C   -0.170414
    22  C   -0.218758
    23  C   -0.170082
    24  C    0.160586
    25  C   -0.170950
    26  C   -0.218734
    27  H    0.226027
    28  H    0.223892
    29  H    0.275865
    30  H    0.275879
    31  H    0.223799
    32  N    0.489275
    33  O   -0.457675
    34  O   -0.460185
 Sum of Mulliken charges =  -0.00000

 Dipole moment (field-independent basis, Debye):
    X=              4.1896    Y=              1.2572    Z=             -2.8103  Tot=              5.1991
 Quadrupole moment (field-independent basis, Debye-Ang):
   XX=            -79.7602   YY=            -94.7405   ZZ=            -95.2441
   XY=              1.6321   XZ=             -5.1358   YZ=              4.7313

 Normal termination of Gaussian 16 at Thu May  6 02:42:02 2021.
