 Gaussian 16, Revision A.03,
 Gaussian 16:  EM64L-G16RevA.03 25-Dec-2016

 -------------
 #p 6-31g* mp2
 -------------

 ------------------------------------------------------
 Input file generated by CHIRIPA (05-May-2021 14:57:25)
 ------------------------------------------------------
 Symbolic Z-matrix:
 Charge =  0 Multiplicity = 1

                         Standard orientation:
 ---------------------------------------------------------------------
 Center     Atomic      Atomic             Coordinates (Angstroms)
 Number     Number       Type             X           Y           Z
 ---------------------------------------------------------------------
      1          6           0        5.163606    0.160375    0.678649
      2          6           0        4.362213    1.304532    0.606580
      3          6           0        3.051415    1.224222    0.127092
      4          6           0        2.572061   -0.021925   -0.273692
      5          6           0        3.345864   -1.179920   -0.213966
      6          6           0        4.653773   -1.076020    0.268868
      7          1           0        6.180742    0.231924    1.052426
      8          1           0        4.755510    2.266054    0.924128
      9          1           0        2.409258    2.094070    0.060642
     10          1           0        2.925929   -2.124480   -0.537814
     11          1           0        5.273866   -1.966256    0.323721
     12          7           0        1.185908   -0.119433   -0.783076
     13          8           0        0.787133   -1.229052   -1.130005
     14          8           0        0.524464    0.915607   -0.825757
     15          6           0       -2.828922    2.513457   -0.087831
     16          6           0       -2.797148    1.951226    1.192563
     17          6           0       -2.781172    0.563124    1.358285
     18          6           0       -2.797769   -0.236571    0.216574
     19          6           0       -2.829432    0.293528   -1.072334
     20          6           0       -2.844935    1.684275   -1.214206
     21          1           0       -2.841148    3.592796   -0.207305
     22          1           0       -2.784652    2.592734    2.069122
     23          1           0       -2.756576    0.101333    2.337858
     24          1           0       -2.841260   -0.371727   -1.927152
     25          1           0       -2.869612    2.118131   -2.209800
     26          7           0       -2.781107   -1.707493    0.379393
     27          8           0       -2.796261   -2.390271   -0.642479
     28          8           0       -2.753209   -2.149773    1.525799
 ---------------------------------------------------------------------

 SCF Done:  E(RHF) =  -868.337533638     A.U. after   16 cycles
 E2 =    -0.2601558020D+01 EUMP2 =    -0.87093909165818D+03

 The electronic state is 1-A.
 Alpha  occ. eigenvalues --  -20.60932 -20.60882 -20.59344 -20.59275 -15.85929
 Alpha  occ. eigenvalues --  -15.84360 -11.31257 -11.29553 -11.27862 -11.27782
 Alpha  occ. eigenvalues --  -11.27566 -11.26857 -11.26800 -11.26267 -11.26087
 Alpha  occ. eigenvalues --  -11.26000 -11.25303 -11.25127  -1.59984  -1.58377
 Alpha  occ. eigenvalues --   -1.39532  -1.37939  -1.19430  -1.17744  -1.08837
 Alpha  occ. eigenvalues --   -1.07206  -1.04826  -1.03172  -0.95676  -0.94068
 Alpha  occ. eigenvalues --   -0.86226  -0.84613  -0.82505  -0.80932  -0.77560
 Alpha  occ. eigenvalues --   -0.75968  -0.72151  -0.71311  -0.70614  -0.70539
 Alpha  occ. eigenvalues --   -0.69658  -0.68983  -0.65083  -0.64832  -0.63466
 Alpha  occ. eigenvalues --   -0.63271  -0.62173  -0.60575  -0.55341  -0.53786
 Alpha  occ. eigenvalues --   -0.53162  -0.52921  -0.51582  -0.51346  -0.48917
 Alpha  occ. eigenvalues --   -0.48773  -0.47369  -0.47340  -0.44931  -0.43375
 Alpha  occ. eigenvalues --   -0.37411  -0.36427  -0.35731  -0.34648
 Alpha virt. eigenvalues --    0.04962   0.06614   0.11228   0.12915   0.16464
 Alpha virt. eigenvalues --    0.18105   0.21366   0.22717   0.27274   0.28266
 Alpha virt. eigenvalues --    0.28600   0.29612   0.30915   0.32161   0.32502

 Mulliken charges:
               1
     1  C   -0.170565
     2  C   -0.218619
     3  C   -0.171310
     4  C    0.158334
     5  C   -0.169952
     6  C   -0.218571
     7  H    0.225851
     8  H    0.222393
     9  H    0.272646
    10  H    0.279387
    11  H    0.224895
    12  N    0.487909
    13  O   -0.455286
    14  O   -0.464885
    15  C   -0.168470
    16  C   -0.218525
    17  C   -0.173643
    18  C    0.161153
    19  C   -0.149872
    20  C   -0.207131
    21  H    0.217485
    22  H    0.214445
    23  H    0.268527
    24  H    0.274512
    25  H    0.217439
    26  N    0.489740
    27  O   -0.457386
    28  O   -0.470503
 Sum of Mulliken charges =  -0.00000

 Dipole moment (field-independent basis, Debye):
    X=              5.1139    Y=              5.3402    Z=              0.9036  Tot=              7.4489
 Quadrupole moment (field-independent basis, Debye-Ang):
   XX=            -81.4574   YY=           -103.5576   ZZ=           -102.1727
   XY=            -14.4693   XZ=              5.8411   YZ=              2.6166

 Normal termination of Gaussian 16 at Thu May  6 06:42:27 2021.
