 Gaussian 16, Revision A.03,
 Gaussian 16:  EM64L-G16RevA.03 25-Dec-2016

 -------------
 #p 6-31g* mp2
 -------------

 ------------------------------------------------------
 Input file generated by CHIRIPA (05-May-2021 14:57:22)
 ------------------------------------------------------
 Symbolic Z-matrix:
 Charge =  0 Multiplicity = 1

                         Standard orientation:
 ---------------------------------------------------------------------
 Center     Atomic      Atomic             Coordinates (Angstroms)
 Number     Number       Type             X           Y           Z
 ---------------------------------------------------------------------
      1          6           0        2.874373    1.781095    0.594880
      2          6           0        4.210511    2.182131    0.492773
      3          6           0        5.207362    1.255748    0.172382
      4          6           0        4.830898   -0.069502   -0.040405
      5          6           0        3.508345   -0.499884    0.054003
      6          6           0        2.528164    0.443725    0.375556
      7          1           0        2.106470    2.507422    0.844219
      8          1           0        4.482297    3.220083    0.662573
      9          1           0        6.249409    1.539022    0.086873
     10          1           0        3.268141   -1.541588   -0.120847
     11          1           0        1.491304    0.129425    0.454176
     12          7           0        5.877396   -1.059340   -0.380204
     13          8           0        5.519790   -2.220959   -0.562955
     14          8           0        7.035430   -0.654815   -0.457352
     15          6           0       -2.158352   -0.064642    0.323120
     16          6           0       -2.732694    0.675864   -0.715294
     17          6           0       -4.116765    0.667217   -0.912331
     18          6           0       -4.900121   -0.096438   -0.048344
     19          6           0       -4.357678   -0.844718    0.995266
     20          6           0       -2.971244   -0.821236    1.173586
     21          1           0       -1.082255   -0.052162    0.468913
     22          1           0       -2.103848    1.264356   -1.377317
     23          1           0       -4.587685    1.231231   -1.708283
     24          1           0       -5.010416   -1.421764    1.638982
     25          1           0       -2.527957   -1.397293    1.980866
     26          7           0       -6.366625   -0.113445   -0.247030
     27          8           0       -7.034919   -0.794324    0.527840
     28          8           0       -6.820008    0.554425   -1.173868
 ---------------------------------------------------------------------

 SCF Done:  E(RHF) =  -868.336325313     A.U. after   16 cycles
 E2 =    -0.2599496957D+01 EUMP2 =    -0.87093582226968D+03

 The electronic state is 1-A.
 Alpha  occ. eigenvalues --  -20.61349 -20.61342 -20.61230 -20.61224 -15.86410
 Alpha  occ. eigenvalues --  -15.86287 -11.31914 -11.31793 -11.28567 -11.28481
 Alpha  occ. eigenvalues --  -11.28364 -11.28352 -11.28331 -11.28291 -11.27716
 Alpha  occ. eigenvalues --  -11.27508 -11.27474 -11.27450  -1.60421  -1.60301
 Alpha  occ. eigenvalues --   -1.39971  -1.39851  -1.20123  -1.19989  -1.09498
 Alpha  occ. eigenvalues --   -1.09388  -1.05560  -1.05401  -0.96299  -0.96197
 Alpha  occ. eigenvalues --   -0.86962  -0.86809  -0.83142  -0.83010  -0.78158
 Alpha  occ. eigenvalues --   -0.78007  -0.72625  -0.72504  -0.71747  -0.71625
 Alpha  occ. eigenvalues --   -0.71245  -0.71188  -0.65784  -0.65655  -0.65622
 Alpha  occ. eigenvalues --   -0.65400  -0.62916  -0.62736  -0.56148  -0.55957
 Alpha  occ. eigenvalues --   -0.53866  -0.53733  -0.53656  -0.53504  -0.49397
 Alpha  occ. eigenvalues --   -0.49369  -0.49275  -0.49249  -0.45345  -0.45224
 Alpha  occ. eigenvalues --   -0.38115  -0.38021  -0.37160  -0.36990
 Alpha virt. eigenvalues --    0.04407   0.04514   0.10486   0.10652   0.15852
 Alpha virt. eigenvalues --    0.15961   0.17216   0.21851   0.24306   0.26691
 Alpha virt. eigenvalues --    0.27509   0.28694   0.29704   0.31420   0.31975

 Mulliken charges:
               1
     1  C   -0.172630
     2  C   -0.218317
     3  C   -0.169573
     4  C    0.159335
     5  C   -0.171672
     6  C   -0.223159
     7  H    0.225250
     8  H    0.226164
     9  H    0.278206
    10  H    0.277100
    11  H    0.218972
    12  N    0.487989
    13  O   -0.459290
    14  O   -0.458247
    15  C   -0.174824
    16  C   -0.220736
    17  C   -0.169948
    18  C    0.159351
    19  C   -0.169870
    20  C   -0.220136
    21  H    0.221895
    22  H    0.223174
    23  H    0.277553
    24  H    0.277868
    25  H    0.225173
    26  N    0.487806
    27  O   -0.458568
    28  O   -0.458866
 Sum of Mulliken charges =  -0.00000

 Dipole moment (field-independent basis, Debye):
    X=              1.5051    Y=              3.5678    Z=              1.8779  Tot=              4.3036
 Quadrupole moment (field-independent basis, Debye-Ang):
   XX=           -187.2668   YY=           -101.4154   ZZ=           -103.0658
   XY=             19.8890   XZ=              1.9983   YZ=             -2.9445

 Normal termination of Gaussian 16 at Thu May  6 06:32:26 2021.
