 Gaussian 16, Revision A.03,
 Gaussian 16:  EM64L-G16RevA.03 25-Dec-2016

 -------------
 #p 6-31g* mp2
 -------------

 ------------------------------------------------------
 Input file generated by CHIRIPA (05-May-2021 14:53:11)
 ------------------------------------------------------
 Symbolic Z-matrix:
 Charge =  0 Multiplicity = 1

                         Standard orientation:
 ---------------------------------------------------------------------
 Center     Atomic      Atomic             Coordinates (Angstroms)
 Number     Number       Type             X           Y           Z
 ---------------------------------------------------------------------
      1          6           0        4.375963    0.199863    0.005242
      2          6           0        5.822531    0.240223   -0.488515
      3          6           0        6.421366    1.646528   -0.449802
      4          1           0        3.766466    0.876516   -0.609249
      5          1           0        4.335429    0.588510    1.032231
      6          1           0        5.860529   -0.149675   -1.513772
      7          1           0        6.428618   -0.436750    0.127100
      8          1           0        6.412704    2.040945    0.571452
      9          1           0        5.841387    2.329652   -1.078743
     10          1           0        7.455903    1.652319   -0.806958
     11          6           0        3.763474   -1.199248   -0.027485
     12          6           0        2.316906   -1.239608    0.466273
     13          6           0        1.718071   -2.645913    0.427559
     14          1           0        3.804008   -1.587895   -1.054474
     15          1           0        4.372971   -1.875901    0.587006
     16          1           0        1.710819   -0.562635   -0.149343
     17          1           0        2.278909   -0.849710    1.491529
     18          1           0        2.298050   -3.329037    1.056501
     19          1           0        1.726733   -3.040330   -0.593695
     20          1           0        0.683534   -2.651704    0.784715
     21          6           0       -1.524513    2.226294    0.515129
     22          6           0       -2.839473    2.546995    0.162215
     23          6           0       -3.764940    1.537970   -0.120501
     24          6           0       -3.339463    0.212896   -0.040272
     25          6           0       -2.036354   -0.138587    0.308524
     26          6           0       -1.127849    0.886889    0.587031
     27          1           0       -0.812175    3.016519    0.733114
     28          1           0       -3.150328    3.586326    0.105580
     29          1           0       -4.789134    1.758045   -0.396204
     30          1           0       -1.755982   -1.183813    0.356607
     31          1           0       -0.107282    0.634872    0.860847
     32          7           0       -4.310235   -0.864022   -0.337342
     33          8           0       -3.910481   -2.023672   -0.259592
     34          8           0       -5.452498   -0.528068   -0.642312
 ---------------------------------------------------------------------

 SCF Done:  E(RHF) =  -669.535489728     A.U. after   15 cycles
 E2 =    -0.2091643254D+01 EUMP2 =    -0.67162713298170D+03

 The electronic state is 1-A.
 Alpha  occ. eigenvalues --  -20.60719 -20.60714 -15.85771 -11.31125 -11.27696
 Alpha  occ. eigenvalues --  -11.27679 -11.27422 -11.26711 -11.26624 -11.22581
 Alpha  occ. eigenvalues --  -11.22155 -11.22117 -11.22049 -11.21839 -11.21569
 Alpha  occ. eigenvalues --   -1.59794  -1.39348  -1.19292  -1.09158  -1.08689
 Alpha  occ. eigenvalues --   -1.04696  -1.04239  -0.96655  -0.95528  -0.87669
 Alpha  occ. eigenvalues --   -0.86091  -0.82365  -0.80344  -0.78984  -0.77401
 Alpha  occ. eigenvalues --   -0.71989  -0.71117  -0.70406  -0.65785  -0.64942
 Alpha  occ. eigenvalues --   -0.64696  -0.62123  -0.61594  -0.60014  -0.58275
 Alpha  occ. eigenvalues --   -0.55913  -0.55189  -0.53354  -0.53124  -0.53024
 Alpha  occ. eigenvalues --   -0.52768  -0.50575  -0.48780  -0.48745  -0.48578
 Alpha  occ. eigenvalues --   -0.47356  -0.46492  -0.46414  -0.44756  -0.44487
 Alpha  occ. eigenvalues --   -0.37275  -0.36290
 Alpha virt. eigenvalues --    0.05113   0.11324   0.16555   0.19555   0.22453
 Alpha virt. eigenvalues --    0.23596   0.25649   0.25957   0.25960   0.28387
 Alpha virt. eigenvalues --    0.28793   0.29980   0.30730   0.31475   0.32394

 Mulliken charges:
               1
     1  C   -0.299168
     2  C   -0.300159
     3  C   -0.476114
     4  H    0.147719
     5  H    0.148370
     6  H    0.153841
     7  H    0.153671
     8  H    0.155000
     9  H    0.154790
    10  H    0.162457
    11  C   -0.297316
    12  C   -0.308981
    13  C   -0.477240
    14  H    0.153251
    15  H    0.153009
    16  H    0.148916
    17  H    0.149767
    18  H    0.160481
    19  H    0.161424
    20  H    0.157833
    21  C   -0.172206
    22  C   -0.218552
    23  C   -0.170913
    24  C    0.159137
    25  C   -0.176510
    26  C   -0.226083
    27  H    0.225740
    28  H    0.223064
    29  H    0.275331
    30  H    0.278062
    31  H    0.234619
    32  N    0.487933
    33  O   -0.460475
    34  O   -0.460699
 Sum of Mulliken charges =  -0.00000

 Dipole moment (field-independent basis, Debye):
    X=              3.6494    Y=              3.6955    Z=              1.0094  Tot=              5.2909
 Quadrupole moment (field-independent basis, Debye-Ang):
   XX=           -114.9340   YY=            -91.6256   ZZ=            -94.6510
   XY=            -15.7343   XZ=             -2.7049   YZ=             -0.7183

 Normal termination of Gaussian 16 at Wed May  5 20:04:08 2021.
