 Gaussian 16, Revision A.03,
 Gaussian 16:  EM64L-G16RevA.03 25-Dec-2016

 -------------
 #p 6-31g* mp2
 -------------

 ------------------------------------------------------
 Input file generated by CHIRIPA (05-May-2021 14:55:24)
 ------------------------------------------------------
 Symbolic Z-matrix:
 Charge =  0 Multiplicity = 1

                         Standard orientation:
 ---------------------------------------------------------------------
 Center     Atomic      Atomic             Coordinates (Angstroms)
 Number     Number       Type             X           Y           Z
 ---------------------------------------------------------------------
      1          6           0        3.678583   -2.196626    0.017610
      2          6           0        4.663341   -1.281521    0.404075
      3          6           0        4.409448    0.092773    0.366639
      4          6           0        3.154147    0.518980   -0.064472
      5          6           0        2.152440   -0.367961   -0.455892
      6          6           0        2.428479   -1.737734   -0.410386
      7          1           0        3.884415   -3.262455    0.049826
      8          1           0        5.635093   -1.635036    0.736896
      9          1           0        5.153666    0.823100    0.660202
     10          1           0        1.193292    0.014650   -0.783095
     11          1           0        1.661801   -2.446123   -0.711109
     12          7           0        2.873639    1.971491   -0.108376
     13          8           0        1.759661    2.321476   -0.492044
     14          8           0        3.773067    2.732481    0.241711
     15          6           0       -4.580583    0.150145    0.374921
     16          6           0       -5.905960    0.247881   -0.381260
     17          6           0       -6.863877    1.268337    0.234255
     18          1           0       -4.781579   -0.118075    1.421154
     19          1           0       -4.102467    1.139338    0.392153
     20          1           0       -6.380772   -0.741502   -0.398255
     21          1           0       -5.701772    0.515711   -1.425860
     22          1           0       -6.413879    2.266382    0.236888
     23          1           0       -7.096736    1.002024    1.270332
     24          1           0       -7.804947    1.321963   -0.321957
     25          6           0       -3.612385   -0.865892   -0.228395
     26          6           0       -2.287008   -0.963629    0.527785
     27          6           0       -1.329089   -1.984085   -0.087730
     28          1           0       -4.090499   -1.855086   -0.245628
     29          1           0       -3.411389   -0.597673   -1.274628
     30          1           0       -2.491195   -1.231460    1.572385
     31          1           0       -1.812196    0.025755    0.544781
     32          1           0       -1.096231   -1.717772   -1.123808
     33          1           0       -1.779088   -2.982130   -0.090364
     34          1           0       -0.388020   -2.037711    0.468483
 ---------------------------------------------------------------------

 SCF Done:  E(RHF) =  -669.535116934     A.U. after   15 cycles
 E2 =    -0.2092003577D+01 EUMP2 =    -0.67162712051084D+03

 The electronic state is 1-A.
 Alpha  occ. eigenvalues --  -20.60754 -20.60748 -15.85805 -11.31146 -11.27723
 Alpha  occ. eigenvalues --  -11.27686 -11.27447 -11.26735 -11.26651 -11.21999
 Alpha  occ. eigenvalues --  -11.21857 -11.21631 -11.21617 -11.21436 -11.21038
 Alpha  occ. eigenvalues --   -1.59828  -1.39383  -1.19320  -1.08719  -1.08634
 Alpha  occ. eigenvalues --   -1.04725  -1.03802  -0.96295  -0.95555  -0.87332
 Alpha  occ. eigenvalues --   -0.86111  -0.82391  -0.79878  -0.78401  -0.77435
 Alpha  occ. eigenvalues --   -0.72025  -0.71151  -0.70430  -0.65267  -0.64970
 Alpha  occ. eigenvalues --   -0.64727  -0.62180  -0.61158  -0.59636  -0.57865
 Alpha  occ. eigenvalues --   -0.55592  -0.55197  -0.53285  -0.52988  -0.52707
 Alpha  occ. eigenvalues --   -0.52557  -0.50220  -0.48780  -0.48778  -0.48182
 Alpha  occ. eigenvalues --   -0.46876  -0.45960  -0.45844  -0.44793  -0.44034
 Alpha  occ. eigenvalues --   -0.37303  -0.36290
 Alpha virt. eigenvalues --    0.05062   0.11298   0.16452   0.20438   0.22734
 Alpha virt. eigenvalues --    0.23899   0.26079   0.26634   0.27329   0.27956
 Alpha virt. eigenvalues --    0.29524   0.29685   0.31274   0.31580   0.32034

 Mulliken charges:
               1
     1  C   -0.171865
     2  C   -0.218682
     3  C   -0.170894
     4  C    0.158697
     5  C   -0.173191
     6  C   -0.222897
     7  H    0.225614
     8  H    0.223222
     9  H    0.275406
    10  H    0.278733
    11  H    0.230095
    12  N    0.488213
    13  O   -0.461120
    14  O   -0.460468
    15  C   -0.299510
    16  C   -0.299923
    17  C   -0.476070
    18  H    0.149740
    19  H    0.154028
    20  H    0.150974
    21  H    0.152751
    22  H    0.157203
    23  H    0.155036
    24  H    0.160387
    25  C   -0.298770
    26  C   -0.301791
    27  C   -0.487705
    28  H    0.148806
    29  H    0.150651
    30  H    0.154505
    31  H    0.159441
    32  H    0.150675
    33  H    0.158099
    34  H    0.160609
 Sum of Mulliken charges =  -0.00000

 Dipole moment (field-independent basis, Debye):
    X=              0.8670    Y=             -5.0680    Z=              0.1936  Tot=              5.1453
 Quadrupole moment (field-independent basis, Debye-Ang):
   XX=            -84.4353   YY=           -100.5578   ZZ=            -94.7847
   XY=            -14.1800   XZ=              2.1771   YZ=              0.0723

 Normal termination of Gaussian 16 at Wed May  5 17:35:29 2021.
