 Gaussian 16, Revision A.03,
 Gaussian 16:  EM64L-G16RevA.03 25-Dec-2016

 -------------
 #p 6-31g* mp2
 -------------

 ------------------------------------------------------
 Input file generated by CHIRIPA (05-May-2021 14:53:16)
 ------------------------------------------------------
 Symbolic Z-matrix:
 Charge =  0 Multiplicity = 1

                         Standard orientation:
 ---------------------------------------------------------------------
 Center     Atomic      Atomic             Coordinates (Angstroms)
 Number     Number       Type             X           Y           Z
 ---------------------------------------------------------------------
      1          6           0       -3.613333   -0.302201   -0.499750
      2          6           0       -4.029403   -1.181159    0.680209
      3          6           0       -4.933093   -2.341805    0.263026
      4          1           0       -4.513748    0.090718   -0.991493
      5          1           0       -3.095438   -0.921862   -1.244868
      6          1           0       -4.545139   -0.559758    1.423507
      7          1           0       -3.127888   -1.571878    1.169316
      8          1           0       -4.423705   -2.985541   -0.461355
      9          1           0       -5.849009   -1.967671   -0.205720
     10          1           0       -5.218507   -2.957176    1.121931
     11          6           0       -2.709702    0.862398   -0.098642
     12          6           0       -2.293632    1.741356   -1.278601
     13          6           0       -1.389941    2.902001   -0.861418
     14          1           0       -3.227596    1.482059    0.646476
     15          1           0       -1.809286    0.469478    0.393101
     16          1           0       -3.195147    2.132074   -1.767708
     17          1           0       -1.777896    1.119954   -2.021899
     18          1           0       -0.474026    2.527867   -0.392672
     19          1           0       -1.899329    3.545737   -0.137037
     20          1           0       -1.104527    3.517372   -1.720323
     21          6           0        1.659047    1.919453    1.299645
     22          6           0        1.062957    0.699654    1.636224
     23          6           0        1.504122   -0.491344    1.051891
     24          6           0        2.548329   -0.425548    0.130699
     25          6           0        3.162518    0.774189   -0.225240
     26          6           0        2.705080    1.952770    0.371623
     27          1           0        1.310018    2.839826    1.758435
     28          1           0        0.250406    0.670765    2.356621
     29          1           0        1.060553   -1.449421    1.294282
     30          1           0        3.970542    0.771213   -0.946701
     31          1           0        3.169888    2.898642    0.108327
     32          7           0        3.023985   -1.679831   -0.494540
     33          8           0        3.945592   -1.595038   -1.303297
     34          8           0        2.466189   -2.723981   -0.164008
 ---------------------------------------------------------------------

 SCF Done:  E(RHF) =  -669.534932282     A.U. after   15 cycles
 E2 =    -0.2093505064D+01 EUMP2 =    -0.67162843734583D+03

 The electronic state is 1-A.
 Alpha  occ. eigenvalues --  -20.60855 -20.60850 -15.85910 -11.31306 -11.27890
 Alpha  occ. eigenvalues --  -11.27881 -11.27602 -11.26893 -11.26882 -11.21908
 Alpha  occ. eigenvalues --  -11.21906 -11.21752 -11.21629 -11.21386 -11.21238
 Alpha  occ. eigenvalues --   -1.59930  -1.39483  -1.19498  -1.08897  -1.08731
 Alpha  occ. eigenvalues --   -1.04897  -1.03819  -0.96280  -0.95705  -0.87297
 Alpha  occ. eigenvalues --   -0.86287  -0.82533  -0.79901  -0.78580  -0.77570
 Alpha  occ. eigenvalues --   -0.72127  -0.71255  -0.70592  -0.65386  -0.65140
 Alpha  occ. eigenvalues --   -0.64874  -0.62234  -0.61230  -0.59645  -0.57906
 Alpha  occ. eigenvalues --   -0.55626  -0.55361  -0.53318  -0.52989  -0.52956
 Alpha  occ. eigenvalues --   -0.52639  -0.50204  -0.48888  -0.48880  -0.48209
 Alpha  occ. eigenvalues --   -0.46920  -0.46114  -0.46025  -0.44881  -0.44082
 Alpha  occ. eigenvalues --   -0.37368  -0.36471
 Alpha virt. eigenvalues --    0.04915   0.11105   0.16269   0.20785   0.22787
 Alpha virt. eigenvalues --    0.24074   0.25601   0.26732   0.27335   0.28499
 Alpha virt. eigenvalues --    0.28774   0.30699   0.31272   0.31648   0.31817

 Mulliken charges:
               1
     1  C   -0.298815
     2  C   -0.298890
     3  C   -0.476093
     4  H    0.150763
     5  H    0.153236
     6  H    0.150553
     7  H    0.147984
     8  H    0.158204
     9  H    0.155740
    10  H    0.160696
    11  C   -0.302090
    12  C   -0.297617
    13  C   -0.486193
    14  H    0.146377
    15  H    0.147408
    16  H    0.152681
    17  H    0.155259
    18  H    0.162166
    19  H    0.150109
    20  H    0.160084
    21  C   -0.174573
    22  C   -0.215834
    23  C   -0.171977
    24  C    0.158726
    25  C   -0.170474
    26  C   -0.217388
    27  H    0.228822
    28  H    0.226123
    29  H    0.276107
    30  H    0.276281
    31  H    0.224785
    32  N    0.488063
    33  O   -0.459999
    34  O   -0.460224
 Sum of Mulliken charges =  -0.00000

 Dipole moment (field-independent basis, Debye):
    X=             -1.5790    Y=              4.3590    Z=              2.1812  Tot=              5.1236
 Quadrupole moment (field-independent basis, Debye-Ang):
   XX=           -101.0040   YY=            -98.2670   ZZ=            -93.2950
   XY=             13.4737   XZ=              3.3885   YZ=             -1.7826

 Normal termination of Gaussian 16 at Thu May  6 17:14:23 2021.
