 Gaussian 16, Revision A.03,
 Gaussian 16:  EM64L-G16RevA.03 25-Dec-2016

 -------------
 #p 6-31g* mp2
 -------------

 ------------------------------------------------------
 Input file generated by CHIRIPA (05-May-2021 14:55:19)
 ------------------------------------------------------
 Symbolic Z-matrix:
 Charge =  0 Multiplicity = 1

                         Standard orientation:
 ---------------------------------------------------------------------
 Center     Atomic      Atomic             Coordinates (Angstroms)
 Number     Number       Type             X           Y           Z
 ---------------------------------------------------------------------
      1          6           0        6.203322   -0.299505   -0.082938
      2          6           0        5.685802    0.998193   -0.014564
      3          6           0        4.305654    1.215694   -0.063888
      4          6           0        3.468235    0.107554   -0.182398
      5          6           0        3.953384   -1.197422   -0.252813
      6          6           0        5.336988   -1.391246   -0.201634
      7          1           0        7.276796   -0.459269   -0.043901
      8          1           0        6.356228    1.847941    0.077641
      9          1           0        3.878123    2.209697   -0.012978
     10          1           0        3.259994   -2.024601   -0.344484
     11          1           0        5.736083   -2.400169   -0.254946
     12          7           0        2.005304    0.325279   -0.235596
     13          8           0        1.288708   -0.667788   -0.340208
     14          8           0        1.602957    1.484877   -0.171675
     15          6           0       -4.181119    0.175613    0.658878
     16          6           0       -2.928847   -0.701322    0.630867
     17          6           0       -1.803680   -0.153380    1.509246
     18          1           0       -3.917985    1.190166    0.329655
     19          1           0       -4.534449    0.265165    1.695476
     20          1           0       -2.578783   -0.790326   -0.405545
     21          1           0       -3.195032   -1.713955    0.960013
     22          1           0       -2.129504   -0.080813    2.551922
     23          1           0       -1.509755    0.848063    1.178605
     24          1           0       -0.918172   -0.795659    1.474435
     25          6           0       -5.314800   -0.359088   -0.214386
     26          6           0       -6.567071    0.517848   -0.186374
     27          6           0       -7.692239   -0.030095   -1.064754
     28          1           0       -4.961470   -0.448639   -1.250983
     29          1           0       -5.577934   -1.373641    0.114838
     30          1           0       -6.300887    1.530481   -0.515520
     31          1           0       -6.917135    0.606852    0.850038
     32          1           0       -7.986164   -1.031538   -0.734113
     33          1           0       -7.366414   -0.102661   -2.107429
     34          1           0       -8.577746    0.612185   -1.029943
 ---------------------------------------------------------------------

 SCF Done:  E(RHF) =  -669.536214745     A.U. after   15 cycles
 E2 =    -0.2091147055D+01 EUMP2 =    -0.67162736180069D+03

 The electronic state is 1-A.
 Alpha  occ. eigenvalues --  -20.60966 -20.60959 -15.85985 -11.31306 -11.27868
 Alpha  occ. eigenvalues --  -11.27864 -11.27604 -11.26874 -11.26864 -11.20842
 Alpha  occ. eigenvalues --  -11.20449 -11.20443 -11.20202 -11.20082 -11.19142
 Alpha  occ. eigenvalues --   -1.60013  -1.39571  -1.19472  -1.08877  -1.07344
 Alpha  occ. eigenvalues --   -1.04868  -1.02346  -0.95722  -0.94783  -0.86269
 Alpha  occ. eigenvalues --   -0.85810  -0.82554  -0.78470  -0.77607  -0.77106
 Alpha  occ. eigenvalues --   -0.72209  -0.71326  -0.70581  -0.65128  -0.64872
 Alpha  occ. eigenvalues --   -0.63983  -0.62216  -0.59745  -0.58233  -0.56373
 Alpha  occ. eigenvalues --   -0.55373  -0.54085  -0.53201  -0.52960  -0.51483
 Alpha  occ. eigenvalues --   -0.51225  -0.49048  -0.48953  -0.48617  -0.46763
 Alpha  occ. eigenvalues --   -0.45520  -0.44981  -0.44641  -0.44542  -0.42578
 Alpha  occ. eigenvalues --   -0.37450  -0.36469
 Alpha virt. eigenvalues --    0.04901   0.11186   0.16390   0.21321   0.23878
 Alpha virt. eigenvalues --    0.25591   0.27240   0.27688   0.28194   0.28527
 Alpha virt. eigenvalues --    0.29293   0.30899   0.32392   0.32554   0.32727

 Mulliken charges:
               1
     1  C   -0.170571
     2  C   -0.218566
     3  C   -0.170691
     4  C    0.158452
     5  C   -0.170823
     6  C   -0.218544
     7  H    0.226032
     8  H    0.223864
     9  H    0.275874
    10  H    0.275709
    11  H    0.223860
    12  N    0.488966
    13  O   -0.459449
    14  O   -0.459227
    15  C   -0.297765
    16  C   -0.299239
    17  C   -0.477012
    18  H    0.150346
    19  H    0.145525
    20  H    0.157874
    21  H    0.144514
    22  H    0.141138
    23  H    0.164291
    24  H    0.172267
    25  C   -0.297400
    26  C   -0.298835
    27  C   -0.475089
    28  H    0.149285
    29  H    0.147129
    30  H    0.151543
    31  H    0.150281
    32  H    0.153825
    33  H    0.154543
    34  H    0.157893
 Sum of Mulliken charges =  -0.00000

 Dipole moment (field-independent basis, Debye):
    X=              5.5701    Y=             -0.7318    Z=              0.0893  Tot=              5.6187
 Quadrupole moment (field-independent basis, Debye-Ang):
   XX=            -61.6537   YY=            -89.8602   ZZ=            -95.8184
   XY=             -1.4941   XZ=             -0.7475   YZ=              0.0603

 Normal termination of Gaussian 16 at Thu May  6 19:01:50 2021.
