 Gaussian 16, Revision A.03,
 Gaussian 16:  EM64L-G16RevA.03 25-Dec-2016

 -------------
 #p 6-31g* mp2
 -------------

 ------------------------------------------------------
 Input file generated by CHIRIPA (05-May-2021 14:57:26)
 ------------------------------------------------------
 Symbolic Z-matrix:
 Charge =  0 Multiplicity = 1

                         Standard orientation:
 ---------------------------------------------------------------------
 Center     Atomic      Atomic             Coordinates (Angstroms)
 Number     Number       Type             X           Y           Z
 ---------------------------------------------------------------------
      1          6           0        5.584013   -0.851382    0.744116
      2          6           0        4.572329   -1.607060    0.142479
      3          6           0        3.417489   -0.987546   -0.344444
      4          6           0        3.306832    0.395804   -0.212577
      5          6           0        4.297321    1.176069    0.381904
      6          6           0        5.443528    0.535326    0.861701
      7          1           0        6.477768   -1.340882    1.119602
      8          1           0        4.678720   -2.684156    0.049800
      9          1           0        2.618854   -1.548420   -0.814573
     10          1           0        4.162698    2.248078    0.459952
     11          1           0        6.227600    1.124725    1.328483
     12          7           0        2.088825    1.062893   -0.724289
     13          8           0        2.015454    2.283056   -0.596008
     14          8           0        1.230583    0.352964   -1.243960
     15          6           0       -5.806477    0.710315    0.425913
     16          6           0       -4.953766    0.576310    1.526572
     17          6           0       -3.677849    0.025754    1.373361
     18          6           0       -3.285325   -0.382167    0.099463
     19          6           0       -4.111920   -0.261810   -1.016577
     20          6           0       -5.383577    0.291566   -0.839917
     21          1           0       -6.795984    1.139096    0.554039
     22          1           0       -5.279530    0.900657    2.510808
     23          1           0       -2.997432   -0.089599    2.208312
     24          1           0       -3.759094   -0.594189   -1.985317
     25          1           0       -6.043677    0.394420   -1.696499
     26          7           0       -1.936825   -0.966508   -0.075147
     27          8           0       -1.614723   -1.318243   -1.207918
     28          8           0       -1.227504   -1.061715    0.924071
 ---------------------------------------------------------------------

 SCF Done:  E(RHF) =  -868.337258573     A.U. after   16 cycles
 E2 =    -0.2600066173D+01 EUMP2 =    -0.87093732474603D+03

 The electronic state is 1-A.
 Alpha  occ. eigenvalues --  -20.59868 -20.59782 -20.59685 -20.59560 -15.84882
 Alpha  occ. eigenvalues --  -15.84660 -11.30448 -11.30188 -11.27060 -11.27031
 Alpha  occ. eigenvalues --  -11.26855 -11.26849 -11.26706 -11.26630 -11.26130
 Alpha  occ. eigenvalues --  -11.26110 -11.25911 -11.25830  -1.58864  -1.58701
 Alpha  occ. eigenvalues --   -1.38427  -1.38241  -1.18641  -1.18398  -1.08002
 Alpha  occ. eigenvalues --   -1.07777  -1.04083  -1.03826  -0.94811  -0.94573
 Alpha  occ. eigenvalues --   -0.85474  -0.85218  -0.81652  -0.81398  -0.76654
 Alpha  occ. eigenvalues --   -0.76406  -0.71158  -0.70911  -0.70193  -0.69928
 Alpha  occ. eigenvalues --   -0.69767  -0.69517  -0.64303  -0.64108  -0.64044
 Alpha  occ. eigenvalues --   -0.63848  -0.61435  -0.61160  -0.54594  -0.54360
 Alpha  occ. eigenvalues --   -0.52391  -0.52190  -0.52152  -0.51925  -0.47944
 Alpha  occ. eigenvalues --   -0.47856  -0.47669  -0.47597  -0.43782  -0.43593
 Alpha  occ. eigenvalues --   -0.36633  -0.36410  -0.35692  -0.35435
 Alpha virt. eigenvalues --    0.05887   0.06149   0.11960   0.12218   0.17350
 Alpha virt. eigenvalues --    0.17568   0.22020   0.22281   0.27909   0.28180
 Alpha virt. eigenvalues --    0.28933   0.29236   0.31539   0.31797   0.33187

 Mulliken charges:
               1
     1  C   -0.171534
     2  C   -0.219511
     3  C   -0.168091
     4  C    0.158393
     5  C   -0.171894
     6  C   -0.219291
     7  H    0.222025
     8  H    0.221911
     9  H    0.285497
    10  H    0.272491
    11  H    0.219476
    12  N    0.488089
    13  O   -0.470440
    14  O   -0.447631
    15  C   -0.171487
    16  C   -0.218472
    17  C   -0.170531
    18  C    0.161621
    19  C   -0.169553
    20  C   -0.218540
    21  H    0.223073
    22  H    0.220855
    23  H    0.273685
    24  H    0.276047
    25  H    0.221516
    26  N    0.492579
    27  O   -0.453361
    28  O   -0.466921
 Sum of Mulliken charges =  -0.00000

 Dipole moment (field-independent basis, Debye):
    X=             -0.5853    Y=             -0.4637    Z=              2.2144  Tot=              2.3369
 Quadrupole moment (field-independent basis, Debye-Ang):
   XX=            -48.0350   YY=           -105.6690   ZZ=           -101.0933
   XY=             -9.7245   XZ=              4.3336   YZ=              3.5735

 Normal termination of Gaussian 16 at Thu May  6 09:55:27 2021.
