 Gaussian 16, Revision A.03,
 Gaussian 16:  EM64L-G16RevA.03 25-Dec-2016

 -------------
 #p 6-31g* mp2
 -------------

 ------------------------------------------------------
 Input file generated by CHIRIPA (05-May-2021 14:53:11)
 ------------------------------------------------------
 Symbolic Z-matrix:
 Charge =  0 Multiplicity = 1

                         Standard orientation:
 ---------------------------------------------------------------------
 Center     Atomic      Atomic             Coordinates (Angstroms)
 Number     Number       Type             X           Y           Z
 ---------------------------------------------------------------------
      1          6           0        4.686419    0.453610   -0.002389
      2          6           0        6.134561    0.051266   -0.283443
      3          6           0        7.017856    1.242933   -0.654269
      4          1           0        4.273757    0.956231   -0.887841
      5          1           0        4.669560    1.191154    0.811945
      6          1           0        6.148576   -0.686335   -1.096072
      7          1           0        6.543763   -0.450627    0.602713
      8          1           0        7.033647    1.977952    0.156964
      9          1           0        6.636214    1.740905   -1.551472
     10          1           0        8.048806    0.932638   -0.851044
     11          6           0        3.791001   -0.726858    0.369703
     12          6           0        2.342860   -0.324514    0.650757
     13          6           0        1.459565   -1.516181    1.021583
     14          1           0        3.807861   -1.464402   -0.444631
     15          1           0        4.203664   -1.229479    1.255155
     16          1           0        1.933658    0.177379   -0.235399
     17          1           0        2.328845    0.413087    1.463386
     18          1           0        1.841207   -2.014153    1.918786
     19          1           0        1.443774   -2.251200    0.210350
     20          1           0        0.428615   -1.205886    1.218358
     21          6           0       -3.873478    2.541637    0.204888
     22          6           0       -4.892749    1.583933    0.184628
     23          6           0       -4.593007    0.231995   -0.007641
     24          6           0       -3.257162   -0.128660   -0.177161
     25          6           0       -2.219341    0.801923   -0.161939
     26          6           0       -2.542373    2.148269    0.031844
     27          1           0       -4.115371    3.589682    0.354835
     28          1           0       -5.927393    1.886536    0.318748
     29          1           0       -5.362418   -0.530252   -0.027704
     30          1           0       -1.197343    0.469803   -0.298452
     31          1           0       -1.748732    2.889852    0.047118
     32          7           0       -2.927510   -1.556936   -0.381509
     33          8           0       -1.742704   -1.848947   -0.528481
     34          8           0       -3.860176   -2.357361   -0.390837
 ---------------------------------------------------------------------

 SCF Done:  E(RHF) =  -669.535625592     A.U. after   15 cycles
 E2 =    -0.2091519914D+01 EUMP2 =    -0.67162714550601D+03

 The electronic state is 1-A.
 Alpha  occ. eigenvalues --  -20.60837 -20.60832 -15.85872 -11.31227 -11.27792
 Alpha  occ. eigenvalues --  -11.27781 -11.27534 -11.26809 -11.26796 -11.21497
 Alpha  occ. eigenvalues --  -11.21378 -11.21275 -11.21142 -11.21018 -11.20290
 Alpha  occ. eigenvalues --   -1.59906  -1.39461  -1.19398  -1.08797  -1.08242
 Alpha  occ. eigenvalues --   -1.04797  -1.03281  -0.95716  -0.95600  -0.86685
 Alpha  occ. eigenvalues --   -0.86197  -0.82465  -0.79354  -0.78072  -0.77515
 Alpha  occ. eigenvalues --   -0.72100  -0.71225  -0.70506  -0.65054  -0.64879
 Alpha  occ. eigenvalues --   -0.64796  -0.62157  -0.60669  -0.59071  -0.57320
 Alpha  occ. eigenvalues --   -0.55300  -0.54950  -0.53129  -0.52900  -0.52338
 Alpha  occ. eigenvalues --   -0.52102  -0.49610  -0.48857  -0.48839  -0.47657
 Alpha  occ. eigenvalues --   -0.46401  -0.45606  -0.45531  -0.44872  -0.43480
 Alpha  occ. eigenvalues --   -0.37380  -0.36399
 Alpha virt. eigenvalues --    0.04986   0.11214   0.16483   0.20587   0.22980
 Alpha virt. eigenvalues --    0.23888   0.26311   0.27050   0.27703   0.27903
 Alpha virt. eigenvalues --    0.29216   0.30717   0.31539   0.31815   0.32133

 Mulliken charges:
               1
     1  C   -0.297852
     2  C   -0.299591
     3  C   -0.475547
     4  H    0.147748
     5  H    0.147473
     6  H    0.152940
     7  H    0.152236
     8  H    0.154220
     9  H    0.154442
    10  H    0.160337
    11  C   -0.297728
    12  C   -0.302828
    13  C   -0.474617
    14  H    0.152274
    15  H    0.150293
    16  H    0.144727
    17  H    0.146530
    18  H    0.151007
    19  H    0.166309
    20  H    0.164985
    21  C   -0.170582
    22  C   -0.218646
    23  C   -0.170639
    24  C    0.157570
    25  C   -0.174889
    26  C   -0.219530
    27  H    0.225762
    28  H    0.223584
    29  H    0.275653
    30  H    0.281506
    31  H    0.224233
    32  N    0.488907
    33  O   -0.460525
    34  O   -0.459762
 Sum of Mulliken charges =  -0.00000

 Dipole moment (field-independent basis, Debye):
    X=             -1.2750    Y=              4.9021    Z=              0.6853  Tot=              5.1113
 Quadrupole moment (field-independent basis, Debye-Ang):
   XX=            -83.2156   YY=            -96.6901   ZZ=            -95.1209
   XY=            -16.0056   XZ=             -2.1797   YZ=             -0.6714

 Normal termination of Gaussian 16 at Wed May  5 15:26:33 2021.
