 Gaussian 16, Revision A.03,
 Gaussian 16:  EM64L-G16RevA.03 25-Dec-2016

 -------------
 #p 6-31g* mp2
 -------------

 ------------------------------------------------------
 Input file generated by CHIRIPA (05-May-2021 14:53:16)
 ------------------------------------------------------
 Symbolic Z-matrix:
 Charge =  0 Multiplicity = 1

                         Standard orientation:
 ---------------------------------------------------------------------
 Center     Atomic      Atomic             Coordinates (Angstroms)
 Number     Number       Type             X           Y           Z
 ---------------------------------------------------------------------
      1          6           0       -4.097210    0.264890   -0.287229
      2          6           0       -3.596714    1.625276    0.199432
      3          6           0       -2.144397    1.896296   -0.194418
      4          1           0       -3.451473   -0.524087    0.122020
      5          1           0       -3.997320    0.214868   -1.380350
      6          1           0       -3.698807    1.673239    1.291170
      7          1           0       -4.243833    2.411093   -0.210868
      8          1           0       -2.030175    1.875539   -1.283052
      9          1           0       -1.482052    1.133494    0.227521
     10          1           0       -1.807134    2.874049    0.163510
     11          6           0       -5.547465   -0.020564    0.098783
     12          6           0       -6.047960   -1.380950   -0.387878
     13          6           0       -7.500277   -1.651970    0.005972
     14          1           0       -5.647354    0.029458    1.191904
     15          1           0       -6.193201    0.768413   -0.310466
     16          1           0       -5.400842   -2.166767    0.022422
     17          1           0       -5.945868   -1.428913   -1.479616
     18          1           0       -8.162622   -0.889168   -0.415967
     19          1           0       -7.614500   -1.631213    1.094606
     20          1           0       -7.837540   -2.629723   -0.351956
     21          6           0        1.675331    1.260070    0.462905
     22          6           0        2.819854    1.873063   -0.057504
     23          6           0        3.984657    1.131796   -0.277293
     24          6           0        3.969710   -0.226486    0.035976
     25          6           0        2.845301   -0.865934    0.555689
     26          6           0        1.691678   -0.105066    0.767304
     27          1           0        0.774826    1.843518    0.630467
     28          1           0        2.810048    2.933076   -0.294829
     29          1           0        4.884747    1.581024   -0.679103
     30          1           0        2.885517   -1.924396    0.782532
     31          1           0        0.804297   -0.583779    1.171574
     32          7           0        5.196916   -1.021607   -0.192377
     33          8           0        5.158048   -2.216744    0.091832
     34          8           0        6.174431   -0.434631   -0.651246
 ---------------------------------------------------------------------

 SCF Done:  E(RHF) =  -669.535272633     A.U. after   15 cycles
 E2 =    -0.2091194912D+01 EUMP2 =    -0.67162646754524D+03

 The electronic state is 1-A.
 Alpha  occ. eigenvalues --  -20.60702 -20.60697 -15.85757 -11.31101 -11.27686
 Alpha  occ. eigenvalues --  -11.27676 -11.27337 -11.26683 -11.26660 -11.22569
 Alpha  occ. eigenvalues --  -11.22386 -11.22179 -11.22113 -11.21991 -11.21490
 Alpha  occ. eigenvalues --   -1.59779  -1.39333  -1.19274  -1.09177  -1.08664
 Alpha  occ. eigenvalues --   -1.04681  -1.04314  -0.96797  -0.95502  -0.87823
 Alpha  occ. eigenvalues --   -0.86076  -0.82344  -0.80394  -0.78942  -0.77398
 Alpha  occ. eigenvalues --   -0.71975  -0.71103  -0.70382  -0.65807  -0.64925
 Alpha  occ. eigenvalues --   -0.64695  -0.62043  -0.61703  -0.60191  -0.58367
 Alpha  occ. eigenvalues --   -0.56159  -0.55152  -0.53453  -0.53217  -0.52975
 Alpha  occ. eigenvalues --   -0.52772  -0.50713  -0.48734  -0.48732  -0.48688
 Alpha  occ. eigenvalues --   -0.47398  -0.46495  -0.46389  -0.44744  -0.44553
 Alpha  occ. eigenvalues --   -0.37230  -0.36292
 Alpha virt. eigenvalues --    0.05138   0.11333   0.16617   0.20164   0.22376
 Alpha virt. eigenvalues --    0.23787   0.25360   0.26239   0.26446   0.27384
 Alpha virt. eigenvalues --    0.29220   0.29448   0.30983   0.31262   0.31961

 Mulliken charges:
               1
     1  C   -0.298652
     2  C   -0.299953
     3  C   -0.480860
     4  H    0.147640
     5  H    0.151922
     6  H    0.153114
     7  H    0.155990
     8  H    0.162114
     9  H    0.147578
    10  H    0.157847
    11  C   -0.298957
    12  C   -0.300138
    13  C   -0.476121
    14  H    0.150092
    15  H    0.151190
    16  H    0.152030
    17  H    0.153107
    18  H    0.155958
    19  H    0.155616
    20  H    0.161975
    21  C   -0.173721
    22  C   -0.220370
    23  C   -0.170704
    24  C    0.157959
    25  C   -0.170790
    26  C   -0.221387
    27  H    0.234934
    28  H    0.223238
    29  H    0.275234
    30  H    0.275187
    31  H    0.222284
    32  N    0.488118
    33  O   -0.460782
    34  O   -0.460691
 Sum of Mulliken charges =  -0.00000

 Dipole moment (field-independent basis, Debye):
    X=             -4.5949    Y=              2.8250    Z=              0.7475  Tot=              5.4454
 Quadrupole moment (field-independent basis, Debye-Ang):
   XX=           -128.6823   YY=            -92.7806   ZZ=            -94.1630
   XY=             13.8737   XZ=              2.7602   YZ=             -2.0858

 Normal termination of Gaussian 16 at Thu May  6 04:18:58 2021.
