 Gaussian 16, Revision A.03,
 Gaussian 16:  EM64L-G16RevA.03 25-Dec-2016

 -------------
 #p 6-31g* mp2
 -------------

 ------------------------------------------------------
 Input file generated by CHIRIPA (05-May-2021 14:51:13)
 ------------------------------------------------------
 Symbolic Z-matrix:
 Charge =  0 Multiplicity = 1

                         Standard orientation:
 ---------------------------------------------------------------------
 Center     Atomic      Atomic             Coordinates (Angstroms)
 Number     Number       Type             X           Y           Z
 ---------------------------------------------------------------------
      1          6           0       -3.201901    0.562203   -0.303049
      2          6           0       -3.176399   -0.944480   -0.562359
      3          6           0       -4.515822   -1.479799   -1.069480
      4          1           0       -3.989574    0.788634    0.428555
      5          1           0       -3.478118    1.082254   -1.230759
      6          1           0       -2.898962   -1.461450    0.365211
      7          1           0       -2.388567   -1.167374   -1.293287
      8          1           0       -4.795752   -0.990576   -2.008044
      9          1           0       -5.309047   -1.286324   -0.340122
     10          1           0       -4.475168   -2.558796   -1.248292
     11          6           0       -1.870076    1.112225    0.204341
     12          6           0       -1.895578    2.618908    0.463650
     13          6           0       -0.556155    3.154227    0.970772
     14          1           0       -1.593858    0.592174    1.132051
     15          1           0       -1.082402    0.885794   -0.527263
     16          1           0       -2.683410    2.841802    1.194578
     17          1           0       -2.173015    3.135879   -0.463920
     18          1           0        0.237070    2.960752    0.241414
     19          1           0       -0.276225    2.665005    1.909335
     20          1           0       -0.596809    4.233224    1.149583
     21          6           0        2.309344   -1.420377    0.487517
     22          6           0        0.813697   -1.717711    0.375192
     23          6           0        0.375511   -2.886930    1.257639
     24          1           0        2.877142   -2.320437    0.214678
     25          1           0        2.554901   -1.201778    1.535996
     26          1           0        0.570782   -1.934327   -0.672990
     27          1           0        0.249396   -0.816779    0.648144
     28          1           0        0.589445   -2.676271    2.310471
     29          1           0        0.912657   -3.800168    0.981830
     30          1           0       -0.697130   -3.082203    1.161885
     31          6           0        2.762633   -0.254052   -0.388808
     32          6           0        4.258280    0.043283   -0.276484
     33          6           0        4.696465    1.212502   -1.158931
     34          1           0        2.517076   -0.472651   -1.437288
     35          1           0        2.194835    0.646009   -0.115970
     36          1           0        4.822581   -0.857649   -0.549436
     37          1           0        4.501194    0.259899    0.771699
     38          1           0        4.159320    2.125741   -0.883122
     39          1           0        4.482532    1.001842   -2.211763
     40          1           0        5.769107    1.407775   -1.063175
 ---------------------------------------------------------------------

 SCF Done:  E(RHF) =  -470.732313899     A.U. after   11 cycles
 E2 =    -0.1584830394D+01 EUMP2 =    -0.47231714429251D+03

 The electronic state is 1-A.
 Alpha  occ. eigenvalues --  -11.21648 -11.21615 -11.21568 -11.21432 -11.21380
 Alpha  occ. eigenvalues --  -11.21371 -11.21344 -11.21264 -11.21157 -11.21087
 Alpha  occ. eigenvalues --  -11.21051 -11.20980  -1.08496  -1.08337  -1.03573
 Alpha  occ. eigenvalues --   -1.03452  -0.96030  -0.95914  -0.87055  -0.86922
 Alpha  occ. eigenvalues --   -0.79660  -0.79551  -0.78509  -0.77938  -0.65111
 Alpha  occ. eigenvalues --   -0.64987  -0.60969  -0.60870  -0.59429  -0.59261
 Alpha  occ. eigenvalues --   -0.57664  -0.57507  -0.55314  -0.55208  -0.52729
 Alpha  occ. eigenvalues --   -0.52599  -0.52533  -0.52283  -0.49969  -0.49858
 Alpha  occ. eigenvalues --   -0.48084  -0.47826  -0.46706  -0.46666  -0.46221
 Alpha  occ. eigenvalues --   -0.45806  -0.45559  -0.44953  -0.43819  -0.43700
 Alpha virt. eigenvalues --    0.21020   0.22065   0.23591   0.24284   0.25210
 Alpha virt. eigenvalues --    0.25977   0.26778   0.27902   0.28425   0.29749
 Alpha virt. eigenvalues --    0.29832   0.31115   0.31352   0.31868   0.32217

 Mulliken charges:
               1
     1  C   -0.297733
     2  C   -0.303202
     3  C   -0.475756
     4  H    0.149458
     5  H    0.149576
     6  H    0.154153
     7  H    0.154057
     8  H    0.155219
     9  H    0.155144
    10  H    0.160305
    11  C   -0.303951
    12  C   -0.298545
    13  C   -0.478333
    14  H    0.151063
    15  H    0.154524
    16  H    0.151986
    17  H    0.152157
    18  H    0.156610
    19  H    0.154731
    20  H    0.161024
    21  C   -0.297420
    22  C   -0.308463
    23  C   -0.478007
    24  H    0.148874
    25  H    0.148788
    26  H    0.150136
    27  H    0.164952
    28  H    0.153962
    29  H    0.154660
    30  H    0.161681
    31  C   -0.301322
    32  C   -0.299360
    33  C   -0.475748
    34  H    0.148667
    35  H    0.151922
    36  H    0.151967
    37  H    0.152054
    38  H    0.155056
    39  H    0.154874
    40  H    0.160242
 Sum of Mulliken charges =  -0.00000

 Dipole moment (field-independent basis, Debye):
    X=             -0.0603    Y=              0.0481    Z=             -0.0081  Tot=              0.0775
 Quadrupole moment (field-independent basis, Debye-Ang):
   XX=            -85.7897   YY=            -85.4266   ZZ=            -83.7550
   XY=             -0.9106   XZ=             -0.4789   YZ=              0.6570

 Normal termination of Gaussian 16 at Thu May  6 07:09:02 2021.
