 Gaussian 16, Revision A.03,
 Gaussian 16:  EM64L-G16RevA.03 25-Dec-2016

 -------------
 #p 6-31g* mp2
 -------------

 ------------------------------------------------------
 Input file generated by CHIRIPA (05-May-2021 14:57:21)
 ------------------------------------------------------
 Symbolic Z-matrix:
 Charge =  0 Multiplicity = 1

                         Standard orientation:
 ---------------------------------------------------------------------
 Center     Atomic      Atomic             Coordinates (Angstroms)
 Number     Number       Type             X           Y           Z
 ---------------------------------------------------------------------
      1          6           0        1.834423    2.450492   -0.681988
      2          6           0        2.779274    2.411847    0.348683
      3          6           0        3.468993    1.230120    0.635664
      4          6           0        3.187737    0.100651   -0.131463
      5          6           0        2.252077    0.107461   -1.164799
      6          6           0        1.574298    1.300203   -1.434114
      7          1           0        1.303270    3.372764   -0.898060
      8          1           0        2.983333    3.303641    0.934437
      9          1           0        4.205512    1.172239    1.427881
     10          1           0        2.070187   -0.797693   -1.731395
     11          1           0        0.841043    1.327284   -2.235144
     12          7           0        3.911591   -1.156221    0.162999
     13          8           0        3.645630   -2.137634   -0.527457
     14          8           0        4.731203   -1.136145    1.078680
     15          6           0       -0.644840   -0.930755    0.502528
     16          6           0       -1.356111   -0.324115    1.543009
     17          6           0       -2.699376    0.025355    1.375495
     18          6           0       -3.302741   -0.247573    0.148813
     19          6           0       -2.620863   -0.850858   -0.906830
     20          6           0       -1.278369   -1.191730   -0.716921
     21          1           0        0.398340   -1.198892    0.641355
     22          1           0       -0.866679   -0.120244    2.491132
     23          1           0       -3.273646    0.495988    2.164251
     24          1           0       -3.135879   -1.041503   -1.840548
     25          1           0       -0.728463   -1.662750   -1.526728
     26          7           0       -4.724386    0.117843   -0.040381
     27          8           0       -5.233051   -0.133230   -1.130730
     28          8           0       -5.303090    0.648411    0.905260
 ---------------------------------------------------------------------

 SCF Done:  E(RHF) =  -868.336608447     A.U. after   16 cycles
 E2 =    -0.2602790280D+01 EUMP2 =    -0.87093939872754D+03

 The electronic state is 1-A.
 Alpha  occ. eigenvalues --  -20.61804 -20.61788 -20.61014 -20.61008 -15.86843
 Alpha  occ. eigenvalues --  -15.86072 -11.32192 -11.31417 -11.28755 -11.28683
 Alpha  occ. eigenvalues --  -11.28342 -11.28054 -11.28018 -11.27671 -11.27666
 Alpha  occ. eigenvalues --  -11.27660 -11.27028 -11.26940  -1.60879  -1.60093
 Alpha  occ. eigenvalues --   -1.40429  -1.39647  -1.20349  -1.19611  -1.09710
 Alpha  occ. eigenvalues --   -1.08991  -1.05726  -1.05024  -0.96563  -0.95820
 Alpha  occ. eigenvalues --   -0.87111  -0.86417  -0.83376  -0.82667  -0.78463
 Alpha  occ. eigenvalues --   -0.77726  -0.73041  -0.72288  -0.72251  -0.71423
 Alpha  occ. eigenvalues --   -0.71412  -0.70660  -0.65964  -0.65685  -0.65253
 Alpha  occ. eigenvalues --   -0.65037  -0.63067  -0.62362  -0.56146  -0.55637
 Alpha  occ. eigenvalues --   -0.54080  -0.53779  -0.53173  -0.53111  -0.49820
 Alpha  occ. eigenvalues --   -0.49794  -0.49044  -0.49043  -0.45824  -0.45057
 Alpha  occ. eigenvalues --   -0.38299  -0.38102  -0.36855  -0.36488
 Alpha virt. eigenvalues --    0.03971   0.04891   0.10225   0.10955   0.15583
 Alpha virt. eigenvalues --    0.16312   0.19692   0.21570   0.25114   0.27087
 Alpha virt. eigenvalues --    0.27748   0.28409   0.30403   0.30660   0.31525

 Mulliken charges:
               1
     1  C   -0.170686
     2  C   -0.218416
     3  C   -0.173304
     4  C    0.155576
     5  C   -0.184669
     6  C   -0.208607
     7  H    0.230898
     8  H    0.227161
     9  H    0.277718
    10  H    0.271907
    11  H    0.227096
    12  N    0.486971
    13  O   -0.461985
    14  O   -0.456249
    15  C   -0.162855
    16  C   -0.221799
    17  C   -0.170867
    18  C    0.156894
    19  C   -0.172370
    20  C   -0.226204
    21  H    0.231222
    22  H    0.224631
    23  H    0.275706
    24  H    0.275163
    25  H    0.220186
    26  N    0.488075
    27  O   -0.460866
    28  O   -0.460327
 Sum of Mulliken charges =  -0.00000

 Dipole moment (field-independent basis, Debye):
    X=              2.6078    Y=              3.3608    Z=             -0.3046  Tot=              4.2648
 Quadrupole moment (field-independent basis, Debye-Ang):
   XX=           -154.2796   YY=           -102.3245   ZZ=            -97.6549
   XY=             18.5699   XZ=             -2.4613   YZ=              2.6423

 Normal termination of Gaussian 16 at Thu May  6 19:28:02 2021.
