 Gaussian 16, Revision A.03,
 Gaussian 16:  EM64L-G16RevA.03 25-Dec-2016

 -------------
 #p 6-31g* mp2
 -------------

 ------------------------------------------------------
 Input file generated by CHIRIPA (05-May-2021 14:51:07)
 ------------------------------------------------------
 Symbolic Z-matrix:
 Charge =  0 Multiplicity = 1

                         Standard orientation:
 ---------------------------------------------------------------------
 Center     Atomic      Atomic             Coordinates (Angstroms)
 Number     Number       Type             X           Y           Z
 ---------------------------------------------------------------------
      1          6           0        2.620991   -1.322871   -0.298358
      2          6           0        1.303678   -1.877233    0.245107
      3          6           0        0.963908   -3.256031   -0.321695
      4          1           0        2.563486   -1.266478   -1.394012
      5          1           0        3.431526   -2.026696   -0.063713
      6          1           0        0.496091   -1.171909    0.010717
      7          1           0        1.364255   -1.932133    1.339608
      8          1           0        1.749392   -3.977910   -0.075715
      9          1           0        0.876294   -3.213368   -1.412156
     10          1           0        0.018397   -3.633409    0.080120
     11          6           0        2.974315    0.054896    0.258999
     12          6           0        4.291628    0.609258   -0.284466
     13          6           0        4.631398    1.988057    0.282336
     14          1           0        2.163780    0.758721    0.024354
     15          1           0        3.031820   -0.001497    1.354653
     16          1           0        4.231051    0.664158   -1.378967
     17          1           0        5.099215   -0.096065   -0.050076
     18          1           0        4.719012    1.945393    1.372797
     19          1           0        3.845914    2.709936    0.036356
     20          1           0        5.576909    2.365434   -0.119479
     21          6           0       -2.397181    1.236540    0.264596
     22          6           0       -2.709495    2.523464   -0.499783
     23          6           0       -1.900490    3.720041    0.001723
     24          1           0       -2.597537    1.394486    1.333172
     25          1           0       -1.324011    1.017456    0.176842
     26          1           0       -3.782006    2.739308   -0.411767
     27          1           0       -2.508555    2.362376   -1.566689
     28          1           0       -0.827266    3.529966   -0.101536
     29          1           0       -2.107953    3.909040    1.059948
     30          1           0       -2.139426    4.629382   -0.558517
     31          6           0       -3.198125    0.031434   -0.225237
     32          6           0       -2.885811   -1.255489    0.539142
     33          6           0       -3.694816   -2.452066    0.037636
     34          1           0       -4.271296    0.250519   -0.137482
     35          1           0       -2.997769   -0.126511   -1.293813
     36          1           0       -3.086751   -1.094402    1.606049
     37          1           0       -1.813300   -1.471334    0.451126
     38          1           0       -3.487354   -2.641065   -1.020589
     39          1           0       -4.768040   -2.261992    0.140896
     40          1           0       -3.455880   -3.361407    0.597875
 ---------------------------------------------------------------------

 SCF Done:  E(RHF) =  -470.733139381     A.U. after   11 cycles
 E2 =    -0.1583640611D+01 EUMP2 =    -0.47231677999247D+03

 The electronic state is 1-A.
 Alpha  occ. eigenvalues --  -11.21649 -11.21633 -11.21620 -11.21536 -11.21452
 Alpha  occ. eigenvalues --  -11.21414 -11.21392 -11.21351 -11.21118 -11.21091
 Alpha  occ. eigenvalues --  -11.21091 -11.21055  -1.08488  -1.08423  -1.03594
 Alpha  occ. eigenvalues --   -1.03508  -0.96027  -0.95974  -0.87035  -0.86994
 Alpha  occ. eigenvalues --   -0.79691  -0.79549  -0.78373  -0.78163  -0.65239
 Alpha  occ. eigenvalues --   -0.64959  -0.61102  -0.60829  -0.59468  -0.59262
 Alpha  occ. eigenvalues --   -0.57691  -0.57522  -0.55322  -0.55251  -0.52727
 Alpha  occ. eigenvalues --   -0.52656  -0.52442  -0.52402  -0.49981  -0.49908
 Alpha  occ. eigenvalues --   -0.48048  -0.47851  -0.46863  -0.46518  -0.46112
 Alpha  occ. eigenvalues --   -0.45796  -0.45759  -0.45242  -0.43827  -0.43779
 Alpha virt. eigenvalues --    0.20280   0.22520   0.23521   0.24554   0.25447
 Alpha virt. eigenvalues --    0.26715   0.26955   0.27101   0.28055   0.29712
 Alpha virt. eigenvalues --    0.30850   0.31237   0.31501   0.31764   0.32341

 Mulliken charges:
               1
     1  C   -0.297589
     2  C   -0.306490
     3  C   -0.477889
     4  H    0.149480
     5  H    0.149861
     6  H    0.156895
     7  H    0.152696
     8  H    0.155805
     9  H    0.155059
    10  H    0.162344
    11  C   -0.298654
    12  C   -0.299719
    13  C   -0.475697
    14  H    0.148964
    15  H    0.150125
    16  H    0.151922
    17  H    0.152144
    18  H    0.155367
    19  H    0.155169
    20  H    0.160389
    21  C   -0.301677
    22  C   -0.299611
    23  C   -0.475515
    24  H    0.150120
    25  H    0.151418
    26  H    0.152227
    27  H    0.151695
    28  H    0.154616
    29  H    0.155475
    30  H    0.160330
    31  C   -0.297635
    32  C   -0.310027
    33  C   -0.475182
    34  H    0.149612
    35  H    0.149032
    36  H    0.151686
    37  H    0.163266
    38  H    0.155212
    39  H    0.155049
    40  H    0.159728
 Sum of Mulliken charges =  -0.00000

 Dipole moment (field-independent basis, Debye):
    X=              0.0251    Y=             -0.0109    Z=              0.0145  Tot=              0.0309
 Quadrupole moment (field-independent basis, Debye-Ang):
   XX=            -84.4019   YY=            -86.4301   ZZ=            -83.8832
   XY=             -1.3174   XZ=             -0.3456   YZ=             -0.7529

 Normal termination of Gaussian 16 at Thu May  6 11:32:46 2021.
