 Gaussian 16, Revision A.03,
 Gaussian 16:  EM64L-G16RevA.03 25-Dec-2016

 -------------
 #p 6-31g* mp2
 -------------

 ------------------------------------------------------
 Input file generated by CHIRIPA (05-May-2021 14:55:21)
 ------------------------------------------------------
 Symbolic Z-matrix:
 Charge =  0 Multiplicity = 1

                         Standard orientation:
 ---------------------------------------------------------------------
 Center     Atomic      Atomic             Coordinates (Angstroms)
 Number     Number       Type             X           Y           Z
 ---------------------------------------------------------------------
      1          6           0       -2.247311    2.529998    0.722005
      2          6           0       -1.313661    1.489234    0.681640
      3          6           0       -1.677556    0.227124    0.202885
      4          6           0       -2.989548    0.040017   -0.229504
      5          6           0       -3.942626    1.056955   -0.201785
      6          6           0       -3.556505    2.310923    0.280941
      7          1           0       -1.955996    3.507272    1.095456
      8          1           0       -0.296220    1.656488    1.023524
      9          1           0       -0.974926   -0.596248    0.160609
     10          1           0       -4.949447    0.859858   -0.549466
     11          1           0       -4.283705    3.117344    0.311133
     12          7           0       -3.386552   -1.291812   -0.738443
     13          8           0       -4.548677   -1.431014   -1.113574
     14          8           0       -2.528080   -2.171280   -0.752581
     15          6           0        3.413483   -0.514689    0.850952
     16          6           0        2.126411   -1.323880    0.687732
     17          6           0        1.479164   -1.681376    2.026038
     18          1           0        4.124216   -1.087572    1.462187
     19          1           0        3.191628    0.405282    1.409368
     20          1           0        2.350363   -2.241387    0.128589
     21          1           0        1.418731   -0.749086    0.076654
     22          1           0        1.227524   -0.775210    2.586521
     23          1           0        2.164450   -2.275990    2.638751
     24          1           0        0.560593   -2.259708    1.885965
     25          6           0        4.072255   -0.149678   -0.478151
     26          6           0        5.359327    0.659513   -0.314932
     27          6           0        6.006575    1.017008   -1.653238
     28          1           0        4.294110   -1.069649   -1.036567
     29          1           0        3.361522    0.423204   -1.089387
     30          1           0        6.067008    0.084719    0.296147
     31          1           0        5.135375    1.577020    0.244212
     32          1           0        5.321288    1.611622   -2.265951
     33          1           0        6.258214    0.110842   -2.213720
     34          1           0        6.925146    1.595341   -1.513165
 ---------------------------------------------------------------------

 SCF Done:  E(RHF) =  -669.535448641     A.U. after   15 cycles
 E2 =    -0.2091880957D+01 EUMP2 =    -0.67162732959793D+03

 The electronic state is 1-A.
 Alpha  occ. eigenvalues --  -20.60750 -20.60745 -15.85801 -11.31149 -11.27734
 Alpha  occ. eigenvalues --  -11.27687 -11.27483 -11.26750 -11.26737 -11.22210
 Alpha  occ. eigenvalues --  -11.21966 -11.21926 -11.21781 -11.21591 -11.21356
 Alpha  occ. eigenvalues --   -1.59824  -1.39377  -1.19331  -1.08915  -1.08731
 Alpha  occ. eigenvalues --   -1.04739  -1.03994  -0.96429  -0.95565  -0.87435
 Alpha  occ. eigenvalues --   -0.86135  -0.82400  -0.80059  -0.78716  -0.77446
 Alpha  occ. eigenvalues --   -0.72022  -0.71146  -0.70458  -0.65583  -0.64981
 Alpha  occ. eigenvalues --   -0.64748  -0.62230  -0.61275  -0.59768  -0.58024
 Alpha  occ. eigenvalues --   -0.55730  -0.55221  -0.53118  -0.53060  -0.52895
 Alpha  occ. eigenvalues --   -0.52746  -0.50375  -0.48778  -0.48777  -0.48358
 Alpha  occ. eigenvalues --   -0.47111  -0.46247  -0.46180  -0.44786  -0.44235
 Alpha  occ. eigenvalues --   -0.37318  -0.36331
 Alpha virt. eigenvalues --    0.05073   0.11302   0.16549   0.19036   0.22763
 Alpha virt. eigenvalues --    0.23721   0.25754   0.25965   0.27223   0.28106
 Alpha virt. eigenvalues --    0.29307   0.29743   0.31359   0.31536   0.32527

 Mulliken charges:
               1
     1  C   -0.170611
     2  C   -0.222352
     3  C   -0.180000
     4  C    0.159853
     5  C   -0.170223
     6  C   -0.218955
     7  H    0.225402
     8  H    0.223759
     9  H    0.287340
    10  H    0.275494
    11  H    0.223361
    12  N    0.487749
    13  O   -0.460450
    14  O   -0.460736
    15  C   -0.297608
    16  C   -0.304928
    17  C   -0.482412
    18  H    0.153140
    19  H    0.144064
    20  H    0.161220
    21  H    0.143688
    22  H    0.149528
    23  H    0.160733
    24  H    0.169382
    25  C   -0.298705
    26  C   -0.299754
    27  C   -0.475955
    28  H    0.153093
    29  H    0.148523
    30  H    0.153254
    31  H    0.150054
    32  H    0.155090
    33  H    0.156956
    34  H    0.161005
 Sum of Mulliken charges =  -0.00000

 Dipole moment (field-independent basis, Debye):
    X=              1.5348    Y=              4.5574    Z=              1.7864  Tot=              5.1300
 Quadrupole moment (field-independent basis, Debye-Ang):
   XX=            -98.4051   YY=            -93.3825   ZZ=            -97.0530
   XY=            -16.9618   XZ=             -4.3693   YZ=             -1.1731

 Normal termination of Gaussian 16 at Thu May  6 19:09:10 2021.
