 Gaussian 16, Revision A.03,
 Gaussian 16:  EM64L-G16RevA.03 25-Dec-2016

 -------------
 #p 6-31g* mp2
 -------------

 ------------------------------------------------------
 Input file generated by CHIRIPA (05-May-2021 14:51:14)
 ------------------------------------------------------
 Symbolic Z-matrix:
 Charge =  0 Multiplicity = 1

                         Standard orientation:
 ---------------------------------------------------------------------
 Center     Atomic      Atomic             Coordinates (Angstroms)
 Number     Number       Type             X           Y           Z
 ---------------------------------------------------------------------
      1          6           0        4.799702   -0.163177    0.231643
      2          6           0        5.491764   -1.226049   -0.622371
      3          6           0        6.574644   -1.986740    0.143470
      4          1           0        5.552114    0.544596    0.605646
      5          1           0        4.356495   -0.643852    1.114770
      6          1           0        5.932346   -0.743714   -1.504333
      7          1           0        4.737591   -1.931264   -0.994542
      8          1           0        6.146544   -2.493870    1.014189
      9          1           0        7.348088   -1.299573    0.501502
     10          1           0        7.056360   -2.741545   -0.485878
     11          6           0        3.714630    0.605799   -0.520036
     12          6           0        3.022568    1.668671    0.333977
     13          6           0        1.939687    2.429362   -0.431864
     14          1           0        4.157837    1.086475   -1.403163
     15          1           0        2.962217   -0.101974   -0.894040
     16          1           0        3.776741    2.373886    0.706148
     17          1           0        2.581985    1.186336    1.215939
     18          1           0        1.166244    1.742195   -0.789895
     19          1           0        2.367787    2.936492   -1.302582
     20          1           0        1.457971    3.184167    0.197484
     21          6           0       -4.864437   -0.677290    0.062121
     22          6           0       -6.127019    0.066929   -0.373780
     23          6           0       -7.333371   -0.858777   -0.533705
     24          1           0       -4.633867   -1.458342   -0.675267
     25          1           0       -5.060748   -1.192788    1.012446
     26          1           0       -5.927958    0.582003   -1.322300
     27          1           0       -6.354502    0.846426    0.364632
     28          1           0       -7.560083   -1.362888    0.411322
     29          1           0       -7.131116   -1.628814   -1.285195
     30          1           0       -8.224974   -0.306051   -0.845786
     31          6           0       -3.649895    0.234668    0.226273
     32          6           0       -2.387312   -0.509552    0.662173
     33          6           0       -1.180961    0.416155    0.822098
     34          1           0       -3.453584    0.750167   -0.724053
     35          1           0       -3.880464    1.015720    0.963660
     36          1           0       -2.159830   -1.289048   -0.076239
     37          1           0       -2.586373   -1.024625    1.610693
     38          1           0       -1.383215    1.186191    1.573588
     39          1           0       -0.954248    0.920266   -0.122929
     40          1           0       -0.289357   -0.136572    1.134180
 ---------------------------------------------------------------------

 SCF Done:  E(RHF) =  -470.732983850     A.U. after   11 cycles
 E2 =    -0.1582588009D+01 EUMP2 =    -0.47231557185922D+03

 The electronic state is 1-A.
 Alpha  occ. eigenvalues --  -11.21617 -11.21609 -11.21582 -11.21528 -11.21418
 Alpha  occ. eigenvalues --  -11.21369 -11.21358 -11.21307 -11.21080 -11.21077
 Alpha  occ. eigenvalues --  -11.21056 -11.20933  -1.08445  -1.08385  -1.03557
 Alpha  occ. eigenvalues --   -1.03464  -0.96031  -0.95892  -0.87064  -0.86895
 Alpha  occ. eigenvalues --   -0.79642  -0.79511  -0.78257  -0.78199  -0.65093
 Alpha  occ. eigenvalues --   -0.65005  -0.61045  -0.60800  -0.59356  -0.59293
 Alpha  occ. eigenvalues --   -0.57620  -0.57531  -0.55478  -0.55061  -0.52694
 Alpha  occ. eigenvalues --   -0.52629  -0.52447  -0.52302  -0.50132  -0.49671
 Alpha  occ. eigenvalues --   -0.47946  -0.47831  -0.46736  -0.46447  -0.45808
 Alpha  occ. eigenvalues --   -0.45751  -0.45707  -0.45619  -0.43795  -0.43733
 Alpha virt. eigenvalues --    0.21608   0.22978   0.23661   0.24860   0.26236
 Alpha virt. eigenvalues --    0.26524   0.26949   0.27581   0.27766   0.29069
 Alpha virt. eigenvalues --    0.30372   0.30755   0.31630   0.32026   0.32431

 Mulliken charges:
               1
     1  C   -0.298204
     2  C   -0.299606
     3  C   -0.475673
     4  H    0.149626
     5  H    0.149254
     6  H    0.151890
     7  H    0.151810
     8  H    0.155116
     9  H    0.155169
    10  H    0.160161
    11  C   -0.298568
    12  C   -0.300270
    13  C   -0.478450
    14  H    0.149354
    15  H    0.149573
    16  H    0.151511
    17  H    0.152794
    18  H    0.160198
    19  H    0.153710
    20  H    0.160011
    21  C   -0.298267
    22  C   -0.299671
    23  C   -0.475715
    24  H    0.149614
    25  H    0.149538
    26  H    0.151998
    27  H    0.151982
    28  H    0.155178
    29  H    0.155177
    30  H    0.160302
    31  C   -0.298479
    32  C   -0.300021
    33  C   -0.478341
    34  H    0.149743
    35  H    0.149765
    36  H    0.151620
    37  H    0.151794
    38  H    0.155600
    39  H    0.158854
    40  H    0.159922
 Sum of Mulliken charges =  -0.00000

 Dipole moment (field-independent basis, Debye):
    X=             -0.0322    Y=              0.0069    Z=              0.0034  Tot=              0.0331
 Quadrupole moment (field-independent basis, Debye-Ang):
   XX=            -85.9420   YY=            -85.0441   ZZ=            -83.9380
   XY=              0.3947   XZ=             -0.9294   YZ=              0.1581

 Normal termination of Gaussian 16 at Wed May  5 18:26:00 2021.
