 Gaussian 16, Revision A.03,
 Gaussian 16:  EM64L-G16RevA.03 25-Dec-2016

 -------------
 #p 6-31g* mp2
 -------------

 ------------------------------------------------------
 Input file generated by CHIRIPA (05-May-2021 14:57:26)
 ------------------------------------------------------
 Symbolic Z-matrix:
 Charge =  0 Multiplicity = 1

                         Standard orientation:
 ---------------------------------------------------------------------
 Center     Atomic      Atomic             Coordinates (Angstroms)
 Number     Number       Type             X           Y           Z
 ---------------------------------------------------------------------
      1          6           0       -1.476408    1.886627   -1.084318
      2          6           0       -2.659755    2.424704   -0.567903
      3          6           0       -3.646098    1.589567   -0.034779
      4          6           0       -3.415044    0.214829   -0.034047
      5          6           0       -2.246551   -0.351500   -0.541180
      6          6           0       -1.273940    0.502683   -1.069335
      7          1           0       -0.715527    2.542779   -1.496532
      8          1           0       -2.819707    3.499112   -0.578226
      9          1           0       -4.571474    1.979453    0.371528
     10          1           0       -2.115686   -1.426540   -0.517054
     11          1           0       -0.355909    0.082009   -1.469707
     12          7           0       -4.451973   -0.679374    0.527718
     13          8           0       -4.224282   -1.887129    0.516682
     14          8           0       -5.472774   -0.155564    0.968427
     15          6           0        4.739333    1.525240    0.880219
     16          6           0        3.871121    0.913782    1.790631
     17          6           0        3.038169   -0.132892    1.384173
     18          6           0        3.099597   -0.544676    0.053778
     19          6           0        3.953930    0.044462   -0.876986
     20          6           0        4.777898    1.089396   -0.448341
     21          1           0        5.382901    2.337645    1.204583
     22          1           0        3.839044    1.250187    2.823031
     23          1           0        2.356598   -0.623975    2.068074
     24          1           0        3.963487   -0.312771   -1.899587
     25          1           0        5.451174    1.562405   -1.157572
     26          7           0        2.222542   -1.651823   -0.388265
     27          8           0        2.295590   -1.996126   -1.565871
     28          8           0        1.478667   -2.154338    0.451239
 ---------------------------------------------------------------------

 SCF Done:  E(RHF) =  -868.338673442     A.U. after   16 cycles
 E2 =    -0.2599298326D+01 EUMP2 =    -0.87093797176828D+03

 The electronic state is 1-A.
 Alpha  occ. eigenvalues --  -20.61667 -20.61648 -20.60242 -20.60216 -15.86686
 Alpha  occ. eigenvalues --  -15.85283 -11.31916 -11.30627 -11.28482 -11.28433
 Alpha  occ. eigenvalues --  -11.28167 -11.27446 -11.27408 -11.27272 -11.27094
 Alpha  occ. eigenvalues --  -11.27025 -11.26309 -11.26162  -1.60747  -1.59309
 Alpha  occ. eigenvalues --   -1.40292  -1.38861  -1.20077  -1.18821  -1.09498
 Alpha  occ. eigenvalues --   -1.08239  -1.05445  -1.04203  -0.96349  -0.95063
 Alpha  occ. eigenvalues --   -0.86848  -0.85620  -0.83172  -0.81881  -0.78243
 Alpha  occ. eigenvalues --   -0.76916  -0.72887  -0.72093  -0.71503  -0.71162
 Alpha  occ. eigenvalues --   -0.70634  -0.69948  -0.65717  -0.65432  -0.64472
 Alpha  occ. eigenvalues --   -0.64210  -0.62783  -0.61524  -0.55941  -0.54767
 Alpha  occ. eigenvalues --   -0.53800  -0.53522  -0.52567  -0.52289  -0.49668
 Alpha  occ. eigenvalues --   -0.49647  -0.48270  -0.48249  -0.45715  -0.44269
 Alpha  occ. eigenvalues --   -0.38058  -0.37048  -0.36850  -0.35805
 Alpha virt. eigenvalues --    0.04247   0.05600   0.10603   0.11828   0.15764
 Alpha virt. eigenvalues --    0.17067   0.20810   0.21851   0.26749   0.27363
 Alpha virt. eigenvalues --    0.27865   0.28836   0.30382   0.31305   0.31943

 Mulliken charges:
               1
     1  C   -0.171862
     2  C   -0.219517
     3  C   -0.171962
     4  C    0.157049
     5  C   -0.169028
     6  C   -0.223285
     7  H    0.221590
     8  H    0.219962
     9  H    0.273520
    10  H    0.286426
    11  H    0.228248
    12  N    0.487822
    13  O   -0.457196
    14  O   -0.463726
    15  C   -0.170540
    16  C   -0.218884
    17  C   -0.170116
    18  C    0.154042
    19  C   -0.173613
    20  C   -0.219163
    21  H    0.227834
    22  H    0.226444
    23  H    0.278868
    24  H    0.275781
    25  H    0.225031
    26  N    0.485034
    27  O   -0.462032
    28  O   -0.456729
 Sum of Mulliken charges =  -0.00000

 Dipole moment (field-independent basis, Debye):
    X=              6.9832    Y=              6.8894    Z=             -0.3134  Tot=              9.8146
 Quadrupole moment (field-independent basis, Debye-Ang):
   XX=           -109.3169   YY=           -105.5782   ZZ=           -100.8043
   XY=             -1.1942   XZ=              9.3923   YZ=             -0.5121

 Normal termination of Gaussian 16 at Thu May  6 11:27:39 2021.
