 Gaussian 16, Revision A.03,
 Gaussian 16:  EM64L-G16RevA.03 25-Dec-2016

 -------------
 #p 6-31g* mp2
 -------------

 ------------------------------------------------------
 Input file generated by CHIRIPA (05-May-2021 14:53:12)
 ------------------------------------------------------
 Symbolic Z-matrix:
 Charge =  0 Multiplicity = 1

                         Standard orientation:
 ---------------------------------------------------------------------
 Center     Atomic      Atomic             Coordinates (Angstroms)
 Number     Number       Type             X           Y           Z
 ---------------------------------------------------------------------
      1          6           0       -4.338053   -0.289964   -0.149725
      2          6           0       -5.752713   -0.686152    0.274253
      3          6           0       -6.147799   -2.079991   -0.214537
      4          1           0       -4.265671   -0.330096   -1.245214
      5          1           0       -3.625481   -1.031132    0.237968
      6          1           0       -6.462264    0.056293   -0.112954
      7          1           0       -5.821791   -0.644888    1.368849
      8          1           0       -5.462913   -2.836057    0.182824
      9          1           0       -6.107025   -2.130893   -1.307399
     10          1           0       -7.162680   -2.342911    0.099708
     11          6           0       -3.928576    1.100911    0.331442
     12          6           0       -2.513916    1.497100   -0.092536
     13          6           0       -2.118830    2.890938    0.396254
     14          1           0       -4.641148    1.842079   -0.056251
     15          1           0       -4.000958    1.141043    1.426931
     16          1           0       -2.444838    1.455835   -1.187132
     17          1           0       -1.804365    0.754655    0.294671
     18          1           0       -2.159604    2.941840    1.489116
     19          1           0       -2.803716    3.647005   -0.001107
     20          1           0       -1.103949    3.153858    0.082009
     21          6           0        5.695534    0.128446    0.219983
     22          6           0        5.171446   -1.132708    0.522213
     23          6           0        3.806448   -1.390672    0.364789
     24          6           0        2.990711   -0.359819   -0.099112
     25          6           0        3.482908    0.907138   -0.408714
     26          6           0        4.851081    1.142556   -0.243699
     27          1           0        6.757130    0.320082    0.345222
     28          1           0        5.824890   -1.922173    0.882493
     29          1           0        3.374277   -2.357805    0.591283
     30          1           0        2.806561    1.674166   -0.765983
     31          1           0        5.255322    2.122950   -0.479200
     32          7           0        1.543968   -0.620979   -0.269789
     33          8           0        0.846377    0.304047   -0.680070
     34          8           0        1.134998   -1.745758    0.009948
 ---------------------------------------------------------------------

 SCF Done:  E(RHF) =  -669.536020320     A.U. after   15 cycles
 E2 =    -0.2091159266D+01 EUMP2 =    -0.67162717958646D+03

 The electronic state is 1-A.
 Alpha  occ. eigenvalues --  -20.60981 -20.60966 -15.86002 -11.31316 -11.27878
 Alpha  occ. eigenvalues --  -11.27875 -11.27613 -11.26883 -11.26873 -11.20675
 Alpha  occ. eigenvalues --  -11.20256 -11.20202 -11.20116 -11.19901 -11.19837
 Alpha  occ. eigenvalues --   -1.60036  -1.39591  -1.19483  -1.08890  -1.07216
 Alpha  occ. eigenvalues --   -1.04878  -1.02341  -0.95733  -0.94857  -0.86279
 Alpha  occ. eigenvalues --   -0.85885  -0.82567  -0.78404  -0.77621  -0.76962
 Alpha  occ. eigenvalues --   -0.72215  -0.71349  -0.70592  -0.65138  -0.64881
 Alpha  occ. eigenvalues --   -0.63858  -0.62226  -0.59751  -0.58222  -0.56423
 Alpha  occ. eigenvalues --   -0.55382  -0.54176  -0.53210  -0.52970  -0.51579
 Alpha  occ. eigenvalues --   -0.51272  -0.49063  -0.48979  -0.48796  -0.46691
 Alpha  occ. eigenvalues --   -0.45453  -0.45013  -0.44531  -0.44319  -0.42602
 Alpha  occ. eigenvalues --   -0.37461  -0.36479
 Alpha virt. eigenvalues --    0.04891   0.11176   0.16384   0.21287   0.24001
 Alpha virt. eigenvalues --    0.25353   0.27208   0.27859   0.28034   0.28836
 Alpha virt. eigenvalues --    0.29078   0.30822   0.32066   0.32499   0.32950

 Mulliken charges:
               1
     1  C   -0.298072
     2  C   -0.298674
     3  C   -0.475057
     4  H    0.149138
     5  H    0.155698
     6  H    0.148972
     7  H    0.149642
     8  H    0.156017
     9  H    0.154342
    10  H    0.156611
    11  C   -0.298646
    12  C   -0.299543
    13  C   -0.475643
    14  H    0.143387
    15  H    0.144901
    16  H    0.151512
    17  H    0.173539
    18  H    0.149196
    19  H    0.148290
    20  H    0.159888
    21  C   -0.170553
    22  C   -0.218575
    23  C   -0.170696
    24  C    0.157924
    25  C   -0.170697
    26  C   -0.218527
    27  H    0.226086
    28  H    0.223876
    29  H    0.275836
    30  H    0.275695
    31  H    0.223960
    32  N    0.489175
    33  O   -0.459452
    34  O   -0.459550
 Sum of Mulliken charges =  -0.00000

 Dipole moment (field-independent basis, Debye):
    X=              5.4823    Y=              0.7730    Z=              0.5471  Tot=              5.5635
 Quadrupole moment (field-independent basis, Debye-Ang):
   XX=            -66.3101   YY=            -92.5439   ZZ=            -94.6413
   XY=              0.0721   XZ=              1.9811   YZ=             -2.8519

 Normal termination of Gaussian 16 at Thu May  6 16:58:55 2021.
