 Gaussian 16, Revision A.03,
 Gaussian 16:  EM64L-G16RevA.03 25-Dec-2016

 -------------
 #p 6-31g* mp2
 -------------

 ------------------------------------------------------
 Input file generated by CHIRIPA (05-May-2021 14:53:17)
 ------------------------------------------------------
 Symbolic Z-matrix:
 Charge =  0 Multiplicity = 1

                         Standard orientation:
 ---------------------------------------------------------------------
 Center     Atomic      Atomic             Coordinates (Angstroms)
 Number     Number       Type             X           Y           Z
 ---------------------------------------------------------------------
      1          6           0       -2.458534   -0.269085   -0.149628
      2          6           0       -3.433716   -1.439578   -0.279829
      3          6           0       -2.724825   -2.788543   -0.404571
      4          1           0       -1.792932   -0.255704   -1.023550
      5          1           0       -1.818129   -0.430403    0.728582
      6          1           0       -4.073015   -1.275417   -1.156735
      7          1           0       -4.097199   -1.450059    0.594412
      8          1           0       -2.100631   -2.978468    0.474583
      9          1           0       -2.076309   -2.802834   -1.286514
     10          1           0       -3.440716   -3.611287   -0.496509
     11          6           0       -3.152156    1.086218   -0.024043
     12          6           0       -2.176974    2.256711    0.106158
     13          6           0       -2.885865    3.605676    0.230900
     14          1           0       -3.792561    1.247536   -0.902253
     15          1           0       -3.817758    1.072837    0.849879
     16          1           0       -1.513492    2.267192   -0.768083
     17          1           0       -1.537676    2.092551    0.983064
     18          1           0       -3.534381    3.619967    1.112843
     19          1           0       -3.510059    3.795601   -0.648254
     20          1           0       -2.169974    4.428420    0.322838
     21          6           0        0.831387   -2.362115    0.652651
     22          6           0        1.151016   -2.092520   -0.682143
     23          6           0        1.904160   -0.963511   -1.017798
     24          6           0        2.323184   -0.121690    0.011303
     25          6           0        2.020840   -0.363241    1.350532
     26          6           0        1.266552   -1.498139    1.662947
     27          1           0        0.245883   -3.241444    0.904369
     28          1           0        0.814406   -2.761739   -1.468834
     29          1           0        2.165822   -0.730926   -2.042910
     30          1           0        2.370562    0.322367    2.112800
     31          1           0        1.019814   -1.705009    2.700430
     32          7           0        3.121109    1.076657   -0.331738
     33          8           0        3.478305    1.802686    0.593427
     34          8           0        3.374217    1.267204   -1.519285
 ---------------------------------------------------------------------

 SCF Done:  E(RHF) =  -669.534613096     A.U. after   15 cycles
 E2 =    -0.2093906364D+01 EUMP2 =    -0.67162851945968D+03

 The electronic state is 1-A.
 Alpha  occ. eigenvalues --  -20.60767 -20.60762 -15.85823 -11.31189 -11.27784
 Alpha  occ. eigenvalues --  -11.27770 -11.27479 -11.26784 -11.26754 -11.22152
 Alpha  occ. eigenvalues --  -11.21971 -11.21655 -11.21639 -11.21538 -11.21041
 Alpha  occ. eigenvalues --   -1.59843  -1.39397  -1.19369  -1.08805  -1.08679
 Alpha  occ. eigenvalues --   -1.04778  -1.03872  -0.96346  -0.95593  -0.87374
 Alpha  occ. eigenvalues --   -0.86171  -0.82435  -0.79954  -0.78484  -0.77475
 Alpha  occ. eigenvalues --   -0.72042  -0.71165  -0.70503  -0.65361  -0.65025
 Alpha  occ. eigenvalues --   -0.64788  -0.62134  -0.61285  -0.59728  -0.57933
 Alpha  occ. eigenvalues --   -0.55800  -0.55158  -0.53190  -0.52988  -0.52887
 Alpha  occ. eigenvalues --   -0.52732  -0.50299  -0.48799  -0.48795  -0.48241
 Alpha  occ. eigenvalues --   -0.46972  -0.46005  -0.45944  -0.44803  -0.44083
 Alpha  occ. eigenvalues --   -0.37253  -0.36359
 Alpha virt. eigenvalues --    0.05035   0.11171   0.16430   0.20399   0.22774
 Alpha virt. eigenvalues --    0.24178   0.25454   0.26235   0.27282   0.27406
 Alpha virt. eigenvalues --    0.29098   0.29668   0.31596   0.31727   0.32377

 Mulliken charges:
               1
     1  C   -0.300074
     2  C   -0.299469
     3  C   -0.475458
     4  H    0.150347
     5  H    0.150751
     6  H    0.154137
     7  H    0.152689
     8  H    0.146118
     9  H    0.150974
    10  H    0.162258
    11  C   -0.298876
    12  C   -0.299542
    13  C   -0.476190
    14  H    0.149679
    15  H    0.148495
    16  H    0.154476
    17  H    0.151379
    18  H    0.153924
    19  H    0.155174
    20  H    0.163862
    21  C   -0.166305
    22  C   -0.217060
    23  C   -0.171775
    24  C    0.159304
    25  C   -0.170386
    26  C   -0.221096
    27  H    0.227773
    28  H    0.223917
    29  H    0.275388
    30  H    0.275572
    31  H    0.223106
    32  N    0.488128
    33  O   -0.460520
    34  O   -0.460701
 Sum of Mulliken charges =  -0.00000

 Dipole moment (field-independent basis, Debye):
    X=             -2.7973    Y=             -4.1536    Z=              1.1933  Tot=              5.1480
 Quadrupole moment (field-independent basis, Debye-Ang):
   XX=           -108.9036   YY=            -95.1820   ZZ=            -89.0749
   XY=             -9.2318   XZ=              3.1472   YZ=              0.9277

 Normal termination of Gaussian 16 at Wed May  5 15:46:09 2021.
