 Gaussian 16, Revision A.03,
 Gaussian 16:  EM64L-G16RevA.03 25-Dec-2016

 -------------
 #p 6-31g* mp2
 -------------

 ------------------------------------------------------
 Input file generated by CHIRIPA (05-May-2021 14:57:27)
 ------------------------------------------------------
 Symbolic Z-matrix:
 Charge =  0 Multiplicity = 1

                         Standard orientation:
 ---------------------------------------------------------------------
 Center     Atomic      Atomic             Coordinates (Angstroms)
 Number     Number       Type             X           Y           Z
 ---------------------------------------------------------------------
      1          6           0       -2.708999   -1.754247   -1.260413
      2          6           0       -2.449633   -0.629794   -2.050891
      3          6           0       -2.093716    0.586429   -1.460406
      4          6           0       -2.006146    0.642809   -0.070283
      5          6           0       -2.258445   -0.459921    0.744346
      6          6           0       -2.612746   -1.665878    0.132228
      7          1           0       -2.984856   -2.695050   -1.727518
      8          1           0       -2.523614   -0.695494   -3.132675
      9          1           0       -1.887530    1.472463   -2.048496
     10          1           0       -2.176581   -0.363570    1.820186
     11          1           0       -2.813607   -2.537516    0.748626
     12          7           0       -1.630208    1.924936    0.566288
     13          8           0       -1.559912    1.948554    1.793129
     14          8           0       -1.412962    2.881971   -0.173661
     15          6           0        0.766751   -1.889947    1.770608
     16          6           0        1.210479   -0.627932    2.179200
     17          6           0        1.932359    0.188668    1.303642
     18          6           0        2.193915   -0.290502    0.020959
     19          6           0        1.765359   -1.543093   -0.415670
     20          6           0        1.045117   -2.342701    0.476758
     21          1           0        0.206614   -2.517701    2.457315
     22          1           0        0.995757   -0.273720    3.183427
     23          1           0        2.287824    1.169898    1.593896
     24          1           0        1.994789   -1.868824   -1.422983
     25          1           0        0.701765   -3.322355    0.156708
     26          7           0        2.957270    0.565001   -0.914885
     27          8           0        3.174714    0.119748   -2.039653
     28          8           0        3.323689    1.664598   -0.505910
 ---------------------------------------------------------------------

 SCF Done:  E(RHF) =  -868.336326688     A.U. after   16 cycles
 E2 =    -0.2605193878D+01 EUMP2 =    -0.87094152056642D+03

 The electronic state is 1-A.
 Alpha  occ. eigenvalues --  -20.61065 -20.61013 -20.60645 -20.60601 -15.86085
 Alpha  occ. eigenvalues --  -15.85680 -11.31443 -11.31135 -11.28115 -11.27990
 Alpha  occ. eigenvalues --  -11.27823 -11.27741 -11.27597 -11.27514 -11.27122
 Alpha  occ. eigenvalues --  -11.27003 -11.26827 -11.26659  -1.60106  -1.59700
 Alpha  occ. eigenvalues --   -1.39663  -1.39249  -1.19658  -1.19304  -1.09046
 Alpha  occ. eigenvalues --   -1.08725  -1.05063  -1.04704  -0.95882  -0.95534
 Alpha  occ. eigenvalues --   -0.86480  -0.86109  -0.82730  -0.82336  -0.77765
 Alpha  occ. eigenvalues --   -0.77355  -0.72314  -0.71898  -0.71440  -0.71017
 Alpha  occ. eigenvalues --   -0.70799  -0.70462  -0.65314  -0.65111  -0.64951
 Alpha  occ. eigenvalues --   -0.64715  -0.62428  -0.62034  -0.55594  -0.55292
 Alpha  occ. eigenvalues --   -0.54029  -0.53181  -0.52795  -0.52419  -0.49079
 Alpha  occ. eigenvalues --   -0.49054  -0.48670  -0.48641  -0.45075  -0.44633
 Alpha  occ. eigenvalues --   -0.37995  -0.37695  -0.36223  -0.35923
 Alpha virt. eigenvalues --    0.04608   0.05318   0.10475   0.11792   0.16015
 Alpha virt. eigenvalues --    0.16853   0.20182   0.21975   0.26366   0.26874
 Alpha virt. eigenvalues --    0.28187   0.29076   0.30319   0.31122   0.31968

 Mulliken charges:
               1
     1  C   -0.172667
     2  C   -0.218935
     3  C   -0.169992
     4  C    0.158652
     5  C   -0.161012
     6  C   -0.219060
     7  H    0.224193
     8  H    0.225792
     9  H    0.279639
    10  H    0.268694
    11  H    0.216452
    12  N    0.488207
    13  O   -0.466802
    14  O   -0.454339
    15  C   -0.176155
    16  C   -0.215993
    17  C   -0.172162
    18  C    0.156816
    19  C   -0.171684
    20  C   -0.210975
    21  H    0.218879
    22  H    0.229766
    23  H    0.283062
    24  H    0.273056
    25  H    0.217037
    26  N    0.488058
    27  O   -0.463870
    28  O   -0.454655
 Sum of Mulliken charges =  -0.00000

 Dipole moment (field-independent basis, Debye):
    X=             -3.9163    Y=             -7.2168    Z=              1.0076  Tot=              8.2725
 Quadrupole moment (field-independent basis, Debye-Ang):
   XX=           -112.9908   YY=           -106.6313   ZZ=            -98.1923
   XY=              2.9861   XZ=             12.2736   YZ=             -1.4477

 Normal termination of Gaussian 16 at Wed May  5 21:17:03 2021.
