 Gaussian 16, Revision A.03,
 Gaussian 16:  EM64L-G16RevA.03 25-Dec-2016

 -------------
 #p 6-31g* mp2
 -------------

 ------------------------------------------------------
 Input file generated by CHIRIPA (05-May-2021 14:55:23)
 ------------------------------------------------------
 Symbolic Z-matrix:
 Charge =  0 Multiplicity = 1

                         Standard orientation:
 ---------------------------------------------------------------------
 Center     Atomic      Atomic             Coordinates (Angstroms)
 Number     Number       Type             X           Y           Z
 ---------------------------------------------------------------------
      1          6           0        0.608868   -1.263861   -0.113359
      2          6           0        1.717211   -2.015641    0.290277
      3          6           0        2.988406   -1.435866    0.340015
      4          6           0        3.115587   -0.095797   -0.022380
      5          6           0        2.030629    0.679447   -0.428769
      6          6           0        0.768832    0.078917   -0.470963
      7          1           0       -0.374976   -1.722306   -0.149067
      8          1           0        1.595959   -3.058666    0.568562
      9          1           0        3.863488   -1.994728    0.648759
     10          1           0        2.182875    1.717016   -0.700227
     11          1           0       -0.090136    0.665185   -0.784824
     12          7           0        4.456369    0.528971    0.026282
     13          8           0        4.541926    1.711405   -0.298012
     14          8           0        5.396329   -0.175600    0.387796
     15          6           0       -3.457515   -0.432238   -0.186105
     16          6           0       -4.404006   -1.571987    0.192196
     17          6           0       -3.894992   -2.939428   -0.264753
     18          1           0       -3.316787   -0.427338   -1.275653
     19          1           0       -2.469767   -0.623239    0.255784
     20          1           0       -5.390056   -1.378194   -0.249125
     21          1           0       -4.542649   -1.574054    1.280953
     22          1           0       -2.921716   -3.158560    0.186151
     23          1           0       -3.773937   -2.961587   -1.352621
     24          1           0       -4.586848   -3.739668    0.015982
     25          6           0       -3.952686    0.941081    0.263930
     26          6           0       -3.006195    2.080830   -0.114371
     27          6           0       -3.515209    3.448272    0.342579
     28          1           0       -4.940435    1.132082   -0.177958
     29          1           0       -4.093415    0.936181    1.353479
     30          1           0       -2.867553    2.082897   -1.203127
     31          1           0       -2.020146    1.887037    0.326951
     32          1           0       -3.636264    3.470429    1.430446
     33          1           0       -4.488486    3.667403   -0.108326
     34          1           0       -2.823354    4.248510    0.061843
 ---------------------------------------------------------------------

 SCF Done:  E(RHF) =  -669.535352040     A.U. after   15 cycles
 E2 =    -0.2092621110D+01 EUMP2 =    -0.67162797315013D+03

 The electronic state is 1-A.
 Alpha  occ. eigenvalues --  -20.60704 -20.60698 -15.85756 -11.31105 -11.27675
 Alpha  occ. eigenvalues --  -11.27661 -11.27359 -11.26678 -11.26616 -11.22690
 Alpha  occ. eigenvalues --  -11.22668 -11.22631 -11.22397 -11.22210 -11.21847
 Alpha  occ. eigenvalues --   -1.59780  -1.39333  -1.19270  -1.09545  -1.08662
 Alpha  occ. eigenvalues --   -1.04670  -1.04567  -0.97008  -0.95507  -0.88021
 Alpha  occ. eigenvalues --   -0.86068  -0.82344  -0.80649  -0.79419  -0.77384
 Alpha  occ. eigenvalues --   -0.71974  -0.71103  -0.70394  -0.66177  -0.64916
 Alpha  occ. eigenvalues --   -0.64651  -0.62065  -0.61914  -0.60383  -0.58632
 Alpha  occ. eigenvalues --   -0.56302  -0.55180  -0.53672  -0.53435  -0.53002
 Alpha  occ. eigenvalues --   -0.52758  -0.50942  -0.48960  -0.48731  -0.48714
 Alpha  occ. eigenvalues --   -0.47665  -0.46877  -0.46817  -0.44833  -0.44743
 Alpha  occ. eigenvalues --   -0.37240  -0.36273
 Alpha virt. eigenvalues --    0.05126   0.11286   0.16574   0.19364   0.22130
 Alpha virt. eigenvalues --    0.22623   0.25229   0.25387   0.26334   0.27963
 Alpha virt. eigenvalues --    0.29492   0.30153   0.31026   0.31337   0.31858

 Mulliken charges:
               1
     1  C   -0.178312
     2  C   -0.219358
     3  C   -0.170910
     4  C    0.158438
     5  C   -0.172115
     6  C   -0.226343
     7  H    0.233293
     8  H    0.223126
     9  H    0.275210
    10  H    0.275389
    11  H    0.232489
    12  N    0.488061
    13  O   -0.460653
    14  O   -0.460711
    15  C   -0.306751
    16  C   -0.300091
    17  C   -0.478107
    18  H    0.150214
    19  H    0.144716
    20  H    0.156802
    21  H    0.155434
    22  H    0.148287
    23  H    0.157282
    24  H    0.166206
    25  C   -0.297333
    26  C   -0.307020
    27  C   -0.475791
    28  H    0.153994
    29  H    0.153555
    30  H    0.151159
    31  H    0.150526
    32  H    0.158336
    33  H    0.158015
    34  H    0.162961
 Sum of Mulliken charges =  -0.00000

 Dipole moment (field-independent basis, Debye):
    X=             -5.0588    Y=             -2.1359    Z=             -0.1416  Tot=              5.4930
 Quadrupole moment (field-independent basis, Debye-Ang):
   XX=           -122.4649   YY=            -91.3876   ZZ=            -94.3055
   XY=             -8.2896   XZ=              0.6476   YZ=             -1.8244

 Normal termination of Gaussian 16 at Thu May  6 01:33:18 2021.
