 Gaussian 16, Revision A.03,
 Gaussian 16:  EM64L-G16RevA.03 25-Dec-2016

 -------------
 #p 6-31g* mp2
 -------------

 ------------------------------------------------------
 Input file generated by CHIRIPA (05-May-2021 14:55:20)
 ------------------------------------------------------
 Symbolic Z-matrix:
 Charge =  0 Multiplicity = 1

                         Standard orientation:
 ---------------------------------------------------------------------
 Center     Atomic      Atomic             Coordinates (Angstroms)
 Number     Number       Type             X           Y           Z
 ---------------------------------------------------------------------
      1          6           0        2.875049    2.589402    0.216558
      2          6           0        2.082866    1.607755    0.820988
      3          6           0        2.393797    0.252963    0.671290
      4          6           0        3.509144   -0.086100   -0.093123
      5          6           0        4.317871    0.868593   -0.707788
      6          6           0        3.988061    2.217344   -0.544559
      7          1           0        2.626178    3.639491    0.338102
      8          1           0        1.217892    1.893775    1.412645
      9          1           0        1.797682   -0.527596    1.128228
     10          1           0        5.173857    0.552650   -1.291642
     11          1           0        4.605080    2.977545   -1.015119
     12          7           0        3.848305   -1.517160   -0.258763
     13          8           0        4.836215   -1.789852   -0.937226
     14          8           0        3.119809   -2.339036    0.293007
     15          6           0       -3.825453   -0.665875    0.154311
     16          6           0       -2.615447   -0.024596    0.834482
     17          6           0       -1.433754   -0.985709    0.967366
     18          1           0       -4.133647   -1.551165    0.727217
     19          1           0       -3.530037   -1.025083   -0.841226
     20          1           0       -2.913406    0.334534    1.827892
     21          1           0       -2.310215    0.859381    0.259996
     22          1           0       -1.108659   -1.335084   -0.017952
     23          1           0       -1.715276   -1.862914    1.558852
     24          1           0       -0.579702   -0.506722    1.456270
     25          6           0       -5.014857    0.282499    0.014196
     26          6           0       -6.224863   -0.358779   -0.665975
     27          6           0       -7.406556    0.602334   -0.798859
     28          1           0       -5.310272    0.641708    1.009733
     29          1           0       -4.706662    1.167791   -0.558710
     30          1           0       -6.530094   -1.242755   -0.091488
     31          1           0       -5.926903   -0.717908   -1.659384
     32          1           0       -7.125034    1.479540   -1.390345
     33          1           0       -7.731651    0.951710    0.186459
     34          1           0       -8.260608    0.123347   -1.287763
 ---------------------------------------------------------------------

 SCF Done:  E(RHF) =  -669.535270390     A.U. after   15 cycles
 E2 =    -0.2091188854D+01 EUMP2 =    -0.67162645924367D+03

 The electronic state is 1-A.
 Alpha  occ. eigenvalues --  -20.60718 -20.60712 -15.85770 -11.31129 -11.27716
 Alpha  occ. eigenvalues --  -11.27671 -11.27465 -11.26732 -11.26717 -11.22068
 Alpha  occ. eigenvalues --  -11.21796 -11.21696 -11.21627 -11.21588 -11.21248
 Alpha  occ. eigenvalues --   -1.59793  -1.39346  -1.19312  -1.08738  -1.08710
 Alpha  occ. eigenvalues --   -1.04720  -1.03860  -0.96311  -0.95542  -0.87331
 Alpha  occ. eigenvalues --   -0.86113  -0.82377  -0.79926  -0.78536  -0.77422
 Alpha  occ. eigenvalues --   -0.71990  -0.71117  -0.70433  -0.65361  -0.64970
 Alpha  occ. eigenvalues --   -0.64727  -0.62141  -0.61238  -0.59678  -0.57918
 Alpha  occ. eigenvalues --   -0.55570  -0.55226  -0.53165  -0.53011  -0.52744
 Alpha  occ. eigenvalues --   -0.52680  -0.50219  -0.48748  -0.48743  -0.48238
 Alpha  occ. eigenvalues --   -0.46940  -0.46081  -0.45992  -0.44752  -0.44120
 Alpha  occ. eigenvalues --   -0.37300  -0.36312
 Alpha virt. eigenvalues --    0.05105   0.11327   0.16568   0.20191   0.22696
 Alpha virt. eigenvalues --    0.23857   0.25914   0.26387   0.27114   0.28034
 Alpha virt. eigenvalues --    0.28805   0.30182   0.31146   0.31572   0.32216

 Mulliken charges:
               1
     1  C   -0.170848
     2  C   -0.220384
     3  C   -0.175056
     4  C    0.158896
     5  C   -0.170737
     6  C   -0.218931
     7  H    0.225375
     8  H    0.223655
     9  H    0.281546
    10  H    0.275401
    11  H    0.223232
    12  N    0.487994
    13  O   -0.460829
    14  O   -0.460031
    15  C   -0.299127
    16  C   -0.300581
    17  C   -0.476223
    18  H    0.151888
    19  H    0.152004
    20  H    0.151195
    21  H    0.149203
    22  H    0.163156
    23  H    0.161726
    24  H    0.146503
    25  C   -0.298425
    26  C   -0.300021
    27  C   -0.475849
    28  H    0.149255
    29  H    0.148842
    30  H    0.152982
    31  H    0.152981
    32  H    0.154845
    33  H    0.155092
    34  H    0.161270
 Sum of Mulliken charges =  -0.00000

 Dipole moment (field-independent basis, Debye):
    X=             -1.3337    Y=              4.9570    Z=              0.5374  Tot=              5.1614
 Quadrupole moment (field-independent basis, Debye-Ang):
   XX=           -100.8070   YY=            -96.0249   ZZ=            -93.1534
   XY=             19.9754   XZ=             -0.8598   YZ=             -1.5748

 Normal termination of Gaussian 16 at Thu May  6 15:46:34 2021.
