 Gaussian 16, Revision A.03,
 Gaussian 16:  EM64L-G16RevA.03 25-Dec-2016

 -------------
 #p 6-31g* mp2
 -------------

 ------------------------------------------------------
 Input file generated by CHIRIPA (05-May-2021 14:53:13)
 ------------------------------------------------------
 Symbolic Z-matrix:
 Charge =  0 Multiplicity = 1

                         Standard orientation:
 ---------------------------------------------------------------------
 Center     Atomic      Atomic             Coordinates (Angstroms)
 Number     Number       Type             X           Y           Z
 ---------------------------------------------------------------------
      1          6           0        2.628398   -0.402884    0.350827
      2          6           0        2.069481   -1.083909    1.600548
      3          6           0        0.559148   -1.309784    1.525268
      4          1           0        2.118981    0.559753    0.206713
      5          1           0        2.391917   -1.016532   -0.529462
      6          1           0        2.308149   -0.469851    2.478378
      7          1           0        2.580423   -2.044949    1.741811
      8          1           0        0.306343   -1.941184    0.667349
      9          1           0        0.032523   -0.357136    1.408101
     10          1           0        0.180665   -1.797761    2.428866
     11          6           0        4.137037   -0.170275    0.411080
     12          6           0        4.695953    0.510750   -0.838640
     13          6           0        6.206287    0.736625   -0.763361
     14          1           0        4.373517    0.443373    1.291369
     15          1           0        4.646454   -1.132912    0.555194
     16          1           0        4.185011    1.471790   -0.979904
     17          1           0        4.457285   -0.103308   -1.716471
     18          1           0        6.732912   -0.216023   -0.646193
     19          1           0        6.459091    1.368025    0.094559
     20          1           0        6.584769    1.224602   -1.666959
     21          6           0       -2.751635   -2.213958   -0.938683
     22          6           0       -1.714801   -1.408804   -1.421613
     23          6           0       -1.644493   -0.056752   -1.072957
     24          6           0       -2.632221    0.459572   -0.235644
     25          6           0       -3.677692   -0.316905    0.261710
     26          6           0       -3.728050   -1.666405   -0.100041
     27          1           0       -2.798503   -3.263273   -1.214613
     28          1           0       -0.955126   -1.831338   -2.073076
     29          1           0       -0.852794    0.589265   -1.432532
     30          1           0       -4.420452    0.132771    0.909412
     31          1           0       -4.534420   -2.289320    0.276507
     32          7           0       -2.568350    1.889578    0.140393
     33          8           0       -3.450799    2.320420    0.879510
     34          8           0       -1.637046    2.552497   -0.311105
 ---------------------------------------------------------------------

 SCF Done:  E(RHF) =  -669.534260855     A.U. after   15 cycles
 E2 =    -0.2093436425D+01 EUMP2 =    -0.67162769727947D+03

 The electronic state is 1-A.
 Alpha  occ. eigenvalues --  -20.60791 -20.60785 -15.85841 -11.31155 -11.27745
 Alpha  occ. eigenvalues --  -11.27718 -11.27491 -11.26749 -11.26720 -11.21669
 Alpha  occ. eigenvalues --  -11.21661 -11.21547 -11.21446 -11.21099 -11.21062
 Alpha  occ. eigenvalues --   -1.59866  -1.39420  -1.19350  -1.08753  -1.08523
 Alpha  occ. eigenvalues --   -1.04755  -1.03590  -0.96049  -0.95589  -0.87067
 Alpha  occ. eigenvalues --   -0.86155  -0.82424  -0.79666  -0.78359  -0.77469
 Alpha  occ. eigenvalues --   -0.72059  -0.71193  -0.70463  -0.65156  -0.65002
 Alpha  occ. eigenvalues --   -0.64755  -0.62100  -0.60988  -0.59423  -0.57714
 Alpha  occ. eigenvalues --   -0.55343  -0.55257  -0.53449  -0.52845  -0.52717
 Alpha  occ. eigenvalues --   -0.52138  -0.50001  -0.48817  -0.48814  -0.47941
 Alpha  occ. eigenvalues --   -0.46705  -0.45887  -0.45814  -0.44825  -0.43861
 Alpha  occ. eigenvalues --   -0.37301  -0.36238
 Alpha virt. eigenvalues --    0.05053   0.11188   0.16507   0.20899   0.22876
 Alpha virt. eigenvalues --    0.24164   0.26141   0.26462   0.27752   0.28144
 Alpha virt. eigenvalues --    0.28738   0.30292   0.31593   0.31681   0.31926

 Mulliken charges:
               1
     1  C   -0.300179
     2  C   -0.299460
     3  C   -0.476223
     4  H    0.155180
     5  H    0.140865
     6  H    0.154827
     7  H    0.149920
     8  H    0.151083
     9  H    0.158073
    10  H    0.158962
    11  C   -0.297968
    12  C   -0.300259
    13  C   -0.475794
    14  H    0.152253
    15  H    0.148738
    16  H    0.155063
    17  H    0.148848
    18  H    0.154384
    19  H    0.156631
    20  H    0.160630
    21  C   -0.170363
    22  C   -0.217381
    23  C   -0.167539
    24  C    0.158986
    25  C   -0.170931
    26  C   -0.218120
    27  H    0.225462
    28  H    0.223147
    29  H    0.276291
    30  H    0.275509
    31  H    0.223318
    32  N    0.487640
    33  O   -0.460310
    34  O   -0.461282
 Sum of Mulliken charges =  -0.00000

 Dipole moment (field-independent basis, Debye):
    X=             -0.2517    Y=             -4.9807    Z=             -1.2998  Tot=              5.1537
 Quadrupole moment (field-independent basis, Debye-Ang):
   XX=            -91.4119   YY=            -99.3314   ZZ=            -93.0907
   XY=             13.7606   XZ=              1.0739   YZ=              0.7746

 Normal termination of Gaussian 16 at Thu May  6 13:40:54 2021.
