 Gaussian 16, Revision A.03,
 Gaussian 16:  EM64L-G16RevA.03 25-Dec-2016

 -------------
 #p 6-31g* mp2
 -------------

 ------------------------------------------------------
 Input file generated by CHIRIPA (05-May-2021 14:55:24)
 ------------------------------------------------------
 Symbolic Z-matrix:
 Charge =  0 Multiplicity = 1

                         Standard orientation:
 ---------------------------------------------------------------------
 Center     Atomic      Atomic             Coordinates (Angstroms)
 Number     Number       Type             X           Y           Z
 ---------------------------------------------------------------------
      1          6           0        1.064693    1.112327    1.208413
      2          6           0        2.093408    1.814473    0.571815
      3          6           0        3.173340    1.131900    0.004021
      4          6           0        3.192537   -0.259236    0.091548
      5          6           0        2.182801   -0.987145    0.719142
      6          6           0        1.112589   -0.283780    1.279918
      7          1           0        0.229551    1.650642    1.646763
      8          1           0        2.058850    2.898723    0.514776
      9          1           0        3.983148    1.650469   -0.494692
     10          1           0        2.245048   -2.067822    0.760131
     11          1           0        0.315081   -0.831697    1.773693
     12          7           0        4.330667   -0.992852   -0.505835
     13          8           0        4.324111   -2.218577   -0.415325
     14          8           0        5.207740   -0.328243   -1.053262
     15          6           0       -3.588454    0.762732   -0.660231
     16          6           0       -2.666705    1.702016    0.118300
     17          6           0       -2.158930    2.868734   -0.729477
     18          1           0       -3.050850    0.374636   -1.536193
     19          1           0       -4.442842    1.335681   -1.046424
     20          1           0       -1.815021    1.127190    0.504081
     21          1           0       -3.206502    2.087771    0.992616
     22          1           0       -2.996489    3.466841   -1.102792
     23          1           0       -1.597101    2.500803   -1.594103
     24          1           0       -1.501822    3.527562   -0.153271
     25          6           0       -4.104241   -0.408613    0.173820
     26          6           0       -5.025990   -1.347896   -0.604711
     27          6           0       -5.533765   -2.514615    0.243066
     28          1           0       -3.249853   -0.981562    0.560014
     29          1           0       -4.641844   -0.020517    1.049782
     30          1           0       -4.486193   -1.733653   -1.479026
     31          1           0       -5.877674   -0.773072   -0.990492
     32          1           0       -6.095594   -2.146684    1.107692
     33          1           0       -4.696206   -3.112723    0.616382
     34          1           0       -6.190873   -3.173442   -0.333140
 ---------------------------------------------------------------------

 SCF Done:  E(RHF) =  -669.535249305     A.U. after   15 cycles
 E2 =    -0.2092068571D+01 EUMP2 =    -0.67162731787567D+03

 The electronic state is 1-A.
 Alpha  occ. eigenvalues --  -20.60778 -20.60773 -15.85833 -11.31206 -11.27781
 Alpha  occ. eigenvalues --  -11.27774 -11.27484 -11.26794 -11.26773 -11.22539
 Alpha  occ. eigenvalues --  -11.22147 -11.22113 -11.22052 -11.21976 -11.21541
 Alpha  occ. eigenvalues --   -1.59854  -1.39407  -1.19382  -1.09159  -1.08770
 Alpha  occ. eigenvalues --   -1.04784  -1.04251  -0.96685  -0.95605  -0.87698
 Alpha  occ. eigenvalues --   -0.86180  -0.82442  -0.80339  -0.78968  -0.77483
 Alpha  occ. eigenvalues --   -0.72050  -0.71178  -0.70509  -0.65786  -0.65030
 Alpha  occ. eigenvalues --   -0.64781  -0.62131  -0.61640  -0.60091  -0.58318
 Alpha  occ. eigenvalues --   -0.55970  -0.55238  -0.53394  -0.53113  -0.53098
 Alpha  occ. eigenvalues --   -0.52872  -0.50607  -0.48813  -0.48806  -0.48637
 Alpha  occ. eigenvalues --   -0.47350  -0.46501  -0.46409  -0.44812  -0.44503
 Alpha  occ. eigenvalues --   -0.37321  -0.36388
 Alpha virt. eigenvalues --    0.05021   0.11181   0.16438   0.20001   0.22469
 Alpha virt. eigenvalues --    0.23693   0.25127   0.26228   0.26411   0.28272
 Alpha virt. eigenvalues --    0.29020   0.30486   0.30622   0.31133   0.32195

 Mulliken charges:
               1
     1  C   -0.169729
     2  C   -0.220082
     3  C   -0.171020
     4  C    0.158405
     5  C   -0.170937
     6  C   -0.220419
     7  H    0.229909
     8  H    0.223799
     9  H    0.275735
    10  H    0.275616
    11  H    0.223823
    12  N    0.488092
    13  O   -0.460458
    14  O   -0.460333
    15  C   -0.298332
    16  C   -0.305370
    17  C   -0.475455
    18  H    0.153262
    19  H    0.152242
    20  H    0.146389
    21  H    0.151787
    22  H    0.159739
    23  H    0.160497
    24  H    0.152190
    25  C   -0.297831
    26  C   -0.300397
    27  C   -0.475993
    28  H    0.144803
    29  H    0.149937
    30  H    0.153962
    31  H    0.153559
    32  H    0.155420
    33  H    0.154517
    34  H    0.162673
 Sum of Mulliken charges =  -0.00000

 Dipole moment (field-independent basis, Debye):
    X=             -4.1342    Y=              2.5755    Z=              2.0060  Tot=              5.2677
 Quadrupole moment (field-independent basis, Debye-Ang):
   XX=           -119.1030   YY=            -92.9611   ZZ=            -94.7913
   XY=             10.6125   XZ=              5.9918   YZ=             -1.2790

 Normal termination of Gaussian 16 at Thu May  6 04:46:28 2021.
