 Gaussian 16, Revision A.03,
 Gaussian 16:  EM64L-G16RevA.03 25-Dec-2016

 -------------
 #p 6-31g* mp2
 -------------

 ------------------------------------------------------
 Input file generated by CHIRIPA (05-May-2021 14:57:27)
 ------------------------------------------------------
 Symbolic Z-matrix:
 Charge =  0 Multiplicity = 1

                         Standard orientation:
 ---------------------------------------------------------------------
 Center     Atomic      Atomic             Coordinates (Angstroms)
 Number     Number       Type             X           Y           Z
 ---------------------------------------------------------------------
      1          6           0       -6.383040    0.837310    0.307300
      2          6           0       -5.481931    1.374184   -0.618059
      3          6           0       -4.222600    0.795211   -0.800878
      4          6           0       -3.895834   -0.324923   -0.038110
      5          6           0       -4.771772   -0.883051    0.891683
      6          6           0       -6.025715   -0.287611    1.057894
      7          1           0       -7.359226    1.293466    0.442867
      8          1           0       -5.756730    2.247752   -1.202362
      9          1           0       -3.505703    1.190345   -1.510346
     10          1           0       -4.469336   -1.754504    1.459593
     11          1           0       -6.723506   -0.706703    1.777265
     12          7           0       -2.565488   -0.946572   -0.222861
     13          8           0       -2.301671   -1.932874    0.461425
     14          8           0       -1.811771   -0.435749   -1.048456
     15          6           0        1.739529    1.021388   -0.282782
     16          6           0        2.136183   -0.206296   -0.823134
     17          6           0        3.449846   -0.658934   -0.668357
     18          6           0        4.344751    0.145231    0.035740
     19          6           0        3.979886    1.373067    0.585812
     20          6           0        2.661022    1.805768    0.418730
     21          1           0        0.717025    1.365264   -0.407796
     22          1           0        1.422685   -0.817552   -1.368415
     23          1           0        3.783684   -1.605250   -1.076350
     24          1           0        4.713746    1.960307    1.124345
     25          1           0        2.355781    2.759635    0.839457
     26          7           0        5.738220   -0.323404    0.206109
     27          8           0        6.507544    0.403718    0.830667
     28          8           0        6.034712   -1.408968   -0.288140
 ---------------------------------------------------------------------

 SCF Done:  E(RHF) =  -868.340674805     A.U. after   16 cycles
 E2 =    -0.2598499752D+01 EUMP2 =    -0.87093917455752D+03

 The electronic state is 1-A.
 Alpha  occ. eigenvalues --  -20.62012 -20.61948 -20.59941 -20.59929 -15.86990
 Alpha  occ. eigenvalues --  -15.84981 -11.32057 -11.30134 -11.28610 -11.28560
 Alpha  occ. eigenvalues --  -11.28258 -11.27536 -11.27506 -11.26725 -11.26594
 Alpha  occ. eigenvalues --  -11.26227 -11.25699 -11.25395  -1.61029  -1.59018
 Alpha  occ. eigenvalues --   -1.40593  -1.38577  -1.20197  -1.18259  -1.09645
 Alpha  occ. eigenvalues --   -1.07665  -1.05553  -1.03622  -0.96531  -0.94548
 Alpha  occ. eigenvalues --   -0.86964  -0.85005  -0.83376  -0.81391  -0.78458
 Alpha  occ. eigenvalues --   -0.76488  -0.73231  -0.72325  -0.71296  -0.71204
 Alpha  occ. eigenvalues --   -0.70338  -0.69302  -0.65852  -0.65548  -0.63889
 Alpha  occ. eigenvalues --   -0.63573  -0.62904  -0.60964  -0.56055  -0.54050
 Alpha  occ. eigenvalues --   -0.53892  -0.53637  -0.51978  -0.51683  -0.49993
 Alpha  occ. eigenvalues --   -0.49940  -0.47973  -0.47937  -0.46054  -0.44031
 Alpha  occ. eigenvalues --   -0.38153  -0.37143  -0.36199  -0.35234
 Alpha virt. eigenvalues --    0.04028   0.06021   0.10516   0.12431   0.15568
 Alpha virt. eigenvalues --    0.17593   0.20670   0.22709   0.26616   0.27468
 Alpha virt. eigenvalues --    0.28582   0.29386   0.30432   0.31704   0.32515

 Mulliken charges:
               1
     1  C   -0.169650
     2  C   -0.218392
     3  C   -0.171456
     4  C    0.157514
     5  C   -0.170090
     6  C   -0.218444
     7  H    0.228558
     8  H    0.225486
     9  H    0.273273
    10  H    0.277518
    11  H    0.226458
    12  N    0.490275
    13  O   -0.453497
    14  O   -0.473423
    15  C   -0.173192
    16  C   -0.220105
    17  C   -0.173152
    18  C    0.157760
    19  C   -0.173038
    20  C   -0.219576
    21  H    0.232191
    22  H    0.240874
    23  H    0.273441
    24  H    0.271213
    25  H    0.217532
    26  N    0.488213
    27  O   -0.464093
    28  O   -0.462200
 Sum of Mulliken charges =  -0.00000

 Dipole moment (field-independent basis, Debye):
    X=            -10.2973    Y=              3.6816    Z=              0.0434  Tot=             10.9357
 Quadrupole moment (field-independent basis, Debye-Ang):
   XX=           -111.7985   YY=           -100.6339   ZZ=           -102.2721
   XY=              0.9143   XZ=             -6.0478   YZ=             -0.7737

 Normal termination of Gaussian 16 at Thu May  6 19:49:13 2021.
