 Gaussian 16, Revision A.03,
 Gaussian 16:  EM64L-G16RevA.03 25-Dec-2016

 -------------
 #p 6-31g* mp2
 -------------

 ------------------------------------------------------
 Input file generated by CHIRIPA (05-May-2021 14:53:12)
 ------------------------------------------------------
 Symbolic Z-matrix:
 Charge =  0 Multiplicity = 1

                         Standard orientation:
 ---------------------------------------------------------------------
 Center     Atomic      Atomic             Coordinates (Angstroms)
 Number     Number       Type             X           Y           Z
 ---------------------------------------------------------------------
      1          6           0       -3.783336   -0.170453    0.174095
      2          6           0       -3.233747   -0.634593    1.523358
      3          6           0       -1.711714   -0.519684    1.612845
      4          1           0       -3.321653   -0.764332   -0.626593
      5          1           0       -3.482729    0.872463    0.002755
      6          1           0       -3.536470   -1.675884    1.692730
      7          1           0       -3.696934   -0.039669    2.320941
      8          1           0       -1.394665    0.518369    1.469575
      9          1           0       -1.233289   -1.127143    0.837794
     10          1           0       -1.340161   -0.856720    2.585581
     11          6           0       -5.303500   -0.279307    0.069317
     12          6           0       -5.853089    0.184833   -1.279946
     13          6           0       -7.375121    0.069924   -1.369433
     14          1           0       -5.604106   -1.322223    0.240658
     15          1           0       -5.765183    0.314573    0.870005
     16          1           0       -5.389901   -0.410091   -2.077529
     17          1           0       -5.550366    1.226125   -1.449318
     18          1           0       -7.853547    0.677383   -0.594382
     19          1           0       -7.692171   -0.968129   -1.226163
     20          1           0       -7.746675    0.406960   -2.342169
     21          6           0        2.053982    2.070761    0.638343
     22          6           0        3.122968    2.318160   -0.229174
     23          6           0        3.958118    1.275789   -0.642134
     24          6           0        3.694131   -0.007521   -0.165988
     25          6           0        2.637040   -0.285865    0.699098
     26          6           0        1.814852    0.771828    1.098898
     27          1           0        1.410253    2.886451    0.954028
     28          1           0        3.311061    3.325925   -0.588446
     29          1           0        4.792719    1.439209   -1.313069
     30          1           0        2.474620   -1.301028    1.040393
     31          1           0        0.985400    0.576748    1.772692
     32          7           0        4.571405   -1.119144   -0.596205
     33          8           0        4.317657   -2.240815   -0.162498
     34          8           0        5.496150   -0.847712   -1.358968
 ---------------------------------------------------------------------

 SCF Done:  E(RHF) =  -669.535259051     A.U. after   15 cycles
 E2 =    -0.2091238853D+01 EUMP2 =    -0.67162649790393D+03

 The electronic state is 1-A.
 Alpha  occ. eigenvalues --  -20.60702 -20.60697 -15.85753 -11.31099 -11.27662
 Alpha  occ. eigenvalues --  -11.27635 -11.27393 -11.26689 -11.26581 -11.22335
 Alpha  occ. eigenvalues --  -11.22124 -11.21976 -11.21960 -11.21818 -11.21375
 Alpha  occ. eigenvalues --   -1.59778  -1.39332  -1.19262  -1.08981  -1.08664
 Alpha  occ. eigenvalues --   -1.04660  -1.04123  -0.96608  -0.95504  -0.87654
 Alpha  occ. eigenvalues --   -0.86051  -0.82334  -0.80211  -0.78760  -0.77375
 Alpha  occ. eigenvalues --   -0.71972  -0.71100  -0.70379  -0.65613  -0.64912
 Alpha  occ. eigenvalues --   -0.64673  -0.62037  -0.61502  -0.59984  -0.58182
 Alpha  occ. eigenvalues --   -0.55901  -0.55172  -0.53428  -0.53142  -0.52945
 Alpha  occ. eigenvalues --   -0.52552  -0.50531  -0.48739  -0.48729  -0.48482
 Alpha  occ. eigenvalues --   -0.47205  -0.46307  -0.46210  -0.44742  -0.44366
 Alpha  occ. eigenvalues --   -0.37246  -0.36247
 Alpha virt. eigenvalues --    0.05135   0.11350   0.16612   0.20834   0.22406
 Alpha virt. eigenvalues --    0.23831   0.25886   0.26056   0.27024   0.27940
 Alpha virt. eigenvalues --    0.28848   0.30115   0.30727   0.31410   0.31980

 Mulliken charges:
               1
     1  C   -0.298889
     2  C   -0.299983
     3  C   -0.482014
     4  H    0.152270
     5  H    0.148057
     6  H    0.155959
     7  H    0.153110
     8  H    0.147898
     9  H    0.161046
    10  H    0.159222
    11  C   -0.298896
    12  C   -0.300012
    13  C   -0.476016
    14  H    0.151181
    15  H    0.149803
    16  H    0.153300
    17  H    0.151437
    18  H    0.155240
    19  H    0.156157
    20  H    0.161378
    21  C   -0.173284
    22  C   -0.218223
    23  C   -0.171575
    24  C    0.158807
    25  C   -0.174218
    26  C   -0.221598
    27  H    0.224656
    28  H    0.222862
    29  H    0.275156
    30  H    0.275238
    31  H    0.235296
    32  N    0.488067
    33  O   -0.460678
    34  O   -0.460756
 Sum of Mulliken charges =  -0.00000

 Dipole moment (field-independent basis, Debye):
    X=             -3.3065    Y=              3.8603    Z=              1.4939  Tot=              5.2978
 Quadrupole moment (field-independent basis, Debye-Ang):
   XX=           -117.4126   YY=            -92.2474   ZZ=            -94.3221
   XY=             16.6153   XZ=              4.2179   YZ=             -2.3753

 Normal termination of Gaussian 16 at Wed May  5 18:32:02 2021.
