 Gaussian 16, Revision A.03,
 Gaussian 16:  EM64L-G16RevA.03 25-Dec-2016

 -------------
 #p 6-31g* mp2
 -------------

 ------------------------------------------------------
 Input file generated by CHIRIPA (05-May-2021 14:55:24)
 ------------------------------------------------------
 Symbolic Z-matrix:
 Charge =  0 Multiplicity = 1

                         Standard orientation:
 ---------------------------------------------------------------------
 Center     Atomic      Atomic             Coordinates (Angstroms)
 Number     Number       Type             X           Y           Z
 ---------------------------------------------------------------------
      1          6           0        0.844715   -0.999731    0.605249
      2          6           0        1.650284   -0.488257    1.627978
      3          6           0        2.910365    0.044521    1.340068
      4          6           0        3.335295    0.049950    0.012403
      5          6           0        2.555890   -0.452201   -1.028588
      6          6           0        1.299287   -0.980105   -0.717437
      7          1           0       -0.132795   -1.411712    0.837932
      8          1           0        1.299845   -0.502192    2.656103
      9          1           0        3.554485    0.447055    2.112399
     10          1           0        2.932486   -0.424544   -2.043885
     11          1           0        0.675817   -1.376634   -1.513738
     12          7           0        4.667446    0.611398   -0.304696
     13          8           0        5.018795    0.604559   -1.482467
     14          8           0        5.335011    1.047669    0.630537
     15          6           0       -4.195942   -0.677887   -0.144838
     16          6           0       -3.024497   -1.652980   -0.022777
     17          6           0       -3.456137   -3.114330   -0.149027
     18          1           0       -4.940178   -0.910060    0.629212
     19          1           0       -4.692978   -0.832072   -1.112607
     20          1           0       -2.528972   -1.496056    0.943890
     21          1           0       -2.282875   -1.418337   -0.797086
     22          1           0       -3.931524   -3.293191   -1.118881
     23          1           0       -4.179019   -3.371351    0.631986
     24          1           0       -2.603140   -3.794120   -0.058798
     25          6           0       -3.780355    0.786901   -0.020703
     26          6           0       -4.951800    1.761994   -0.142764
     27          6           0       -4.520160    3.223343   -0.016514
     28          1           0       -3.283319    0.941086    0.947066
     29          1           0       -3.036119    1.019074   -0.794754
     30          1           0       -5.693422    1.527351    0.631544
     31          1           0       -5.447326    1.605069   -1.109432
     32          1           0       -3.797279    3.480365   -0.797528
     33          1           0       -4.044774    3.402205    0.953340
     34          1           0       -5.373156    3.903134   -0.106744
 ---------------------------------------------------------------------

 SCF Done:  E(RHF) =  -669.535338038     A.U. after   15 cycles
 E2 =    -0.2091590091D+01 EUMP2 =    -0.67162692812906D+03

 The electronic state is 1-A.
 Alpha  occ. eigenvalues --  -20.60697 -20.60692 -15.85751 -11.31092 -11.27673
 Alpha  occ. eigenvalues --  -11.27669 -11.27318 -11.26664 -11.26652 -11.22972
 Alpha  occ. eigenvalues --  -11.22358 -11.22234 -11.22181 -11.22164 -11.21562
 Alpha  occ. eigenvalues --   -1.59774  -1.39328  -1.19263  -1.09364  -1.08651
 Alpha  occ. eigenvalues --   -1.04670  -1.04438  -0.96834  -0.95494  -0.87853
 Alpha  occ. eigenvalues --   -0.86064  -0.82343  -0.80576  -0.79144  -0.77390
 Alpha  occ. eigenvalues --   -0.71969  -0.71097  -0.70357  -0.65990  -0.64912
 Alpha  occ. eigenvalues --   -0.64682  -0.62034  -0.61821  -0.60260  -0.58464
 Alpha  occ. eigenvalues --   -0.56097  -0.55158  -0.53544  -0.53244  -0.52993
 Alpha  occ. eigenvalues --   -0.52761  -0.50776  -0.48834  -0.48726  -0.48712
 Alpha  occ. eigenvalues --   -0.47605  -0.46659  -0.46570  -0.44739  -0.44672
 Alpha  occ. eigenvalues --   -0.37222  -0.36283
 Alpha virt. eigenvalues --    0.05149   0.11352   0.16632   0.19731   0.22404
 Alpha virt. eigenvalues --    0.23807   0.24418   0.25767   0.27057   0.27505
 Alpha virt. eigenvalues --    0.29220   0.29606   0.30801   0.31416   0.31682

 Mulliken charges:
               1
     1  C   -0.175208
     2  C   -0.221230
     3  C   -0.170588
     4  C    0.157977
     5  C   -0.170785
     6  C   -0.223407
     7  H    0.237985
     8  H    0.222873
     9  H    0.275157
    10  H    0.275120
    11  H    0.223298
    12  N    0.488063
    13  O   -0.460816
    14  O   -0.460745
    15  C   -0.297393
    16  C   -0.306699
    17  C   -0.476519
    18  H    0.152882
    19  H    0.153093
    20  H    0.146272
    21  H    0.148074
    22  H    0.159875
    23  H    0.159735
    24  H    0.158873
    25  C   -0.299138
    26  C   -0.300417
    27  C   -0.476218
    28  H    0.148292
    29  H    0.150526
    30  H    0.152967
    31  H    0.153362
    32  H    0.156654
    33  H    0.155634
    34  H    0.162452
 Sum of Mulliken charges =  -0.00000

 Dipole moment (field-independent basis, Debye):
    X=             -4.9934    Y=             -1.9522    Z=              1.0923  Tot=              5.4716
 Quadrupole moment (field-independent basis, Debye-Ang):
   XX=           -125.7804   YY=            -96.4623   ZZ=            -89.0527
   XY=             -6.8008   XZ=              4.4457   YZ=              1.0656

 Normal termination of Gaussian 16 at Wed May  5 16:04:41 2021.
