 Gaussian 16, Revision A.03,
 Gaussian 16:  EM64L-G16RevA.03 25-Dec-2016

 -------------
 #p 6-31g* mp2
 -------------

 ------------------------------------------------------
 Input file generated by CHIRIPA (05-May-2021 14:55:18)
 ------------------------------------------------------
 Symbolic Z-matrix:
 Charge =  0 Multiplicity = 1

                         Standard orientation:
 ---------------------------------------------------------------------
 Center     Atomic      Atomic             Coordinates (Angstroms)
 Number     Number       Type             X           Y           Z
 ---------------------------------------------------------------------
      1          6           0        5.223307   -0.939027   -0.680618
      2          6           0        5.115050    0.312891   -0.066205
      3          6           0        3.880599    0.766841    0.407722
      4          6           0        2.769962   -0.060740    0.249972
      5          6           0        2.845655   -1.313022   -0.357770
      6          6           0        4.090261   -1.746564   -0.824186
      7          1           0        6.186203   -1.283739   -1.045858
      8          1           0        5.993301    0.942163    0.046652
      9          1           0        3.768408    1.731653    0.887273
     10          1           0        1.952390   -1.917885   -0.455937
     11          1           0        4.171360   -2.719279   -1.300939
     12          7           0        1.457728    0.409034    0.747722
     13          8           0        0.494266   -0.338999    0.596641
     14          8           0        1.417508    1.516381    1.279513
     15          6           0       -3.781955   -0.583471   -0.154059
     16          6           0       -5.120161   -1.235849    0.194644
     17          6           0       -5.023134   -2.757154    0.313011
     18          1           0       -3.411871   -1.003368   -1.099399
     19          1           0       -3.042542   -0.845903    0.615220
     20          1           0       -5.857192   -0.971130   -0.574333
     21          1           0       -5.487196   -0.814210    1.139166
     22          1           0       -4.308560   -3.038037    1.093452
     23          1           0       -4.680658   -3.195848   -0.629782
     24          1           0       -5.990983   -3.202937    0.562823
     25          6           0       -3.862803    0.937172   -0.275859
     26          6           0       -2.524597    1.589550   -0.624562
     27          6           0       -2.621624    3.110855   -0.742929
     28          1           0       -4.602217    1.199604   -1.045140
     29          1           0       -4.232888    1.357070    0.669481
     30          1           0       -2.157562    1.167912   -1.569085
     31          1           0       -1.787566    1.324831    0.144414
     32          1           0       -2.964100    3.549549    0.199864
     33          1           0       -3.336198    3.391738   -1.523371
     34          1           0       -1.653775    3.556638   -0.992741
 ---------------------------------------------------------------------

 SCF Done:  E(RHF) =  -669.536616083     A.U. after   15 cycles
 E2 =    -0.2091471993D+01 EUMP2 =    -0.67162808807635D+03

 The electronic state is 1-A.
 Alpha  occ. eigenvalues --  -20.61052 -20.61030 -15.86047 -11.31343 -11.27898
 Alpha  occ. eigenvalues --  -11.27894 -11.27631 -11.26897 -11.26888 -11.20669
 Alpha  occ. eigenvalues --  -11.20320 -11.20144 -11.20075 -11.19880 -11.19748
 Alpha  occ. eigenvalues --   -1.60086  -1.39642  -1.19505  -1.08916  -1.07182
 Alpha  occ. eigenvalues --   -1.04895  -1.02331  -0.95762  -0.94832  -0.86297
 Alpha  occ. eigenvalues --   -0.85857  -0.82597  -0.78398  -0.77654  -0.76937
 Alpha  occ. eigenvalues --   -0.72259  -0.71390  -0.70613  -0.65159  -0.64899
 Alpha  occ. eigenvalues --   -0.63815  -0.62241  -0.59730  -0.58216  -0.56418
 Alpha  occ. eigenvalues --   -0.55402  -0.54135  -0.53229  -0.52986  -0.51559
 Alpha  occ. eigenvalues --   -0.51255  -0.49133  -0.49024  -0.48765  -0.46708
 Alpha  occ. eigenvalues --   -0.45409  -0.45080  -0.44511  -0.44238  -0.42577
 Alpha  occ. eigenvalues --   -0.37481  -0.36494
 Alpha virt. eigenvalues --    0.04862   0.11162   0.16367   0.21299   0.24050
 Alpha virt. eigenvalues --    0.25451   0.27222   0.27870   0.28148   0.28821
 Alpha virt. eigenvalues --    0.29123   0.30882   0.32422   0.32506   0.32952

 Mulliken charges:
               1
     1  C   -0.170456
     2  C   -0.218621
     3  C   -0.170717
     4  C    0.158777
     5  C   -0.170686
     6  C   -0.218604
     7  H    0.226177
     8  H    0.223986
     9  H    0.275944
    10  H    0.276161
    11  H    0.224044
    12  N    0.488905
    13  O   -0.459199
    14  O   -0.459676
    15  C   -0.299164
    16  C   -0.298781
    17  C   -0.474777
    18  H    0.145413
    19  H    0.161668
    20  H    0.148447
    21  H    0.150607
    22  H    0.155679
    23  H    0.152487
    24  H    0.156663
    25  C   -0.297435
    26  C   -0.309438
    27  C   -0.473819
    28  H    0.142669
    29  H    0.147311
    30  H    0.143857
    31  H    0.183040
    32  H    0.153545
    33  H    0.147433
    34  H    0.158560
 Sum of Mulliken charges =  -0.00000

 Dipole moment (field-independent basis, Debye):
    X=              5.0465    Y=             -1.7126    Z=             -1.5969  Tot=              5.5633
 Quadrupole moment (field-independent basis, Debye-Ang):
   XX=            -70.1399   YY=            -92.9809   ZZ=            -95.1644
   XY=             -2.8812   XZ=             -3.3491   YZ=              1.8188

 Normal termination of Gaussian 16 at Thu May  6 14:00:36 2021.
