 Gaussian 16, Revision A.03,
 Gaussian 16:  EM64L-G16RevA.03 25-Dec-2016

 -------------
 #p 6-31g* mp2
 -------------

 ------------------------------------------------------
 Input file generated by CHIRIPA (05-May-2021 14:53:11)
 ------------------------------------------------------
 Symbolic Z-matrix:
 Charge =  0 Multiplicity = 1

                         Standard orientation:
 ---------------------------------------------------------------------
 Center     Atomic      Atomic             Coordinates (Angstroms)
 Number     Number       Type             X           Y           Z
 ---------------------------------------------------------------------
      1          6           0       -5.043891    0.404578   -0.063276
      2          6           0       -6.446837    0.184930   -0.630270
      3          6           0       -7.389927    1.353806   -0.343733
      4          1           0       -5.114431    0.563227    1.021528
      5          1           0       -4.624862    1.327509   -0.487550
      6          1           0       -6.862551   -0.738047   -0.206110
      7          1           0       -6.372930    0.026595   -1.713821
      8          1           0       -7.000897    2.278882   -0.781331
      9          1           0       -7.493300    1.509895    0.734947
     10          1           0       -8.387251    1.175804   -0.757883
     11          6           0       -4.089533   -0.755359   -0.341620
     12          6           0       -2.686587   -0.535711    0.225374
     13          6           0       -1.743496   -1.704587   -0.061162
     14          1           0       -4.508561   -1.678290    0.082655
     15          1           0       -4.018992   -0.914008   -1.426424
     16          1           0       -2.760493   -0.377376    1.308926
     17          1           0       -2.270872    0.387266   -0.198785
     18          1           0       -1.640124   -1.860676   -1.139843
     19          1           0       -2.132527   -2.629663    0.376435
     20          1           0       -0.746173   -1.526585    0.352988
     21          6           0        5.342738    0.418329   -1.612765
     22          6           0        4.734156   -0.826749   -1.423217
     23          6           0        3.749506   -0.994180   -0.444962
     24          6           0        3.396143    0.109829    0.329369
     25          6           0        3.984068    1.363014    0.164570
     26          6           0        4.966415    1.507317   -0.819666
     27          1           0        6.106743    0.539411   -2.375020
     28          1           0        5.024417   -1.674231   -2.037683
     29          1           0        3.262108   -1.946887   -0.276997
     30          1           0        3.673694    2.189287    0.792550
     31          1           0        5.437345    2.475434   -0.964647
     32          7           0        2.354959   -0.055181    1.368168
     33          8           0        2.061398    0.933104    2.037311
     34          8           0        1.852152   -1.169676    1.493568
 ---------------------------------------------------------------------

 SCF Done:  E(RHF) =  -669.536377849     A.U. after   15 cycles
 E2 =    -0.2090764911D+01 EUMP2 =    -0.67162714276058D+03

 The electronic state is 1-A.
 Alpha  occ. eigenvalues --  -20.60976 -20.60970 -15.85994 -11.31292 -11.27855
 Alpha  occ. eigenvalues --  -11.27849 -11.27591 -11.26858 -11.26848 -11.21137
 Alpha  occ. eigenvalues --  -11.20794 -11.20681 -11.20678 -11.20620 -11.19884
 Alpha  occ. eigenvalues --   -1.60028  -1.39585  -1.19460  -1.08869  -1.07756
 Alpha  occ. eigenvalues --   -1.04853  -1.02801  -0.95715  -0.95247  -0.86271
 Alpha  occ. eigenvalues --   -0.86252  -0.82548  -0.78886  -0.77605  -0.77549
 Alpha  occ. eigenvalues --   -0.72217  -0.71337  -0.70570  -0.65116  -0.64857
 Alpha  occ. eigenvalues --   -0.64397  -0.62200  -0.60213  -0.58624  -0.56830
 Alpha  occ. eigenvalues --   -0.55361  -0.54560  -0.53188  -0.52945  -0.51903
 Alpha  occ. eigenvalues --   -0.51677  -0.49226  -0.48983  -0.48966  -0.47195
 Alpha  occ. eigenvalues --   -0.45944  -0.45108  -0.45021  -0.44970  -0.43006
 Alpha  occ. eigenvalues --   -0.37438  -0.36453
 Alpha virt. eigenvalues --    0.04882   0.11202   0.16354   0.21327   0.23497
 Alpha virt. eigenvalues --    0.25090   0.27250   0.27286   0.28080   0.28176
 Alpha virt. eigenvalues --    0.28841   0.30819   0.32074   0.32227   0.32439

 Mulliken charges:
               1
     1  C   -0.297702
     2  C   -0.299050
     3  C   -0.475317
     4  H    0.150410
     5  H    0.148279
     6  H    0.151389
     7  H    0.150350
     8  H    0.154333
     9  H    0.155313
    10  H    0.158594
    11  C   -0.297514
    12  C   -0.298028
    13  C   -0.486787
    14  H    0.148341
    15  H    0.146279
    16  H    0.156229
    17  H    0.148942
    18  H    0.145526
    19  H    0.152153
    20  H    0.182827
    21  C   -0.170530
    22  C   -0.218597
    23  C   -0.170586
    24  C    0.158234
    25  C   -0.170759
    26  C   -0.218619
    27  H    0.226006
    28  H    0.223945
    29  H    0.276266
    30  H    0.275830
    31  H    0.223802
    32  N    0.488240
    33  O   -0.458181
    34  O   -0.459619
 Sum of Mulliken charges =  -0.00000

 Dipole moment (field-independent basis, Debye):
    X=              3.9615    Y=              0.6120    Z=             -3.5489  Tot=              5.3538
 Quadrupole moment (field-independent basis, Debye-Ang):
   XX=            -71.7752   YY=            -90.5303   ZZ=            -96.8256
   XY=              3.6708   XZ=            -11.8734   YZ=              0.6013

 Normal termination of Gaussian 16 at Wed May  5 23:18:05 2021.
