 Gaussian 16, Revision A.03,
 Gaussian 16:  EM64L-G16RevA.03 25-Dec-2016

 -------------
 #p 6-31g* mp2
 -------------

 ------------------------------------------------------
 Input file generated by CHIRIPA (05-May-2021 14:53:16)
 ------------------------------------------------------
 Symbolic Z-matrix:
 Charge =  0 Multiplicity = 1

                         Standard orientation:
 ---------------------------------------------------------------------
 Center     Atomic      Atomic             Coordinates (Angstroms)
 Number     Number       Type             X           Y           Z
 ---------------------------------------------------------------------
      1          6           0       -2.644837   -1.059374    0.136256
      2          6           0       -1.822389   -1.491879    1.350547
      3          6           0       -0.825187   -2.603816    1.023471
      4          1           0       -3.182452   -1.930082   -0.263471
      5          1           0       -1.964168   -0.721002   -0.657211
      6          1           0       -2.504468   -1.828032    2.141992
      7          1           0       -1.286819   -0.620000    1.747545
      8          1           0       -0.121732   -2.275581    0.251452
      9          1           0       -1.346300   -3.490478    0.648139
     10          1           0       -0.247905   -2.897639    1.905669
     11          6           0       -3.646223    0.051561    0.447348
     12          6           0       -4.468670    0.484066   -0.766944
     13          6           0       -5.465872    1.596004   -0.439867
     14          1           0       -4.326891   -0.286810    1.240815
     15          1           0       -3.108607    0.922270    0.847075
     16          1           0       -5.004240   -0.387813   -1.163942
     17          1           0       -3.786591    0.820220   -1.558388
     18          1           0       -4.944760    2.482665   -0.064536
     19          1           0       -6.169327    1.267769    0.332152
     20          1           0       -6.043155    1.889827   -1.322065
     21          6           0        2.236716    2.771397    0.586674
     22          6           0        3.182155    1.918167    1.165177
     23          6           0        3.313219    0.598790    0.721767
     24          6           0        2.478784    0.163807   -0.306726
     25          6           0        1.527297    0.989741   -0.903211
     26          6           0        1.413755    2.305283   -0.443857
     27          1           0        2.141709    3.794832    0.937318
     28          1           0        3.822618    2.277437    1.965662
     29          1           0        4.036742   -0.083071    1.151882
     30          1           0        0.902980    0.602933   -1.699469
     31          1           0        0.678634    2.965678   -0.894989
     32          7           0        2.608260   -1.230928   -0.784585
     33          8           0        1.861194   -1.589942   -1.692130
     34          8           0        3.454359   -1.938698   -0.242537
 ---------------------------------------------------------------------

 SCF Done:  E(RHF) =  -669.536140183     A.U. after   15 cycles
 E2 =    -0.2092092128D+01 EUMP2 =    -0.67162823231119D+03

 The electronic state is 1-A.
 Alpha  occ. eigenvalues --  -20.60949 -20.60937 -15.85959 -11.31298 -11.27869
 Alpha  occ. eigenvalues --  -11.27853 -11.27595 -11.26874 -11.26861 -11.21694
 Alpha  occ. eigenvalues --  -11.21399 -11.21310 -11.21219 -11.21207 -11.20407
 Alpha  occ. eigenvalues --   -1.59999  -1.39556  -1.19466  -1.08867  -1.08341
 Alpha  occ. eigenvalues --   -1.04864  -1.03380  -0.95811  -0.95707  -0.86819
 Alpha  occ. eigenvalues --   -0.86263  -0.82541  -0.79458  -0.78133  -0.77594
 Alpha  occ. eigenvalues --   -0.72186  -0.71325  -0.70573  -0.65121  -0.64990
 Alpha  occ. eigenvalues --   -0.64861  -0.62212  -0.60784  -0.59208  -0.57414
 Alpha  occ. eigenvalues --   -0.55366  -0.55101  -0.53192  -0.52956  -0.52492
 Alpha  occ. eigenvalues --   -0.52214  -0.49761  -0.48954  -0.48941  -0.47764
 Alpha  occ. eigenvalues --   -0.46536  -0.45695  -0.45633  -0.44823  -0.43644
 Alpha  occ. eigenvalues --   -0.37441  -0.36462
 Alpha virt. eigenvalues --    0.04906   0.11142   0.16387   0.20968   0.22824
 Alpha virt. eigenvalues --    0.24299   0.25941   0.27180   0.27537   0.28183
 Alpha virt. eigenvalues --    0.28767   0.30628   0.31602   0.31829   0.32100

 Mulliken charges:
               1
     1  C   -0.297193
     2  C   -0.300196
     3  C   -0.482460
     4  H    0.152054
     5  H    0.147437
     6  H    0.150232
     7  H    0.147721
     8  H    0.166335
     9  H    0.156584
    10  H    0.159003
    11  C   -0.297888
    12  C   -0.298816
    13  C   -0.475270
    14  H    0.150194
    15  H    0.145383
    16  H    0.154199
    17  H    0.148397
    18  H    0.152178
    19  H    0.156207
    20  H    0.160290
    21  C   -0.170639
    22  C   -0.218478
    23  C   -0.170556
    24  C    0.158313
    25  C   -0.172371
    26  C   -0.218644
    27  H    0.226081
    28  H    0.223938
    29  H    0.275988
    30  H    0.276139
    31  H    0.223870
    32  N    0.487990
    33  O   -0.458780
    34  O   -0.457240
 Sum of Mulliken charges =  -0.00000

 Dipole moment (field-independent basis, Debye):
    X=             -0.3162    Y=              4.8424    Z=              1.6487  Tot=              5.1251
 Quadrupole moment (field-independent basis, Debye-Ang):
   XX=            -94.7218   YY=            -93.5690   ZZ=            -94.1538
   XY=             12.8118   XZ=              7.2182   YZ=             -1.8946

 Normal termination of Gaussian 16 at Thu May  6 20:29:11 2021.
