 Gaussian 16, Revision A.03,
 Gaussian 16:  EM64L-G16RevA.03 25-Dec-2016

 -------------
 #p 6-31g* mp2
 -------------

 ------------------------------------------------------
 Input file generated by CHIRIPA (05-May-2021 14:57:26)
 ------------------------------------------------------
 Symbolic Z-matrix:
 Charge =  0 Multiplicity = 1

                         Standard orientation:
 ---------------------------------------------------------------------
 Center     Atomic      Atomic             Coordinates (Angstroms)
 Number     Number       Type             X           Y           Z
 ---------------------------------------------------------------------
      1          6           0       -1.716260   -1.111663   -1.338419
      2          6           0       -1.605305    0.019900   -0.523694
      3          6           0       -2.725728    0.530844    0.138226
      4          6           0       -3.947107   -0.117634   -0.037836
      5          6           0       -4.089747   -1.246781   -0.842803
      6          6           0       -2.955941   -1.740283   -1.495097
      7          1           0       -0.840691   -1.501802   -1.848876
      8          1           0       -0.643824    0.510145   -0.400170
      9          1           0       -2.668148    1.405323    0.774927
     10          1           0       -5.061595   -1.713877   -0.946485
     11          1           0       -3.045079   -2.619231   -2.127197
     12          7           0       -5.140332    0.414047    0.657814
     13          8           0       -6.205060   -0.175502    0.486281
     14          8           0       -4.988261    1.410261    1.361426
     15          6           0        4.758023   -1.970467    0.937934
     16          6           0        5.355957   -1.259260   -0.107619
     17          6           0        4.806371   -0.052656   -0.551024
     18          6           0        3.653040    0.415603    0.076553
     19          6           0        3.034031   -0.269937    1.120657
     20          6           0        3.601008   -1.474410    1.547660
     21          1           0        5.191709   -2.906958    1.276012
     22          1           0        6.254563   -1.642102   -0.582997
     23          1           0        5.248738    0.518277   -1.358344
     24          1           0        2.138810    0.137014    1.574957
     25          1           0        3.134492   -2.024609    2.359872
     26          7           0        3.062014    1.691853   -0.384178
     27          8           0        2.045461    2.083017    0.185250
     28          8           0        3.626510    2.276847   -1.306004
 ---------------------------------------------------------------------

 SCF Done:  E(RHF) =  -868.339334140     A.U. after   16 cycles
 E2 =    -0.2598861499D+01 EUMP2 =    -0.87093819563973D+03

 The electronic state is 1-A.
 Alpha  occ. eigenvalues --  -20.61795 -20.61734 -20.60458 -20.60447 -15.86784
 Alpha  occ. eigenvalues --  -15.85504 -11.32002 -11.30822 -11.28559 -11.28521
 Alpha  occ. eigenvalues --  -11.28226 -11.27510 -11.27495 -11.27409 -11.27308
 Alpha  occ. eigenvalues --  -11.27120 -11.26443 -11.26246  -1.60820  -1.59532
 Alpha  occ. eigenvalues --   -1.40381  -1.39086  -1.20153  -1.18982  -1.09569
 Alpha  occ. eigenvalues --   -1.08394  -1.05525  -1.04358  -0.96428  -0.95238
 Alpha  occ. eigenvalues --   -0.86928  -0.85764  -0.83261  -0.82054  -0.78338
 Alpha  occ. eigenvalues --   -0.77102  -0.72998  -0.72134  -0.71723  -0.71242
 Alpha  occ. eigenvalues --   -0.70855  -0.70106  -0.65799  -0.65511  -0.64628
 Alpha  occ. eigenvalues --   -0.64333  -0.62870  -0.61684  -0.56012  -0.54891
 Alpha  occ. eigenvalues --   -0.53872  -0.53603  -0.52720  -0.52426  -0.49771
 Alpha  occ. eigenvalues --   -0.49738  -0.48482  -0.48476  -0.45798  -0.44501
 Alpha  occ. eigenvalues --   -0.38120  -0.37129  -0.36986  -0.35967
 Alpha virt. eigenvalues --    0.04136   0.05399   0.10504   0.11673   0.15642
 Alpha virt. eigenvalues --    0.16900   0.20566   0.21878   0.26226   0.27078
 Alpha virt. eigenvalues --    0.28299   0.28662   0.30119   0.31082   0.32317

 Mulliken charges:
               1
     1  C   -0.172334
     2  C   -0.227950
     3  C   -0.172741
     4  C    0.158401
     5  C   -0.172303
     6  C   -0.218645
     7  H    0.223433
     8  H    0.238416
     9  H    0.278579
    10  H    0.274007
    11  H    0.221039
    12  N    0.487961
    13  O   -0.462114
    14  O   -0.459786
    15  C   -0.170520
    16  C   -0.218517
    17  C   -0.171083
    18  C    0.156975
    19  C   -0.174326
    20  C   -0.218545
    21  H    0.228358
    22  H    0.225981
    23  H    0.277141
    24  H    0.274435
    25  H    0.226486
    26  N    0.488144
    27  O   -0.466174
    28  O   -0.454317
 Sum of Mulliken charges =  -0.00000

 Dipole moment (field-independent basis, Debye):
    X=              6.6652    Y=             -6.3335    Z=             -0.8062  Tot=              9.2297
 Quadrupole moment (field-independent basis, Debye-Ang):
   XX=           -118.8216   YY=           -106.3402   ZZ=           -102.2680
   XY=             -6.5896   XZ=             14.0009   YZ=              1.7740

 Normal termination of Gaussian 16 at Thu May  6 16:27:38 2021.
