 Gaussian 16, Revision A.03,
 Gaussian 16:  EM64L-G16RevA.03 25-Dec-2016

 -------------
 #p 6-31g* mp2
 -------------

 ------------------------------------------------------
 Input file generated by CHIRIPA (05-May-2021 14:53:11)
 ------------------------------------------------------
 Symbolic Z-matrix:
 Charge =  0 Multiplicity = 1

                         Standard orientation:
 ---------------------------------------------------------------------
 Center     Atomic      Atomic             Coordinates (Angstroms)
 Number     Number       Type             X           Y           Z
 ---------------------------------------------------------------------
      1          6           0        3.814975    0.819545    0.007569
      2          6           0        2.431230    1.337156   -0.386527
      3          6           0        2.249090    2.825237   -0.086134
      4          1           0        3.975916    1.001157    1.079045
      5          1           0        4.581148    1.398763   -0.526173
      6          1           0        1.667853    0.756217    0.146747
      7          1           0        2.273489    1.154117   -1.457148
      8          1           0        2.988953    3.421408   -0.629995
      9          1           0        2.379876    3.021246    0.983013
     10          1           0        1.252995    3.174264   -0.375675
     11          6           0        4.012306   -0.666479   -0.286577
     12          6           0        5.396052   -1.184090    0.107519
     13          6           0        5.578191   -2.672170   -0.192874
     14          1           0        3.246133   -1.245697    0.247165
     15          1           0        3.851366   -0.848091   -1.358053
     16          1           0        5.553793   -1.001051    1.178140
     17          1           0        6.159429   -0.603150   -0.425755
     18          1           0        5.447406   -2.868180   -1.262021
     19          1           0        4.838329   -3.268341    0.350987
     20          1           0        6.574287   -3.021198    0.096667
     21          6           0       -1.473452    1.848013    0.574708
     22          6           0       -1.510343    0.743559    1.432229
     23          6           0       -2.384069   -0.319226    1.183958
     24          6           0       -3.210675   -0.244231    0.063964
     25          6           0       -3.197236    0.842481   -0.809057
     26          6           0       -2.315532    1.893868   -0.541231
     27          1           0       -0.791622    2.669183    0.775166
     28          1           0       -0.857518    0.705237    2.299636
     29          1           0       -2.433203   -1.186329    1.831364
     30          1           0       -3.860068    0.852120   -1.665783
     31          1           0       -2.289038    2.750336   -1.208918
     32          7           0       -4.139872   -1.363320   -0.209222
     33          8           0       -4.857928   -1.273136   -1.202650
     34          8           0       -4.132527   -2.309458    0.575257
 ---------------------------------------------------------------------

 SCF Done:  E(RHF) =  -669.535331045     A.U. after   15 cycles
 E2 =    -0.2091866011D+01 EUMP2 =    -0.67162719705570D+03

 The electronic state is 1-A.
 Alpha  occ. eigenvalues --  -20.60767 -20.60762 -15.85822 -11.31192 -11.27775
 Alpha  occ. eigenvalues --  -11.27769 -11.27475 -11.26785 -11.26767 -11.22329
 Alpha  occ. eigenvalues --  -11.22127 -11.21986 -11.21964 -11.21816 -11.21339
 Alpha  occ. eigenvalues --   -1.59843  -1.39396  -1.19371  -1.08993  -1.08757
 Alpha  occ. eigenvalues --   -1.04777  -1.04126  -0.96603  -0.95589  -0.87614
 Alpha  occ. eigenvalues --   -0.86172  -0.82428  -0.80183  -0.78758  -0.77475
 Alpha  occ. eigenvalues --   -0.72040  -0.71166  -0.70501  -0.65625  -0.65021
 Alpha  occ. eigenvalues --   -0.64783  -0.62127  -0.61520  -0.60035  -0.58208
 Alpha  occ. eigenvalues --   -0.55913  -0.55243  -0.53297  -0.53091  -0.52952
 Alpha  occ. eigenvalues --   -0.52867  -0.50521  -0.48801  -0.48794  -0.48492
 Alpha  occ. eigenvalues --   -0.47206  -0.46309  -0.46215  -0.44801  -0.44371
 Alpha  occ. eigenvalues --   -0.37313  -0.36379
 Alpha virt. eigenvalues --    0.05043   0.11175   0.16467   0.20152   0.22654
 Alpha virt. eigenvalues --    0.24077   0.25888   0.26388   0.26949   0.27317
 Alpha virt. eigenvalues --    0.29205   0.30310   0.30939   0.31579   0.31730

 Mulliken charges:
               1
     1  C   -0.298797
     2  C   -0.301720
     3  C   -0.478887
     4  H    0.148433
     5  H    0.151016
     6  H    0.152592
     7  H    0.155500
     8  H    0.160965
     9  H    0.153095
    10  H    0.150896
    11  C   -0.298574
    12  C   -0.300052
    13  C   -0.476043
    14  H    0.149769
    15  H    0.151600
    16  H    0.151569
    17  H    0.152492
    18  H    0.156336
    19  H    0.155974
    20  H    0.161294
    21  C   -0.169742
    22  C   -0.220690
    23  C   -0.171011
    24  C    0.158404
    25  C   -0.170511
    26  C   -0.220303
    27  H    0.231241
    28  H    0.223432
    29  H    0.275559
    30  H    0.275689
    31  H    0.223265
    32  N    0.488108
    33  O   -0.460412
    34  O   -0.460488
 Sum of Mulliken charges =  -0.00000

 Dipole moment (field-independent basis, Debye):
    X=              3.3820    Y=              3.8850    Z=              0.9150  Tot=              5.2314
 Quadrupole moment (field-independent basis, Debye-Ang):
   XX=           -115.4683   YY=            -97.2882   ZZ=            -90.7079
   XY=            -14.1992   XZ=             -1.7614   YZ=             -2.6644

 Normal termination of Gaussian 16 at Thu May  6 04:05:41 2021.
