 Gaussian 16, Revision A.03,
 Gaussian 16:  EM64L-G16RevA.03 25-Dec-2016

 -------------
 #p 6-31g* mp2
 -------------

 ------------------------------------------------------
 Input file generated by CHIRIPA (05-May-2021 14:51:09)
 ------------------------------------------------------
 Symbolic Z-matrix:
 Charge =  0 Multiplicity = 1

                         Standard orientation:
 ---------------------------------------------------------------------
 Center     Atomic      Atomic             Coordinates (Angstroms)
 Number     Number       Type             X           Y           Z
 ---------------------------------------------------------------------
      1          6           0       -2.768939    0.481268   -0.434118
      2          6           0       -2.662024    1.959302   -0.810905
      3          6           0       -1.215547    2.451315   -0.869389
      4          1           0       -2.286256    0.321867    0.539819
      5          1           0       -2.206194   -0.117540   -1.163599
      6          1           0       -3.225953    2.555025   -0.081717
      7          1           0       -3.145187    2.115237   -1.783969
      8          1           0       -0.644737    1.882274   -1.610314
      9          1           0       -0.725962    2.324560    0.101611
     10          1           0       -1.162368    3.510346   -1.140473
     11          6           0       -4.208783   -0.025350   -0.371546
     12          6           0       -4.315698   -1.503385    0.005241
     13          6           0       -5.762176   -1.995398    0.063725
     14          1           0       -4.771529    0.573457    0.357935
     15          1           0       -4.691467    0.134050   -1.345483
     16          1           0       -3.832536   -1.659320    0.978305
     17          1           0       -3.751770   -2.099108   -0.723947
     18          1           0       -6.251761   -1.868643   -0.907275
     19          1           0       -6.332986   -1.426357    0.804649
     20          1           0       -5.815355   -3.054429    0.334809
     21          6           0        4.225058   -0.256046    0.201194
     22          6           0        4.449240   -0.833200   -1.196883
     23          6           0        5.927065   -0.882895   -1.585929
     24          1           0        4.651744    0.755319    0.246187
     25          1           0        4.777695   -0.861290    0.933087
     26          1           0        3.895226   -0.227870   -1.925759
     27          1           0        4.021801   -1.843234   -1.238609
     28          1           0        6.490281   -1.503254   -0.881270
     29          1           0        6.362988    0.121290   -1.572324
     30          1           0        6.064395   -1.298798   -2.588937
     31          6           0        2.752665   -0.199871    0.604470
     32          6           0        2.528483    0.377282    2.002548
     33          6           0        1.050658    0.426979    2.391593
     34          1           0        2.200028    0.405374   -0.127423
     35          1           0        2.325979   -1.211236    0.559478
     36          1           0        2.955922    1.387317    2.044274
     37          1           0        3.082497   -0.228047    2.731424
     38          1           0        0.614735   -0.577207    2.377988
     39          1           0        0.487442    1.047337    1.686934
     40          1           0        0.913327    0.842881    3.394601
 ---------------------------------------------------------------------

 SCF Done:  E(RHF) =  -470.733343692     A.U. after   11 cycles
 E2 =    -0.1582774195D+01 EUMP2 =    -0.47231611788722D+03

 The electronic state is 1-A.
 Alpha  occ. eigenvalues --  -11.21609 -11.21589 -11.21584 -11.21582 -11.21380
 Alpha  occ. eigenvalues --  -11.21375 -11.21319 -11.21314 -11.21110 -11.21062
 Alpha  occ. eigenvalues --  -11.21057 -11.21056  -1.08421  -1.08403  -1.03542
 Alpha  occ. eigenvalues --   -1.03503  -0.95994  -0.95954  -0.87016  -0.86969
 Alpha  occ. eigenvalues --   -0.79641  -0.79534  -0.78257  -0.78183  -0.65077
 Alpha  occ. eigenvalues --   -0.65012  -0.61032  -0.60831  -0.59371  -0.59309
 Alpha  occ. eigenvalues --   -0.57635  -0.57536  -0.55415  -0.55123  -0.52678
 Alpha  occ. eigenvalues --   -0.52663  -0.52465  -0.52348  -0.50083  -0.49762
 Alpha  occ. eigenvalues --   -0.48066  -0.47776  -0.46724  -0.46485  -0.45879
 Alpha  occ. eigenvalues --   -0.45725  -0.45688  -0.45520  -0.43778  -0.43768
 Alpha virt. eigenvalues --    0.21179   0.23049   0.23509   0.24860   0.25870
 Alpha virt. eigenvalues --    0.26188   0.27064   0.27562   0.28203   0.29249
 Alpha virt. eigenvalues --    0.30222   0.31593   0.31710   0.31874   0.31965

 Mulliken charges:
               1
     1  C   -0.300275
     2  C   -0.299339
     3  C   -0.482633
     4  H    0.152440
     5  H    0.149507
     6  H    0.152024
     7  H    0.151997
     8  H    0.155287
     9  H    0.160952
    10  H    0.160552
    11  C   -0.298301
    12  C   -0.299671
    13  C   -0.475696
    14  H    0.149514
    15  H    0.149520
    16  H    0.152162
    17  H    0.151861
    18  H    0.155108
    19  H    0.155190
    20  H    0.160166
    21  C   -0.298312
    22  C   -0.299632
    23  C   -0.475688
    24  H    0.149695
    25  H    0.149390
    26  H    0.151937
    27  H    0.151842
    28  H    0.155137
    29  H    0.155207
    30  H    0.160148
    31  C   -0.299219
    32  C   -0.299084
    33  C   -0.484237
    34  H    0.151043
    35  H    0.149579
    36  H    0.151942
    37  H    0.151865
    38  H    0.155504
    39  H    0.162559
    40  H    0.159961
 Sum of Mulliken charges =  -0.00000

 Dipole moment (field-independent basis, Debye):
    X=             -0.0076    Y=              0.0045    Z=             -0.0026  Tot=              0.0092
 Quadrupole moment (field-independent basis, Debye-Ang):
   XX=            -86.8695   YY=            -84.1016   ZZ=            -83.8747
   XY=             -0.4758   XZ=              0.4767   YZ=             -0.1212

 Normal termination of Gaussian 16 at Thu May  6 00:32:05 2021.
