 Gaussian 16, Revision A.03,
 Gaussian 16:  EM64L-G16RevA.03 25-Dec-2016

 -------------
 #p 6-31g* mp2
 -------------

 ------------------------------------------------------
 Input file generated by CHIRIPA (05-May-2021 14:55:21)
 ------------------------------------------------------
 Symbolic Z-matrix:
 Charge =  0 Multiplicity = 1

                         Standard orientation:
 ---------------------------------------------------------------------
 Center     Atomic      Atomic             Coordinates (Angstroms)
 Number     Number       Type             X           Y           Z
 ---------------------------------------------------------------------
      1          6           0        5.185832    0.271984   -1.021287
      2          6           0        5.082166   -0.750879   -0.072853
      3          6           0        3.861651   -1.015424    0.555565
      4          6           0        2.760119   -0.234068    0.210022
      5          6           0        2.831556    0.791992   -0.730928
      6          6           0        4.062177    1.038803   -1.346723
      7          1           0        6.137882    0.470600   -1.504554
      8          1           0        5.953146   -1.348006    0.181855
      9          1           0        3.753294   -1.801152    1.293338
     10          1           0        1.945783    1.370324   -0.964074
     11          1           0        4.139740    1.833815   -2.082920
     12          7           0        1.462666   -0.504743    0.868618
     13          8           0        0.507019    0.197912    0.546666
     14          8           0        1.425935   -1.414428    1.694307
     15          6           0       -3.371032    0.719245    0.278004
     16          6           0       -3.550315    2.187153   -0.110700
     17          6           0       -2.672170    3.128594    0.714129
     18          1           0       -3.602634    0.598184    1.345078
     19          1           0       -2.315444    0.440545    0.153687
     20          1           0       -4.605509    2.462620    0.012993
     21          1           0       -3.318444    2.304699   -1.177018
     22          1           0       -1.613630    2.881905    0.582842
     23          1           0       -2.908007    3.040723    1.779615
     24          1           0       -2.816201    4.172850    0.419775
     25          6           0       -4.242294   -0.234233   -0.537785
     26          6           0       -4.063011   -1.702140   -0.149081
     27          6           0       -4.941156   -2.643582   -0.973910
     28          1           0       -5.297883    0.044467   -0.413468
     29          1           0       -4.010692   -0.113172   -1.604859
     30          1           0       -4.294881   -1.819686    0.917237
     31          1           0       -3.007817   -1.977607   -0.272774
     32          1           0       -4.705320   -2.555711   -2.039396
     33          1           0       -5.999697   -2.396893   -0.842623
     34          1           0       -4.797126   -3.687838   -0.679556
 ---------------------------------------------------------------------

 SCF Done:  E(RHF) =  -669.536275143     A.U. after   15 cycles
 E2 =    -0.2091185049D+01 EUMP2 =    -0.67162746019156D+03

 The electronic state is 1-A.
 Alpha  occ. eigenvalues --  -20.61022 -20.61014 -15.86057 -11.31347 -11.27909
 Alpha  occ. eigenvalues --  -11.27902 -11.27638 -11.26907 -11.26897 -11.20530
 Alpha  occ. eigenvalues --  -11.20518 -11.20278 -11.20243 -11.20025 -11.19868
 Alpha  occ. eigenvalues --   -1.60079  -1.39637  -1.19512  -1.08921  -1.07256
 Alpha  occ. eigenvalues --   -1.04904  -1.02476  -0.95768  -0.94922  -0.86306
 Alpha  occ. eigenvalues --   -0.85945  -0.82606  -0.78534  -0.77664  -0.77016
 Alpha  occ. eigenvalues --   -0.72278  -0.71391  -0.70621  -0.65171  -0.64907
 Alpha  occ. eigenvalues --   -0.63885  -0.62253  -0.59883  -0.58295  -0.56528
 Alpha  occ. eigenvalues --   -0.55409  -0.54211  -0.53237  -0.52996  -0.51677
 Alpha  occ. eigenvalues --   -0.51344  -0.49088  -0.49028  -0.48820  -0.46850
 Alpha  occ. eigenvalues --   -0.45561  -0.45068  -0.44607  -0.44372  -0.42688
 Alpha  occ. eigenvalues --   -0.37489  -0.36504
 Alpha virt. eigenvalues --    0.04859   0.11151   0.16355   0.21224   0.23966
 Alpha virt. eigenvalues --    0.25197   0.27145   0.27546   0.28119   0.28880
 Alpha virt. eigenvalues --    0.29088   0.30814   0.31948   0.32584   0.32781

 Mulliken charges:
               1
     1  C   -0.170503
     2  C   -0.218585
     3  C   -0.170373
     4  C    0.157391
     5  C   -0.170666
     6  C   -0.218498
     7  H    0.226215
     8  H    0.224017
     9  H    0.276018
    10  H    0.275311
    11  H    0.224067
    12  N    0.493959
    13  O   -0.466067
    14  O   -0.458011
    15  C   -0.310415
    16  C   -0.297678
    17  C   -0.476779
    18  H    0.147676
    19  H    0.179379
    20  H    0.146721
    21  H    0.146233
    22  H    0.162850
    23  H    0.154590
    24  H    0.152503
    25  C   -0.297170
    26  C   -0.299435
    27  C   -0.475088
    28  H    0.144369
    29  H    0.144876
    30  H    0.152057
    31  H    0.158152
    32  H    0.152168
    33  H    0.152505
    34  H    0.158212
 Sum of Mulliken charges =  -0.00000

 Dipole moment (field-independent basis, Debye):
    X=              4.9765    Y=              0.8494    Z=             -2.2239  Tot=              5.5165
 Quadrupole moment (field-independent basis, Debye-Ang):
   XX=            -70.2866   YY=            -94.2433   ZZ=            -94.8264
   XY=             -0.4942   XZ=             -5.5323   YZ=             -2.0559

 Normal termination of Gaussian 16 at Wed May  5 20:35:43 2021.
