 Gaussian 16, Revision A.03,
 Gaussian 16:  EM64L-G16RevA.03 25-Dec-2016

 -------------
 #p 6-31g* mp2
 -------------

 ------------------------------------------------------
 Input file generated by CHIRIPA (05-May-2021 14:51:08)
 ------------------------------------------------------
 Symbolic Z-matrix:
 Charge =  0 Multiplicity = 1

                         Standard orientation:
 ---------------------------------------------------------------------
 Center     Atomic      Atomic             Coordinates (Angstroms)
 Number     Number       Type             X           Y           Z
 ---------------------------------------------------------------------
      1          6           0       -2.638114   -0.045070    0.083839
      2          6           0       -3.062452   -0.880987   -1.124120
      3          6           0       -3.355635   -2.337181   -0.761718
      4          1           0       -1.746915   -0.497476    0.539950
      5          1           0       -3.431135   -0.082309    0.843526
      6          1           0       -2.269463   -0.841054   -1.881873
      7          1           0       -3.952632   -0.426430   -1.577523
      8          1           0       -4.161923   -2.395600   -0.023418
      9          1           0       -2.469191   -2.812579   -0.329497
     10          1           0       -3.657156   -2.916568   -1.639930
     11          6           0       -2.341567    1.412965   -0.262461
     12          6           0       -1.917228    2.248882    0.945498
     13          6           0       -1.624046    3.705076    0.583095
     14          1           0       -1.548545    1.450204   -1.022149
     15          1           0       -3.232766    1.865371   -0.718572
     16          1           0       -1.027049    1.794325    1.398901
     17          1           0       -2.710218    2.208949    1.703251
     18          1           0       -2.510490    4.180474    0.150875
     19          1           0       -0.817758    3.763495   -0.155205
     20          1           0       -1.322525    4.284463    1.461307
     21          6           0        2.726576    0.034776    0.193355
     22          6           0        3.676601    0.524556   -0.900059
     23          6           0        4.141494    1.964120   -0.677972
     24          1           0        1.853943    0.700749    0.237362
     25          1           0        3.228718    0.112736    1.167610
     26          1           0        3.173309    0.444396   -1.872113
     27          1           0        4.546982   -0.142772   -0.941597
     28          1           0        4.667129    2.056058    0.277986
     29          1           0        3.285652    2.646563   -0.657816
     30          1           0        4.819731    2.293858   -1.471148
     31          6           0        2.253104   -1.402671   -0.014733
     32          6           0        1.303081   -1.892451    1.078682
     33          6           0        0.838186   -3.332015    0.856595
     34          1           0        1.750963   -1.480631   -0.988987
     35          1           0        3.125737   -2.068644   -0.058741
     36          1           0        0.432700   -1.225123    1.120220
     37          1           0        1.806371   -1.812292    2.050735
     38          1           0        1.694029   -4.014457    0.836438
     39          1           0        0.312552   -3.423953   -0.099363
     40          1           0        0.159950   -3.661753    1.649771
 ---------------------------------------------------------------------

 SCF Done:  E(RHF) =  -470.733356603     A.U. after   11 cycles
 E2 =    -0.1583926711D+01 EUMP2 =    -0.47231728331388D+03

 The electronic state is 1-A.
 Alpha  occ. eigenvalues --  -11.21669 -11.21655 -11.21644 -11.21628 -11.21476
 Alpha  occ. eigenvalues --  -11.21440 -11.21417 -11.21376 -11.21148 -11.21110
 Alpha  occ. eigenvalues --  -11.21106 -11.21064  -1.08513  -1.08455  -1.03604
 Alpha  occ. eigenvalues --   -1.03549  -0.96045  -0.96003  -0.87074  -0.87005
 Alpha  occ. eigenvalues --   -0.79664  -0.79617  -0.78370  -0.78228  -0.65351
 Alpha  occ. eigenvalues --   -0.64905  -0.61139  -0.60818  -0.59416  -0.59363
 Alpha  occ. eigenvalues --   -0.57668  -0.57602  -0.55389  -0.55249  -0.52736
 Alpha  occ. eigenvalues --   -0.52696  -0.52465  -0.52435  -0.50153  -0.49786
 Alpha  occ. eigenvalues --   -0.48035  -0.47897  -0.46778  -0.46638  -0.46132
 Alpha  occ. eigenvalues --   -0.45811  -0.45777  -0.45329  -0.43848  -0.43812
 Alpha virt. eigenvalues --    0.19024   0.22017   0.23861   0.24670   0.25840
 Alpha virt. eigenvalues --    0.26381   0.26875   0.27540   0.28689   0.29771
 Alpha virt. eigenvalues --    0.31129   0.31411   0.31708   0.31909   0.32008

 Mulliken charges:
               1
     1  C   -0.307741
     2  C   -0.298855
     3  C   -0.479516
     4  H    0.158309
     5  H    0.149949
     6  H    0.151041
     7  H    0.152161
     8  H    0.155269
     9  H    0.159059
    10  H    0.160191
    11  C   -0.297815
    12  C   -0.301521
    13  C   -0.475542
    14  H    0.148776
    15  H    0.150039
    16  H    0.152844
    17  H    0.152357
    18  H    0.155427
    19  H    0.154648
    20  H    0.160661
    21  C   -0.299582
    22  C   -0.299725
    23  C   -0.475705
    24  H    0.149893
    25  H    0.149971
    26  H    0.151861
    27  H    0.152257
    28  H    0.155391
    29  H    0.155113
    30  H    0.160488
    31  C   -0.297865
    32  C   -0.308432
    33  C   -0.477796
    34  H    0.149255
    35  H    0.150178
    36  H    0.158643
    37  H    0.152748
    38  H    0.155879
    39  H    0.156696
    40  H    0.160991
 Sum of Mulliken charges =  -0.00000

 Dipole moment (field-independent basis, Debye):
    X=              0.0160    Y=             -0.0130    Z=              0.0195  Tot=              0.0283
 Quadrupole moment (field-independent basis, Debye-Ang):
   XX=            -83.3129   YY=            -86.7697   ZZ=            -84.4763
   XY=             -1.2631   XZ=              0.2523   YZ=             -0.0688

 Normal termination of Gaussian 16 at Wed May  5 22:56:33 2021.
