 Gaussian 16, Revision A.03,
 Gaussian 16:  EM64L-G16RevA.03 25-Dec-2016

 -------------
 #p 6-31g* mp2
 -------------

 ------------------------------------------------------
 Input file generated by CHIRIPA (05-May-2021 14:53:14)
 ------------------------------------------------------
 Symbolic Z-matrix:
 Charge =  0 Multiplicity = 1

                         Standard orientation:
 ---------------------------------------------------------------------
 Center     Atomic      Atomic             Coordinates (Angstroms)
 Number     Number       Type             X           Y           Z
 ---------------------------------------------------------------------
      1          6           0        4.287322   -0.420765    0.005177
      2          6           0        3.966985   -1.829261   -0.496329
      3          6           0        5.028547   -2.854636   -0.096972
      4          1           0        5.264799   -0.111380   -0.389494
      5          1           0        4.384580   -0.442006    1.099473
      6          1           0        3.868994   -1.805102   -1.589229
      7          1           0        2.990070   -2.135254   -0.100575
      8          1           0        5.121822   -2.908177    0.992539
      9          1           0        6.005740   -2.576150   -0.504574
     10          1           0        4.779624   -3.854601   -0.465711
     11          6           0        3.235292    0.615494   -0.386138
     12          6           0        3.555629    2.023990    0.115368
     13          6           0        2.494067    3.049365   -0.283989
     14          1           0        3.138034    0.636735   -1.480435
     15          1           0        2.257815    0.306109    0.008532
     16          1           0        4.532544    2.329982   -0.280387
     17          1           0        3.653619    1.999831    1.208267
     18          1           0        1.516873    2.770878    0.123613
     19          1           0        2.400791    3.102906   -1.373500
     20          1           0        2.742989    4.049330    0.084749
     21          6           0       -5.107985   -0.596994   -1.029315
     22          6           0       -4.970667   -0.866872    0.336273
     23          6           0       -3.773203   -0.582340    0.999349
     24          6           0       -2.728786   -0.025704    0.262710
     25          6           0       -2.834843    0.254681   -1.098696
     26          6           0       -4.041514   -0.038063   -1.741186
     27          1           0       -6.041779   -0.821214   -1.536413
     28          1           0       -5.797226   -1.300922    0.891653
     29          1           0       -3.639761   -0.781125    2.055803
     30          1           0       -1.993219    0.687597   -1.625639
     31          1           0       -4.145312    0.172591   -2.801797
     32          7           0       -1.456210    0.279863    0.953783
     33          8           0       -0.550995    0.770063    0.282271
     34          8           0       -1.388077    0.023382    2.153871
 ---------------------------------------------------------------------

 SCF Done:  E(RHF) =  -669.536506785     A.U. after   15 cycles
 E2 =    -0.2091636423D+01 EUMP2 =    -0.67162814320798D+03

 The electronic state is 1-A.
 Alpha  occ. eigenvalues --  -20.61115 -20.61109 -15.86127 -11.31377 -11.27932
 Alpha  occ. eigenvalues --  -11.27924 -11.27659 -11.26923 -11.26912 -11.20711
 Alpha  occ. eigenvalues --  -11.20358 -11.20268 -11.20243 -11.19838 -11.19551
 Alpha  occ. eigenvalues --   -1.60166  -1.39724  -1.19538  -1.08958  -1.07213
 Alpha  occ. eigenvalues --   -1.04923  -1.02372  -0.95812  -0.94815  -0.86327
 Alpha  occ. eigenvalues --   -0.85837  -0.82651  -0.78481  -0.77713  -0.76974
 Alpha  occ. eigenvalues --   -0.72356  -0.71468  -0.70647  -0.65198  -0.64926
 Alpha  occ. eigenvalues --   -0.63831  -0.62269  -0.59761  -0.58222  -0.56426
 Alpha  occ. eigenvalues --   -0.55432  -0.54087  -0.53258  -0.53014  -0.51571
 Alpha  occ. eigenvalues --   -0.51238  -0.49156  -0.49111  -0.48744  -0.46777
 Alpha  occ. eigenvalues --   -0.45512  -0.45145  -0.44549  -0.44278  -0.42606
 Alpha  occ. eigenvalues --   -0.37514  -0.36520
 Alpha virt. eigenvalues --    0.04782   0.11136   0.16275   0.21255   0.24058
 Alpha virt. eigenvalues --    0.25484   0.27203   0.27791   0.28132   0.28884
 Alpha virt. eigenvalues --    0.29155   0.30866   0.32272   0.32592   0.32785

 Mulliken charges:
               1
     1  C   -0.297288
     2  C   -0.298758
     3  C   -0.474927
     4  H    0.144566
     5  H    0.149449
     6  H    0.148192
     7  H    0.153740
     8  H    0.155065
     9  H    0.153150
    10  H    0.156588
    11  C   -0.308611
    12  C   -0.296281
    13  C   -0.484339
    14  H    0.141055
    15  H    0.177327
    16  H    0.144120
    17  H    0.151518
    18  H    0.179904
    19  H    0.146361
    20  H    0.151966
    21  C   -0.170316
    22  C   -0.218669
    23  C   -0.170194
    24  C    0.156931
    25  C   -0.170564
    26  C   -0.218592
    27  H    0.226344
    28  H    0.224084
    29  H    0.275954
    30  H    0.276615
    31  H    0.224270
    32  N    0.493291
    33  O   -0.463907
    34  O   -0.458043
 Sum of Mulliken charges =  -0.00000

 Dipole moment (field-independent basis, Debye):
    X=             -4.9711    Y=             -1.1261    Z=             -2.3010  Tot=              5.5924
 Quadrupole moment (field-independent basis, Debye-Ang):
   XX=            -71.7634   YY=            -96.4645   ZZ=            -91.8787
   XY=              4.4128   XZ=              3.5958   YZ=             -1.8003

 Normal termination of Gaussian 16 at Thu May  6 10:32:50 2021.
