 Gaussian 16, Revision A.03,
 Gaussian 16:  EM64L-G16RevA.03 25-Dec-2016

 -------------
 #p 6-31g* mp2
 -------------

 ------------------------------------------------------
 Input file generated by CHIRIPA (05-May-2021 14:55:22)
 ------------------------------------------------------
 Symbolic Z-matrix:
 Charge =  0 Multiplicity = 1

                         Standard orientation:
 ---------------------------------------------------------------------
 Center     Atomic      Atomic             Coordinates (Angstroms)
 Number     Number       Type             X           Y           Z
 ---------------------------------------------------------------------
      1          6           0       -0.547576   -1.112795    0.199353
      2          6           0       -1.064981   -0.766691   -1.053254
      3          6           0       -2.382714   -0.316449   -1.177394
      4          6           0       -3.158513   -0.224028   -0.022888
      5          6           0       -2.671777   -0.561376    1.239084
      6          6           0       -1.351208   -1.009216    1.339515
      7          1           0        0.477172   -1.461621    0.286579
      8          1           0       -0.443171   -0.846136   -1.940432
      9          1           0       -2.808656   -0.041903   -2.134795
     10          1           0       -3.315875   -0.471678    2.105404
     11          1           0       -0.952045   -1.277312    2.313598
     12          7           0       -4.555038    0.251351   -0.141760
     13          8           0       -5.218047    0.323906    0.890613
     14          8           0       -4.960183    0.542398   -1.265052
     15          6           0        4.208319   -0.156259   -0.272593
     16          6           0        3.875616   -1.555255    0.247122
     17          6           0        4.804636   -2.631361   -0.315650
     18          1           0        4.149792   -0.156061   -1.369645
     19          1           0        5.248899    0.085112   -0.015051
     20          1           0        2.835544   -1.793364   -0.010115
     21          1           0        3.934755   -1.552075    1.343073
     22          1           0        5.844957   -2.421008   -0.047164
     23          1           0        4.739500   -2.663668   -1.408040
     24          1           0        4.548986   -3.623624    0.068949
     25          6           0        3.288253    0.930343    0.281033
     26          6           0        3.620956    2.329339   -0.238683
     27          6           0        2.691937    3.405445    0.324090
     28          1           0        2.247673    0.688972    0.023491
     29          1           0        3.346780    0.930145    1.378083
     30          1           0        3.561817    2.326158   -1.334634
     31          1           0        4.661028    2.567448    0.018553
     32          1           0        2.757071    3.437752    1.416479
     33          1           0        1.651615    3.195092    0.055603
     34          1           0        2.947586    4.397708   -0.060511
 ---------------------------------------------------------------------

 SCF Done:  E(RHF) =  -669.535521442     A.U. after   15 cycles
 E2 =    -0.2091840401D+01 EUMP2 =    -0.67162736184324D+03

 The electronic state is 1-A.
 Alpha  occ. eigenvalues --  -20.60756 -20.60751 -15.85810 -11.31181 -11.27752
 Alpha  occ. eigenvalues --  -11.27743 -11.27455 -11.26773 -11.26747 -11.22787
 Alpha  occ. eigenvalues --  -11.22314 -11.22259 -11.22199 -11.21990 -11.21554
 Alpha  occ. eigenvalues --   -1.59832  -1.39385  -1.19352  -1.09323  -1.08743
 Alpha  occ. eigenvalues --   -1.04756  -1.04353  -0.96765  -0.95579  -0.87782
 Alpha  occ. eigenvalues --   -0.86151  -0.82416  -0.80455  -0.79133  -0.77459
 Alpha  occ. eigenvalues --   -0.72028  -0.71155  -0.70474  -0.65958  -0.65001
 Alpha  occ. eigenvalues --   -0.64754  -0.62103  -0.61757  -0.60156  -0.58385
 Alpha  occ. eigenvalues --   -0.56042  -0.55282  -0.53450  -0.53200  -0.53063
 Alpha  occ. eigenvalues --   -0.52846  -0.50713  -0.48804  -0.48783  -0.48730
 Alpha  occ. eigenvalues --   -0.47501  -0.46638  -0.46567  -0.44790  -0.44612
 Alpha  occ. eigenvalues --   -0.37311  -0.36362
 Alpha virt. eigenvalues --    0.05047   0.11268   0.16456   0.19354   0.22621
 Alpha virt. eigenvalues --    0.23581   0.24943   0.26125   0.27215   0.27399
 Alpha virt. eigenvalues --    0.29416   0.30253   0.30951   0.31191   0.32400

 Mulliken charges:
               1
     1  C   -0.176853
     2  C   -0.223125
     3  C   -0.170697
     4  C    0.158390
     5  C   -0.170604
     6  C   -0.221783
     7  H    0.239161
     8  H    0.223023
     9  H    0.275566
    10  H    0.275595
    11  H    0.224504
    12  N    0.487970
    13  O   -0.460356
    14  O   -0.460494
    15  C   -0.298545
    16  C   -0.304853
    17  C   -0.475331
    18  H    0.150127
    19  H    0.153961
    20  H    0.142477
    21  H    0.154104
    22  H    0.159419
    23  H    0.156582
    24  H    0.161649
    25  C   -0.301770
    26  C   -0.299945
    27  C   -0.476633
    28  H    0.146095
    29  H    0.150406
    30  H    0.152273
    31  H    0.153914
    32  H    0.155765
    33  H    0.157200
    34  H    0.162807
 Sum of Mulliken charges =  -0.00000

 Dipole moment (field-independent basis, Debye):
    X=              5.1080    Y=             -1.6130    Z=              0.4393  Tot=              5.3746
 Quadrupole moment (field-independent basis, Debye-Ang):
   XX=           -125.5015   YY=            -95.2551   ZZ=            -89.3365
   XY=              4.8911   XZ=             -1.4347   YZ=             -0.8191

 Normal termination of Gaussian 16 at Thu May  6 04:39:40 2021.
