 Gaussian 16, Revision A.03,
 Gaussian 16:  EM64L-G16RevA.03 25-Dec-2016

 -------------
 #p 6-31g* mp2
 -------------

 ------------------------------------------------------
 Input file generated by CHIRIPA (05-May-2021 14:51:08)
 ------------------------------------------------------
 Symbolic Z-matrix:
 Charge =  0 Multiplicity = 1

                         Standard orientation:
 ---------------------------------------------------------------------
 Center     Atomic      Atomic             Coordinates (Angstroms)
 Number     Number       Type             X           Y           Z
 ---------------------------------------------------------------------
      1          6           0       -5.005186   -0.583136    0.248330
      2          6           0       -6.191633   -0.202667   -0.637995
      3          6           0       -7.412495   -1.093417   -0.405928
      4          1           0       -4.736783   -1.631770    0.060523
      5          1           0       -5.309535   -0.522352    1.302405
      6          1           0       -5.884735   -0.262812   -1.690046
      7          1           0       -6.457121    0.845239   -0.448194
      8          1           0       -7.746151   -1.026274    0.634632
      9          1           0       -7.170513   -2.140622   -0.614275
     10          1           0       -8.248886   -0.803914   -1.049744
     11          6           0       -3.777102    0.298310    0.027894
     12          6           0       -2.590656   -0.082159    0.914220
     13          6           0       -1.369794    0.808591    0.682153
     14          1           0       -3.472754    0.237526   -1.026180
     15          1           0       -4.045506    1.346943    0.215702
     16          1           0       -2.325167   -1.130065    0.724419
     17          1           0       -2.897554   -0.022014    1.966271
     18          1           0       -1.611776    1.855795    0.890500
     19          1           0       -1.036138    0.741448   -0.358408
     20          1           0       -0.533403    0.519087    1.325969
     21          6           0        3.664616    0.354997   -0.240075
     22          6           0        3.450749    1.863681   -0.113116
     23          6           0        1.992244    2.273439   -0.319652
     24          1           0        3.326605    0.025367   -1.232062
     25          1           0        3.030306   -0.161254    0.493771
     26          1           0        4.086307    2.377000   -0.846045
     27          1           0        3.789486    2.189789    0.878615
     28          1           0        1.347247    1.787795    0.419759
     29          1           0        1.645755    1.976070   -1.314699
     30          1           0        1.862041    3.355966   -0.224552
     31          6           0        5.117673   -0.070171   -0.036150
     32          6           0        5.331540   -1.578855   -0.163109
     33          6           0        6.790045   -1.988612    0.043427
     34          1           0        5.751983    0.446080   -0.769996
     35          1           0        5.455684    0.259459    0.955837
     36          1           0        4.992803   -1.904962   -1.154839
     37          1           0        4.695982   -2.092174    0.569820
     38          1           0        7.136534   -1.691244    1.038474
     39          1           0        7.435041   -1.502968   -0.695985
     40          1           0        6.920248   -3.071139   -0.051672
 ---------------------------------------------------------------------

 SCF Done:  E(RHF) =  -470.732776856     A.U. after   11 cycles
 E2 =    -0.1582580806D+01 EUMP2 =    -0.47231535766249D+03

 The electronic state is 1-A.
 Alpha  occ. eigenvalues --  -11.21593 -11.21580 -11.21573 -11.21512 -11.21393
 Alpha  occ. eigenvalues --  -11.21365 -11.21334 -11.21304 -11.21065 -11.21055
 Alpha  occ. eigenvalues --  -11.21042 -11.20877  -1.08419  -1.08378  -1.03534
 Alpha  occ. eigenvalues --   -1.03451  -0.96023  -0.95865  -0.87091  -0.86837
 Alpha  occ. eigenvalues --   -0.79684  -0.79437  -0.78243  -0.78177  -0.65048
 Alpha  occ. eigenvalues --   -0.65014  -0.60916  -0.60881  -0.59388  -0.59257
 Alpha  occ. eigenvalues --   -0.57582  -0.57530  -0.55255  -0.55218  -0.52859
 Alpha  occ. eigenvalues --   -0.52607  -0.52423  -0.52139  -0.49907  -0.49827
 Alpha  occ. eigenvalues --   -0.47957  -0.47775  -0.46607  -0.46567  -0.45810
 Alpha  occ. eigenvalues --   -0.45719  -0.45676  -0.45647  -0.43729  -0.43719
 Alpha virt. eigenvalues --    0.22314   0.23006   0.23638   0.24879   0.26210
 Alpha virt. eigenvalues --    0.26532   0.26850   0.27471   0.27779   0.29201
 Alpha virt. eigenvalues --    0.29812   0.31288   0.31536   0.31968   0.32219

 Mulliken charges:
               1
     1  C   -0.298283
     2  C   -0.299603
     3  C   -0.475692
     4  H    0.149610
     5  H    0.149478
     6  H    0.151920
     7  H    0.151945
     8  H    0.155158
     9  H    0.155157
    10  H    0.160234
    11  C   -0.298551
    12  C   -0.300505
    13  C   -0.476137
    14  H    0.149560
    15  H    0.149677
    16  H    0.151818
    17  H    0.151554
    18  H    0.155916
    19  H    0.158284
    20  H    0.158413
    21  C   -0.297972
    22  C   -0.299676
    23  C   -0.481674
    24  H    0.149336
    25  H    0.148900
    26  H    0.151240
    27  H    0.151279
    28  H    0.166318
    29  H    0.153612
    30  H    0.159059
    31  C   -0.298191
    32  C   -0.299583
    33  C   -0.475670
    34  H    0.149511
    35  H    0.149527
    36  H    0.151819
    37  H    0.151784
    38  H    0.155141
    39  H    0.155160
    40  H    0.160130
 Sum of Mulliken charges =  -0.00000

 Dipole moment (field-independent basis, Debye):
    X=             -0.0360    Y=              0.0049    Z=              0.0045  Tot=              0.0366
 Quadrupole moment (field-independent basis, Debye-Ang):
   XX=            -86.8456   YY=            -84.9405   ZZ=            -83.2780
   XY=             -0.3573   XZ=             -0.4535   YZ=              0.4927

 Normal termination of Gaussian 16 at Thu May  6 10:01:21 2021.
