 Gaussian 16, Revision A.03,
 Gaussian 16:  EM64L-G16RevA.03 25-Dec-2016

 -------------
 #p 6-31g* mp2
 -------------

 ------------------------------------------------------
 Input file generated by CHIRIPA (05-May-2021 14:55:22)
 ------------------------------------------------------
 Symbolic Z-matrix:
 Charge =  0 Multiplicity = 1

                         Standard orientation:
 ---------------------------------------------------------------------
 Center     Atomic      Atomic             Coordinates (Angstroms)
 Number     Number       Type             X           Y           Z
 ---------------------------------------------------------------------
      1          6           0        1.314606    2.201125    0.398614
      2          6           0        2.472745    2.462814   -0.340813
      3          6           0        3.441269    1.470322   -0.518209
      4          6           0        3.218293    0.221775    0.060327
      5          6           0        2.074778   -0.069645    0.802444
      6          6           0        1.119662    0.937958    0.966881
      7          1           0        0.567441    2.977985    0.531386
      8          1           0        2.626799    3.442883   -0.783280
      9          1           0        4.347009    1.645830   -1.085878
     10          1           0        1.949226   -1.056350    1.231473
     11          1           0        0.221195    0.731888    1.541631
     12          7           0        4.236529   -0.836930   -0.120614
     13          8           0        4.016433   -1.928691    0.399245
     14          8           0        5.235437   -0.554935   -0.778868
     15          6           0       -4.487566   -0.186171    0.259473
     16          6           0       -5.626256    0.260296   -0.658152
     17          6           0       -6.785169    0.900654    0.106475
     18          1           0       -4.878808   -0.898284    0.998912
     19          1           0       -4.120093    0.681341    0.824966
     20          1           0       -5.990548   -0.607533   -1.222760
     21          1           0       -5.232218    0.971283   -1.395613
     22          1           0       -6.442801    1.783018    0.656763
     23          1           0       -7.205440    0.195233    0.830599
     24          1           0       -7.588106    1.212388   -0.568784
     25          6           0       -3.321651   -0.828261   -0.490254
     26          6           0       -2.182962   -1.274728    0.427372
     27          6           0       -1.024048   -1.915085   -0.337255
     28          1           0       -3.689124   -1.695772   -1.055746
     29          1           0       -2.930410   -0.116148   -1.229694
     30          1           0       -2.577000   -1.985715    1.164832
     31          1           0       -1.818670   -0.406900    0.991979
     32          1           0       -0.603778   -1.209665   -1.061379
     33          1           0       -1.366417   -2.797451   -0.887543
     34          1           0       -0.221111   -2.226820    0.338003
 ---------------------------------------------------------------------

 SCF Done:  E(RHF) =  -669.534682355     A.U. after   15 cycles
 E2 =    -0.2092611236D+01 EUMP2 =    -0.67162729359085D+03

 The electronic state is 1-A.
 Alpha  occ. eigenvalues --  -20.60746 -20.60741 -15.85800 -11.31165 -11.27743
 Alpha  occ. eigenvalues --  -11.27734 -11.27491 -11.26760 -11.26725 -11.22340
 Alpha  occ. eigenvalues --  -11.22079 -11.21986 -11.21922 -11.21571 -11.21499
 Alpha  occ. eigenvalues --   -1.59821  -1.39375  -1.19348  -1.09014  -1.08741
 Alpha  occ. eigenvalues --   -1.04763  -1.04078  -0.96510  -0.95575  -0.87521
 Alpha  occ. eigenvalues --   -0.86152  -0.82408  -0.80161  -0.78828  -0.77457
 Alpha  occ. eigenvalues --   -0.72019  -0.71144  -0.70466  -0.65695  -0.65000
 Alpha  occ. eigenvalues --   -0.64749  -0.62235  -0.61398  -0.59863  -0.58123
 Alpha  occ. eigenvalues --   -0.55802  -0.55250  -0.53311  -0.52987  -0.52970
 Alpha  occ. eigenvalues --   -0.52778  -0.50421  -0.48787  -0.48773  -0.48452
 Alpha  occ. eigenvalues --   -0.47188  -0.46355  -0.46286  -0.44780  -0.44340
 Alpha  occ. eigenvalues --   -0.37333  -0.36307
 Alpha virt. eigenvalues --    0.05070   0.11237   0.16477   0.19850   0.22635
 Alpha virt. eigenvalues --    0.23931   0.25303   0.26063   0.26614   0.28195
 Alpha virt. eigenvalues --    0.28690   0.29491   0.31104   0.31467   0.32150

 Mulliken charges:
               1
     1  C   -0.172778
     2  C   -0.218716
     3  C   -0.171043
     4  C    0.157749
     5  C   -0.169898
     6  C   -0.219548
     7  H    0.225247
     8  H    0.223247
     9  H    0.275544
    10  H    0.276231
    11  H    0.228395
    12  N    0.488157
    13  O   -0.460422
    14  O   -0.460557
    15  C   -0.297963
    16  C   -0.299997
    17  C   -0.475857
    18  H    0.151355
    19  H    0.145403
    20  H    0.153920
    21  H    0.151622
    22  H    0.154064
    23  H    0.156265
    24  H    0.161752
    25  C   -0.298387
    26  C   -0.302651
    27  C   -0.477104
    28  H    0.153291
    29  H    0.149819
    30  H    0.155189
    31  H    0.140432
    32  H    0.159850
    33  H    0.160161
    34  H    0.157226
 Sum of Mulliken charges =  -0.00000

 Dipole moment (field-independent basis, Debye):
    X=             -3.6879    Y=              3.6549    Z=              0.5479  Tot=              5.2211
 Quadrupole moment (field-independent basis, Debye-Ang):
   XX=           -117.0468   YY=            -90.7437   ZZ=            -94.0250
   XY=             14.3398   XZ=              0.6012   YZ=             -1.8201

 Normal termination of Gaussian 16 at Thu May  6 09:22:59 2021.
