 Gaussian 16, Revision A.03,
 Gaussian 16:  EM64L-G16RevA.03 25-Dec-2016

 -------------
 #p 6-31g* mp2
 -------------

 ------------------------------------------------------
 Input file generated by CHIRIPA (05-May-2021 14:57:24)
 ------------------------------------------------------
 Symbolic Z-matrix:
 Charge =  0 Multiplicity = 1

                         Standard orientation:
 ---------------------------------------------------------------------
 Center     Atomic      Atomic             Coordinates (Angstroms)
 Number     Number       Type             X           Y           Z
 ---------------------------------------------------------------------
      1          6           0       -1.575724   -1.993197    0.906558
      2          6           0       -2.702707   -1.598219    1.634858
      3          6           0       -3.592505   -0.655921    1.110566
      4          6           0       -3.323430   -0.126633   -0.150680
      5          6           0       -2.209240   -0.499933   -0.900693
      6          6           0       -1.333015   -1.443762   -0.356666
      7          1           0       -0.889779   -2.725791    1.321506
      8          1           0       -2.893719   -2.023241    2.616141
      9          1           0       -4.472612   -0.332296    1.652872
     10          1           0       -2.045395   -0.058584   -1.876287
     11          1           0       -0.458585   -1.748636   -0.924530
     12          7           0       -4.258235    0.871746   -0.716171
     13          8           0       -3.998751    1.323134   -1.829524
     14          8           0       -5.232718    1.183983   -0.035342
     15          6           0        2.386693    2.526590    0.927127
     16          6           0        1.551826    1.408142    1.019821
     17          6           0        1.975066    0.164597    0.541272
     18          6           0        3.245028    0.075066   -0.026593
     19          6           0        4.099937    1.170985   -0.133282
     20          6           0        3.655847    2.404657    0.351886
     21          1           0        2.049811    3.488771    1.301446
     22          1           0        0.565678    1.499882    1.466074
     23          1           0        1.349131   -0.717519    0.600384
     24          1           0        5.077644    1.048393   -0.583257
     25          1           0        4.306353    3.271555    0.278573
     26          7           0        3.704130   -1.236193   -0.536715
     27          8           0        4.827471   -1.288777   -1.032676
     28          8           0        2.931941   -2.186546   -0.430928
 ---------------------------------------------------------------------

 SCF Done:  E(RHF) =  -868.338963914     A.U. after   16 cycles
 E2 =    -0.2600763567D+01 EUMP2 =    -0.87093972748116D+03

 The electronic state is 1-A.
 Alpha  occ. eigenvalues --  -20.61498 -20.61442 -20.61144 -20.61138 -15.86506
 Alpha  occ. eigenvalues --  -15.86196 -11.31676 -11.31614 -11.28211 -11.28190
 Alpha  occ. eigenvalues --  -11.28173 -11.28142 -11.27876 -11.27863 -11.27180
 Alpha  occ. eigenvalues --  -11.27165 -11.27152 -11.27088  -1.60534  -1.60220
 Alpha  occ. eigenvalues --   -1.40100  -1.39770  -1.19828  -1.19778  -1.09244
 Alpha  occ. eigenvalues --   -1.09162  -1.05233  -1.05128  -0.96120  -0.95979
 Alpha  occ. eigenvalues --   -0.86664  -0.86496  -0.82954  -0.82795  -0.78070
 Alpha  occ. eigenvalues --   -0.77823  -0.72733  -0.72407  -0.71848  -0.71550
 Alpha  occ. eigenvalues --   -0.70961  -0.70803  -0.65469  -0.65429  -0.65315
 Alpha  occ. eigenvalues --   -0.64984  -0.62678  -0.62345  -0.55690  -0.55611
 Alpha  occ. eigenvalues --   -0.53632  -0.53480  -0.53317  -0.53094  -0.49507
 Alpha  occ. eigenvalues --   -0.49452  -0.49168  -0.49163  -0.45544  -0.45163
 Alpha  occ. eigenvalues --   -0.37803  -0.37757  -0.37005  -0.36562
 Alpha virt. eigenvalues --    0.04401   0.04697   0.10529   0.11015   0.15915
 Alpha virt. eigenvalues --    0.16231   0.20400   0.21694   0.26133   0.27265
 Alpha virt. eigenvalues --    0.27645   0.28814   0.30801   0.30876   0.31651

 Mulliken charges:
               1
     1  C   -0.179318
     2  C   -0.219462
     3  C   -0.172483
     4  C    0.157001
     5  C   -0.172597
     6  C   -0.232106
     7  H    0.233937
     8  H    0.225409
     9  H    0.276426
    10  H    0.278231
    11  H    0.239815
    12  N    0.487813
    13  O   -0.459092
    14  O   -0.459911
    15  C   -0.169955
    16  C   -0.220557
    17  C   -0.175435
    18  C    0.158697
    19  C   -0.170291
    20  C   -0.218328
    21  H    0.228796
    22  H    0.227522
    23  H    0.270605
    24  H    0.276478
    25  H    0.225633
    26  N    0.489006
    27  O   -0.455632
    28  O   -0.470203
 Sum of Mulliken charges =  -0.00000

 Dipole moment (field-independent basis, Debye):
    X=              1.6888    Y=              1.2012    Z=              3.7615  Tot=              4.2946
 Quadrupole moment (field-independent basis, Debye-Ang):
   XX=           -131.9753   YY=           -103.1381   ZZ=           -102.6104
   XY=             29.0758   XZ=             -5.3176   YZ=             -0.5700

 Normal termination of Gaussian 16 at Thu May  6 09:49:07 2021.
