 Gaussian 16, Revision A.03,
 Gaussian 16:  EM64L-G16RevA.03 25-Dec-2016

 -------------
 #p 6-31g* mp2
 -------------

 ------------------------------------------------------
 Input file generated by CHIRIPA (05-May-2021 14:51:07)
 ------------------------------------------------------
 Symbolic Z-matrix:
 Charge =  0 Multiplicity = 1

                         Standard orientation:
 ---------------------------------------------------------------------
 Center     Atomic      Atomic             Coordinates (Angstroms)
 Number     Number       Type             X           Y           Z
 ---------------------------------------------------------------------
      1          6           0        3.726716   -0.642494   -0.534654
      2          6           0        2.279285   -1.050916   -0.258753
      3          6           0        1.885350   -2.346987   -0.967842
      4          1           0        3.868299   -0.527075   -1.617972
      5          1           0        4.396234   -1.453653   -0.216594
      6          1           0        1.612779   -0.238658   -0.575965
      7          1           0        2.141081   -1.165189    0.824048
      8          1           0        2.526292   -3.173404   -0.644068
      9          1           0        1.994989   -2.241608   -2.052035
     10          1           0        0.846788   -2.620364   -0.756856
     11          6           0        4.135432    0.651290    0.167344
     12          6           0        5.582863    1.059712   -0.108557
     13          6           0        5.976798    2.355783    0.600532
     14          1           0        3.465914    1.462449   -0.150716
     15          1           0        3.993849    0.535871    1.250662
     16          1           0        5.721066    1.173985   -1.191358
     17          1           0        6.249368    0.247454    0.208655
     18          1           0        5.867159    2.250404    1.684725
     19          1           0        5.335855    3.182200    0.276758
     20          1           0        7.015360    2.629160    0.389547
     21          6           0       -3.538374   -0.400635    0.705398
     22          6           0       -2.517921   -1.361922    0.095000
     23          6           0       -1.740218   -2.147433    1.151383
     24          1           0       -3.019175    0.298146    1.375535
     25          1           0       -4.240010   -0.970181    1.330474
     26          1           0       -1.819254   -0.790914   -0.529844
     27          1           0       -3.039584   -2.058374   -0.573909
     28          1           0       -2.421630   -2.741736    1.768702
     29          1           0       -1.194366   -1.467075    1.813017
     30          1           0       -1.016323   -2.828479    0.693111
     31          6           0       -4.323773    0.391838   -0.338088
     32          6           0       -5.344227    1.353126    0.272309
     33          6           0       -6.121930    2.138638   -0.784073
     34          1           0       -3.622138    0.961384   -0.963164
     35          1           0       -4.842973   -0.306942   -1.008224
     36          1           0       -4.822564    2.049578    0.941218
     37          1           0       -6.042894    0.782119    0.897154
     38          1           0       -6.667781    1.458280   -1.445707
     39          1           0       -5.440518    2.732940   -1.401392
     40          1           0       -6.845825    2.819683   -0.325801
 ---------------------------------------------------------------------

 SCF Done:  E(RHF) =  -470.733264214     A.U. after   11 cycles
 E2 =    -0.1582555280D+01 EUMP2 =    -0.47231581949465D+03

 The electronic state is 1-A.
 Alpha  occ. eigenvalues --  -11.21610 -11.21605 -11.21605 -11.21594 -11.21410
 Alpha  occ. eigenvalues --  -11.21406 -11.21351 -11.21346 -11.21076 -11.21075
 Alpha  occ. eigenvalues --  -11.21067 -11.21036  -1.08441  -1.08422  -1.03562
 Alpha  occ. eigenvalues --   -1.03499  -0.96033  -0.95930  -0.87046  -0.86950
 Alpha  occ. eigenvalues --   -0.79602  -0.79582  -0.78247  -0.78240  -0.65068
 Alpha  occ. eigenvalues --   -0.65055  -0.60943  -0.60918  -0.59680  -0.59120
 Alpha  occ. eigenvalues --   -0.57788  -0.57366  -0.55265  -0.55256  -0.52944
 Alpha  occ. eigenvalues --   -0.52552  -0.52466  -0.52166  -0.49926  -0.49909
 Alpha  occ. eigenvalues --   -0.48000  -0.47814  -0.46668  -0.46583  -0.45807
 Alpha  occ. eigenvalues --   -0.45764  -0.45735  -0.45683  -0.43897  -0.43661
 Alpha virt. eigenvalues --    0.21006   0.23088   0.23360   0.25321   0.26314
 Alpha virt. eigenvalues --    0.26583   0.26855   0.27539   0.27558   0.29068
 Alpha virt. eigenvalues --    0.29992   0.30983   0.31282   0.31767   0.32252

 Mulliken charges:
               1
     1  C   -0.298387
     2  C   -0.299301
     3  C   -0.482089
     4  H    0.149631
     5  H    0.149638
     6  H    0.151349
     7  H    0.152636
     8  H    0.155002
     9  H    0.155013
    10  H    0.166533
    11  C   -0.298235
    12  C   -0.299645
    13  C   -0.475704
    14  H    0.149278
    15  H    0.149631
    16  H    0.151948
    17  H    0.151994
    18  H    0.155179
    19  H    0.155101
    20  H    0.160283
    21  C   -0.298298
    22  C   -0.300971
    23  C   -0.479863
    24  H    0.149828
    25  H    0.149629
    26  H    0.152988
    27  H    0.151918
    28  H    0.155237
    29  H    0.155976
    30  H    0.163705
    31  C   -0.298276
    32  C   -0.299679
    33  C   -0.475706
    34  H    0.149440
    35  H    0.149684
    36  H    0.151968
    37  H    0.151956
    38  H    0.155195
    39  H    0.155143
    40  H    0.160273
 Sum of Mulliken charges =  -0.00000

 Dipole moment (field-independent basis, Debye):
    X=             -0.0084    Y=             -0.0044    Z=              0.0087  Tot=              0.0129
 Quadrupole moment (field-independent basis, Debye-Ang):
   XX=            -84.8138   YY=            -85.2173   ZZ=            -84.7426
   XY=              0.3817   XZ=             -0.3136   YZ=             -0.4410

 Normal termination of Gaussian 16 at Thu May  6 05:15:10 2021.
