 Gaussian 16, Revision A.03,
 Gaussian 16:  EM64L-G16RevA.03 25-Dec-2016

 -------------
 #p 6-31g* mp2
 -------------

 ------------------------------------------------------
 Input file generated by CHIRIPA (05-May-2021 14:51:08)
 ------------------------------------------------------
 Symbolic Z-matrix:
 Charge =  0 Multiplicity = 1

                         Standard orientation:
 ---------------------------------------------------------------------
 Center     Atomic      Atomic             Coordinates (Angstroms)
 Number     Number       Type             X           Y           Z
 ---------------------------------------------------------------------
      1          6           0        4.079597   -0.407534    0.250046
      2          6           0        4.695001    0.110308   -1.050378
      3          6           0        6.210317   -0.085818   -1.106460
      4          1           0        4.548940    0.105983    1.100319
      5          1           0        4.316430   -1.474867    0.360065
      6          1           0        4.455904    1.176018   -1.158596
      7          1           0        4.224003   -0.404362   -1.897663
      8          1           0        6.464686   -1.147442   -1.023679
      9          1           0        6.697905    0.441918   -0.280413
     10          1           0        6.629502    0.291341   -2.044487
     11          6           0        2.565342   -0.218532    0.321031
     12          6           0        1.949939   -0.736374    1.621455
     13          6           0        0.434622   -0.540247    1.677537
     14          1           0        2.328509    0.848801    0.211012
     15          1           0        2.096000   -0.732048   -0.529242
     16          1           0        2.420936   -0.221703    2.468740
     17          1           0        2.189035   -1.802084    1.729674
     18          1           0       -0.052965   -1.067984    0.851490
     19          1           0        0.180253    0.521376    1.594756
     20          1           0        0.015437   -0.917406    2.615564
     21          6           0       -2.728687    0.793432   -0.277038
     22          6           0       -3.126696    2.244695   -0.006102
     23          6           0       -1.927943    3.193691    0.007806
     24          1           0       -2.010420    0.467970    0.487887
     25          1           0       -2.204857    0.738119   -1.241371
     26          1           0       -3.650838    2.297039    0.956784
     27          1           0       -3.844246    2.566678   -0.771651
     28          1           0       -1.407501    3.171068   -0.955121
     29          1           0       -1.212994    2.899897    0.783135
     30          1           0       -2.235225    4.225805    0.203202
     31          6           0       -3.916252   -0.167365   -0.294039
     32          6           0       -3.518244   -1.618630   -0.564975
     33          6           0       -4.716996   -2.567626   -0.578883
     34          1           0       -4.440082   -0.112054    0.670294
     35          1           0       -4.634519    0.158095   -1.058965
     36          1           0       -2.800694   -1.940612    0.200574
     37          1           0       -2.994101   -1.670974   -1.527862
     38          1           0       -5.431945   -2.273831   -1.354212
     39          1           0       -5.237439   -2.545003    0.384044
     40          1           0       -4.409715   -3.599740   -0.774279
 ---------------------------------------------------------------------

 SCF Done:  E(RHF) =  -470.732623166     A.U. after   11 cycles
 E2 =    -0.1583543518D+01 EUMP2 =    -0.47231616668370D+03

 The electronic state is 1-A.
 Alpha  occ. eigenvalues --  -11.21627 -11.21601 -11.21560 -11.21526 -11.21408
 Alpha  occ. eigenvalues --  -11.21349 -11.21299 -11.21169 -11.21115 -11.21071
 Alpha  occ. eigenvalues --  -11.21056 -11.21041  -1.08445  -1.08344  -1.03555
 Alpha  occ. eigenvalues --   -1.03475  -0.96022  -0.95911  -0.87052  -0.86928
 Alpha  occ. eigenvalues --   -0.79673  -0.79519  -0.78308  -0.78081  -0.65071
 Alpha  occ. eigenvalues --   -0.64988  -0.61003  -0.60833  -0.59377  -0.59286
 Alpha  occ. eigenvalues --   -0.57671  -0.57494  -0.55304  -0.55206  -0.52731
 Alpha  occ. eigenvalues --   -0.52646  -0.52519  -0.52272  -0.49958  -0.49869
 Alpha  occ. eigenvalues --   -0.48104  -0.47803  -0.46720  -0.46480  -0.45994
 Alpha  occ. eigenvalues --   -0.45712  -0.45655  -0.45240  -0.43800  -0.43710
 Alpha virt. eigenvalues --    0.21537   0.22999   0.23361   0.24235   0.25520
 Alpha virt. eigenvalues --    0.26191   0.27053   0.27515   0.27881   0.29604
 Alpha virt. eigenvalues --    0.29991   0.31424   0.31793   0.31915   0.32397

 Mulliken charges:
               1
     1  C   -0.298317
     2  C   -0.299666
     3  C   -0.475712
     4  H    0.149641
     5  H    0.149490
     6  H    0.152092
     7  H    0.151927
     8  H    0.155157
     9  H    0.155192
    10  H    0.160268
    11  C   -0.298393
    12  C   -0.300018
    13  C   -0.482543
    14  H    0.150001
    15  H    0.149942
    16  H    0.151898
    17  H    0.152012
    18  H    0.159612
    19  H    0.157770
    20  H    0.159824
    21  C   -0.309018
    22  C   -0.299025
    23  C   -0.477513
    24  H    0.165123
    25  H    0.147921
    26  H    0.151427
    27  H    0.151431
    28  H    0.155314
    29  H    0.155518
    30  H    0.160137
    31  C   -0.297340
    32  C   -0.301941
    33  C   -0.475546
    34  H    0.149023
    35  H    0.148991
    36  H    0.153757
    37  H    0.151300
    38  H    0.155198
    39  H    0.155188
    40  H    0.159879
 Sum of Mulliken charges =  -0.00000

 Dipole moment (field-independent basis, Debye):
    X=              0.0396    Y=             -0.0140    Z=              0.0195  Tot=              0.0463
 Quadrupole moment (field-independent basis, Debye-Ang):
   XX=            -86.7462   YY=            -84.6662   ZZ=            -83.6553
   XY=             -0.3932   XZ=              0.2688   YZ=              0.1995

 Normal termination of Gaussian 16 at Thu May  6 05:18:15 2021.
