 Gaussian 16, Revision A.03,
 Gaussian 16:  EM64L-G16RevA.03 25-Dec-2016

 -------------
 #p 6-31g* mp2
 -------------

 ------------------------------------------------------
 Input file generated by CHIRIPA (05-May-2021 14:55:25)
 ------------------------------------------------------
 Symbolic Z-matrix:
 Charge =  0 Multiplicity = 1

                         Standard orientation:
 ---------------------------------------------------------------------
 Center     Atomic      Atomic             Coordinates (Angstroms)
 Number     Number       Type             X           Y           Z
 ---------------------------------------------------------------------
      1          6           0       -2.787671    2.132646   -0.103749
      2          6           0       -4.183366    2.214743   -0.061111
      3          6           0       -4.961780    1.054359   -0.014978
      4          6           0       -4.308525   -0.177121   -0.012825
      5          6           0       -2.919852   -0.291699   -0.054639
      6          6           0       -2.161473    0.881892   -0.100383
      7          1           0       -2.190762    3.039190   -0.139436
      8          1           0       -4.672395    3.184737   -0.063614
      9          1           0       -6.043949    1.088989    0.018620
     10          1           0       -2.460975   -1.272941   -0.050973
     11          1           0       -1.077733    0.815103   -0.133435
     12          7           0       -5.121993   -1.412559    0.035808
     13          8           0       -4.522319   -2.485418    0.036717
     14          8           0       -6.343859   -1.284642    0.072097
     15          6           0        5.924442   -0.500418   -0.140902
     16          6           0        7.294669    0.100349    0.174601
     17          6           0        8.447201   -0.844841   -0.166100
     18          1           0        5.806366   -1.440368    0.415424
     19          1           0        5.882948   -0.761176   -1.207522
     20          1           0        7.333073    0.361170    1.240018
     21          1           0        7.409420    1.039075   -0.382392
     22          1           0        8.437194   -1.096143   -1.231627
     23          1           0        8.360414   -1.777900    0.400001
     24          1           0        9.417423   -0.395370    0.067362
     25          6           0        4.762166    0.432594    0.194253
     26          6           0        3.391939   -0.168174   -0.121249
     27          6           0        2.239406    0.777017    0.219451
     28          1           0        4.803661    0.693351    1.260873
     29          1           0        4.880242    1.372543   -0.362073
     30          1           0        3.277188   -1.106900    0.435744
     31          1           0        3.353534   -0.428994   -1.186667
     32          1           0        2.326195    1.710076   -0.346650
     33          1           0        2.249414    1.028318    1.284979
     34          1           0        1.269185    0.327545   -0.014011
 ---------------------------------------------------------------------

 SCF Done:  E(RHF) =  -669.535560087     A.U. after   15 cycles
 E2 =    -0.2090620529D+01 EUMP2 =    -0.67162618061524D+03

 The electronic state is 1-A.
 Alpha  occ. eigenvalues --  -20.60720 -20.60715 -15.85773 -11.31129 -11.27697
 Alpha  occ. eigenvalues --  -11.27687 -11.27429 -11.26713 -11.26670 -11.22338
 Alpha  occ. eigenvalues --  -11.22151 -11.21966 -11.21955 -11.21803 -11.21357
 Alpha  occ. eigenvalues --   -1.59796  -1.39350  -1.19298  -1.08972  -1.08694
 Alpha  occ. eigenvalues --   -1.04701  -1.04117  -0.96592  -0.95531  -0.87620
 Alpha  occ. eigenvalues --   -0.86097  -0.82366  -0.80186  -0.78746  -0.77416
 Alpha  occ. eigenvalues --   -0.71992  -0.71119  -0.70406  -0.65593  -0.64949
 Alpha  occ. eigenvalues --   -0.64730  -0.62086  -0.61502  -0.59983  -0.58180
 Alpha  occ. eigenvalues --   -0.55863  -0.55203  -0.53436  -0.53036  -0.53030
 Alpha  occ. eigenvalues --   -0.52641  -0.50514  -0.48751  -0.48748  -0.48495
 Alpha  occ. eigenvalues --   -0.47191  -0.46300  -0.46196  -0.44758  -0.44366
 Alpha  occ. eigenvalues --   -0.37278  -0.36303
 Alpha virt. eigenvalues --    0.05120   0.11350   0.16617   0.20140   0.22466
 Alpha virt. eigenvalues --    0.23719   0.25617   0.26157   0.26994   0.28197
 Alpha virt. eigenvalues --    0.28438   0.29944   0.30843   0.31499   0.32276

 Mulliken charges:
               1
     1  C   -0.173322
     2  C   -0.218475
     3  C   -0.171320
     4  C    0.158757
     5  C   -0.173830
     6  C   -0.226455
     7  H    0.226365
     8  H    0.223118
     9  H    0.275352
    10  H    0.275297
    11  H    0.235990
    12  N    0.488124
    13  O   -0.460567
    14  O   -0.460703
    15  C   -0.298855
    16  C   -0.300024
    17  C   -0.476031
    18  H    0.151066
    19  H    0.150467
    20  H    0.152410
    21  H    0.152053
    22  H    0.155734
    23  H    0.156013
    24  H    0.161224
    25  C   -0.299453
    26  C   -0.298874
    27  C   -0.481866
    28  H    0.150563
    29  H    0.149918
    30  H    0.155011
    31  H    0.154037
    32  H    0.155898
    33  H    0.159047
    34  H    0.153332
 Sum of Mulliken charges =  -0.00000

 Dipole moment (field-independent basis, Debye):
    X=              3.1064    Y=              4.3547    Z=             -0.1581  Tot=              5.3514
 Quadrupole moment (field-independent basis, Debye-Ang):
   XX=           -116.2125   YY=            -95.3788   ZZ=            -94.7966
   XY=            -21.6162   XZ=              0.7902   YZ=             -0.4615

 Normal termination of Gaussian 16 at Thu May  6 11:07:18 2021.
