 Gaussian 16, Revision A.03,
 Gaussian 16:  EM64L-G16RevA.03 25-Dec-2016

 -------------
 #p 6-31g* mp2
 -------------

 ------------------------------------------------------
 Input file generated by CHIRIPA (05-May-2021 14:53:14)
 ------------------------------------------------------
 Symbolic Z-matrix:
 Charge =  0 Multiplicity = 1

                         Standard orientation:
 ---------------------------------------------------------------------
 Center     Atomic      Atomic             Coordinates (Angstroms)
 Number     Number       Type             X           Y           Z
 ---------------------------------------------------------------------
      1          6           0       -3.037623   -0.159145   -0.478673
      2          6           0       -2.558924   -1.454895   -1.134314
      3          6           0       -1.040635   -1.503607   -1.308154
      4          1           0       -2.709136    0.694989   -1.086535
      5          1           0       -2.551805   -0.050854    0.500943
      6          1           0       -3.046557   -1.561402   -2.111803
      7          1           0       -2.888754   -2.306054   -0.524922
      8          1           0       -0.539047   -1.422446   -0.338401
      9          1           0       -0.697747   -0.673563   -1.934298
     10          1           0       -0.720206   -2.438382   -1.778666
     11          6           0       -4.553235   -0.095544   -0.298112
     12          6           0       -5.031934    1.200206    0.357528
     13          6           0       -6.550223    1.248918    0.531369
     14          1           0       -5.039054   -0.203835   -1.277729
     15          1           0       -4.881723   -0.949679    0.309749
     16          1           0       -4.702105    2.051364   -0.251863
     17          1           0       -4.544301    1.306712    1.335018
     18          1           0       -6.893112    0.418874    1.157513
     19          1           0       -7.051812    1.167757   -0.438385
     20          1           0       -6.870653    2.183692    1.001881
     21          6           0        4.233337    1.918138   -0.900815
     22          6           0        3.321723    2.249923    0.106855
     23          6           0        2.613508    1.250524    0.780785
     24          6           0        2.842578   -0.076333    0.419854
     25          6           0        3.744157   -0.438750   -0.579695
     26          6           0        4.441278    0.577224   -1.240276
     27          1           0        4.779186    2.700934   -1.419156
     28          1           0        3.158208    3.290449    0.372585
     29          1           0        1.901869    1.479275    1.564788
     30          1           0        3.885822   -1.484895   -0.822449
     31          1           0        5.148632    0.316611   -2.022437
     32          7           0        2.098696   -1.143125    1.126248
     33          8           0        2.318519   -2.304575    0.789574
     34          8           0        1.309903   -0.797627    2.003216
 ---------------------------------------------------------------------

 SCF Done:  E(RHF) =  -669.536114264     A.U. after   15 cycles
 E2 =    -0.2091238900D+01 EUMP2 =    -0.67162735316436D+03

 The electronic state is 1-A.
 Alpha  occ. eigenvalues --  -20.60859 -20.60845 -15.85882 -11.31210 -11.27779
 Alpha  occ. eigenvalues --  -11.27775 -11.27524 -11.26789 -11.26780 -11.21266
 Alpha  occ. eigenvalues --  -11.20992 -11.20952 -11.20823 -11.20790 -11.20350
 Alpha  occ. eigenvalues --   -1.59922  -1.39474  -1.19382  -1.08788  -1.07947
 Alpha  occ. eigenvalues --   -1.04781  -1.03041  -0.95630  -0.95490  -0.86511
 Alpha  occ. eigenvalues --   -0.86181  -0.82465  -0.79124  -0.77761  -0.77516
 Alpha  occ. eigenvalues --   -0.72108  -0.71252  -0.70496  -0.65039  -0.64787
 Alpha  occ. eigenvalues --   -0.64570  -0.62130  -0.60426  -0.58866  -0.57102
 Alpha  occ. eigenvalues --   -0.55291  -0.54765  -0.53109  -0.52875  -0.52183
 Alpha  occ. eigenvalues --   -0.51925  -0.49437  -0.48870  -0.48855  -0.47436
 Alpha  occ. eigenvalues --   -0.46145  -0.45310  -0.45212  -0.44874  -0.43292
 Alpha  occ. eigenvalues --   -0.37361  -0.36381
 Alpha virt. eigenvalues --    0.04995   0.11273   0.16480   0.21395   0.23359
 Alpha virt. eigenvalues --    0.24815   0.27100   0.27315   0.27879   0.28248
 Alpha virt. eigenvalues --    0.28487   0.30879   0.31868   0.32235   0.32425

 Mulliken charges:
               1
     1  C   -0.299914
     2  C   -0.298344
     3  C   -0.482256
     4  H    0.145018
     5  H    0.156106
     6  H    0.148215
     7  H    0.155155
     8  H    0.167443
     9  H    0.147367
    10  H    0.161728
    11  C   -0.297995
    12  C   -0.299428
    13  C   -0.475430
    14  H    0.147678
    15  H    0.151006
    16  H    0.149486
    17  H    0.152936
    18  H    0.155820
    19  H    0.154252
    20  H    0.158761
    21  C   -0.170613
    22  C   -0.218718
    23  C   -0.170632
    24  C    0.158742
    25  C   -0.170293
    26  C   -0.218738
    27  H    0.225666
    28  H    0.223529
    29  H    0.275617
    30  H    0.275837
    31  H    0.223531
    32  N    0.488096
    33  O   -0.458340
    34  O   -0.461287
 Sum of Mulliken charges =  -0.00000

 Dipole moment (field-independent basis, Debye):
    X=              2.7524    Y=              3.6880    Z=             -2.4028  Tot=              5.1913
 Quadrupole moment (field-independent basis, Debye-Ang):
   XX=            -80.8755   YY=            -93.0115   ZZ=            -95.2775
   XY=              9.1798   XZ=             -7.6193   YZ=              3.4783

 Normal termination of Gaussian 16 at Thu May  6 05:50:14 2021.
