 Gaussian 16, Revision A.03,
 Gaussian 16:  EM64L-G16RevA.03 25-Dec-2016

 -------------
 #p 6-31g* mp2
 -------------

 ------------------------------------------------------
 Input file generated by CHIRIPA (05-May-2021 14:55:21)
 ------------------------------------------------------
 Symbolic Z-matrix:
 Charge =  0 Multiplicity = 1

                         Standard orientation:
 ---------------------------------------------------------------------
 Center     Atomic      Atomic             Coordinates (Angstroms)
 Number     Number       Type             X           Y           Z
 ---------------------------------------------------------------------
      1          6           0        2.297349   -1.961913   -1.584082
      2          6           0        1.222512   -1.082396   -1.750509
      3          6           0        1.204484    0.149716   -1.090113
      4          6           0        2.282674    0.471577   -0.267190
      5          6           0        3.367961   -0.383291   -0.081059
      6          6           0        3.364761   -1.610173   -0.751356
      7          1           0        2.303108   -2.917015   -2.100939
      8          1           0        0.392186   -1.352918   -2.396591
      9          1           0        0.385088    0.849505   -1.201029
     10          1           0        4.181343   -0.085763    0.569559
     11          1           0        4.200825   -2.291237   -0.620228
     12          7           0        2.274826    1.773190    0.437183
     13          8           0        3.236809    2.033230    1.156630
     14          8           0        1.306839    2.508709    0.256485
     15          6           0       -2.669079   -0.945787    0.862517
     16          6           0       -1.389189   -0.688742    1.658627
     17          6           0       -0.892652   -1.932038    2.397180
     18          1           0       -3.451494   -1.305779    1.544558
     19          1           0       -2.487504   -1.754113    0.140690
     20          1           0       -1.572723    0.119801    2.377786
     21          1           0       -0.609787   -0.329138    0.974644
     22          1           0       -0.681965   -2.741361    1.690635
     23          1           0       -1.650372   -2.289872    3.101749
     24          1           0        0.023235   -1.725797    2.959741
     25          6           0       -3.177878    0.287726    0.118679
     26          6           0       -4.457769    0.030682   -0.677432
     27          6           0       -4.954306    1.273977   -1.415985
     28          1           0       -3.359455    1.096053    0.840505
     29          1           0       -2.395464    0.647719   -0.563362
     30          1           0       -5.237171   -0.328923    0.006551
     31          1           0       -4.274235   -0.777861   -1.396591
     32          1           0       -4.196586    1.631812   -2.120554
     33          1           0       -5.164993    2.083301   -0.709439
     34          1           0       -5.870194    1.067737   -1.978546
 ---------------------------------------------------------------------

 SCF Done:  E(RHF) =  -669.534881693     A.U. after   15 cycles
 E2 =    -0.2093471642D+01 EUMP2 =    -0.67162835333494D+03

 The electronic state is 1-A.
 Alpha  occ. eigenvalues --  -20.60815 -20.60803 -15.85863 -11.31256 -11.27835
 Alpha  occ. eigenvalues --  -11.27831 -11.27582 -11.26859 -11.26839 -11.21775
 Alpha  occ. eigenvalues --  -11.21560 -11.21506 -11.21452 -11.21178 -11.21076
 Alpha  occ. eigenvalues --   -1.59883  -1.39436  -1.19447  -1.08826  -1.08538
 Alpha  occ. eigenvalues --   -1.04859  -1.03593  -0.96060  -0.95659  -0.87073
 Alpha  occ. eigenvalues --   -0.86250  -0.82488  -0.79659  -0.78354  -0.77524
 Alpha  occ. eigenvalues --   -0.72081  -0.71209  -0.70555  -0.65225  -0.65089
 Alpha  occ. eigenvalues --   -0.64831  -0.62199  -0.61014  -0.59423  -0.57663
 Alpha  occ. eigenvalues --   -0.55382  -0.55334  -0.53198  -0.52947  -0.52723
 Alpha  occ. eigenvalues --   -0.52471  -0.50010  -0.48844  -0.48835  -0.47971
 Alpha  occ. eigenvalues --   -0.46710  -0.45899  -0.45818  -0.44806  -0.43867
 Alpha  occ. eigenvalues --   -0.37401  -0.36387
 Alpha virt. eigenvalues --    0.04980   0.11112   0.16456   0.20155   0.22950
 Alpha virt. eigenvalues --    0.24200   0.24994   0.26851   0.27528   0.27985
 Alpha virt. eigenvalues --    0.29692   0.30965   0.31328   0.31814   0.31892

 Mulliken charges:
               1
     1  C   -0.170602
     2  C   -0.218106
     3  C   -0.178454
     4  C    0.162307
     5  C   -0.170577
     6  C   -0.218124
     7  H    0.226026
     8  H    0.223793
     9  H    0.279847
    10  H    0.275972
    11  H    0.223893
    12  N    0.488320
    13  O   -0.460301
    14  O   -0.460122
    15  C   -0.298343
    16  C   -0.305136
    17  C   -0.474822
    18  H    0.150934
    19  H    0.143120
    20  H    0.157586
    21  H    0.155512
    22  H    0.150939
    23  H    0.155052
    24  H    0.161616
    25  C   -0.297946
    26  C   -0.299576
    27  C   -0.475367
    28  H    0.156233
    29  H    0.142843
    30  H    0.153460
    31  H    0.147748
    32  H    0.153783
    33  H    0.158384
    34  H    0.160107
 Sum of Mulliken charges =  -0.00000

 Dipole moment (field-independent basis, Debye):
    X=              0.0659    Y=             -4.5065    Z=             -2.4192  Tot=              5.1152
 Quadrupole moment (field-independent basis, Debye-Ang):
   XX=            -90.5064   YY=           -100.1830   ZZ=            -92.8645
   XY=            -11.8055   XZ=             -4.5973   YZ=              0.4363

 Normal termination of Gaussian 16 at Thu May  6 19:08:59 2021.
