 Gaussian 16, Revision A.03,
 Gaussian 16:  EM64L-G16RevA.03 25-Dec-2016

 -------------
 #p 6-31g* mp2
 -------------

 ------------------------------------------------------
 Input file generated by CHIRIPA (05-May-2021 14:51:12)
 ------------------------------------------------------
 Symbolic Z-matrix:
 Charge =  0 Multiplicity = 1

                         Standard orientation:
 ---------------------------------------------------------------------
 Center     Atomic      Atomic             Coordinates (Angstroms)
 Number     Number       Type             X           Y           Z
 ---------------------------------------------------------------------
      1          6           0       -3.277816    0.005789   -0.264330
      2          6           0       -4.686815   -0.403955   -0.694235
      3          6           0       -5.251845    0.490872   -1.797783
      4          1           0       -3.295258    1.048787    0.080336
      5          1           0       -2.612290   -0.023548   -1.138177
      6          1           0       -5.349180   -0.375190    0.180443
      7          1           0       -4.666054   -1.446160   -1.037737
      8          1           0       -4.614480    0.454706   -2.687198
      9          1           0       -5.301488    1.531762   -1.462097
     10          1           0       -6.259817    0.180163   -2.089868
     11          6           0       -2.699386   -0.879369    0.838232
     12          6           0       -1.290388   -0.469625    1.268137
     13          6           0       -0.725357   -1.364452    2.371686
     14          1           0       -3.364912   -0.850033    1.712080
     15          1           0       -2.681944   -1.922368    0.493567
     16          1           0       -1.311149    0.572580    1.611639
     17          1           0       -0.628022   -0.498391    0.393460
     18          1           0       -0.675714   -2.405342    2.036000
     19          1           0       -1.362722   -1.328287    3.261101
     20          1           0        0.282614   -1.053743    2.663771
     21          6           0        3.419608    0.015779   -0.756435
     22          6           0        3.533322   -1.447205   -0.326631
     23          6           0        4.398721   -2.276638   -1.275800
     24          1           0        3.001057    0.061737   -1.771151
     25          1           0        4.425974    0.453257   -0.813317
     26          1           0        2.526947   -1.881406   -0.269238
     27          1           0        3.951472   -1.489677    0.687253
     28          1           0        5.414009   -1.870094   -1.325939
     29          1           0        3.981390   -2.264048   -2.287865
     30          1           0        4.466459   -3.319199   -0.949704
     31          6           0        2.557595    0.857801    0.182533
     32          6           0        2.443880    2.320785   -0.247271
     33          6           0        1.578481    3.150218    0.701897
     34          1           0        1.551229    0.420323    0.239415
     35          1           0        2.976146    0.811843    1.197249
     36          1           0        2.025730    2.363258   -1.261156
     37          1           0        3.450255    2.754986   -0.304665
     38          1           0        1.995813    3.137628    1.713963
     39          1           0        0.563193    2.743674    0.752037
     40          1           0        1.510744    4.192778    0.375801
 ---------------------------------------------------------------------

 SCF Done:  E(RHF) =  -470.733226127     A.U. after   11 cycles
 E2 =    -0.1583488135D+01 EUMP2 =    -0.47231671426217D+03

 The electronic state is 1-A.
 Alpha  occ. eigenvalues --  -11.21658 -11.21635 -11.21599 -11.21566 -11.21450
 Alpha  occ. eigenvalues --  -11.21390 -11.21370 -11.21289 -11.21097 -11.21082
 Alpha  occ. eigenvalues --  -11.21071 -11.21031  -1.08484  -1.08398  -1.03574
 Alpha  occ. eigenvalues --   -1.03502  -0.96014  -0.95952  -0.87025  -0.86973
 Alpha  occ. eigenvalues --   -0.79683  -0.79540  -0.78377  -0.78133  -0.65171
 Alpha  occ. eigenvalues --   -0.64989  -0.60973  -0.60909  -0.59411  -0.59294
 Alpha  occ. eigenvalues --   -0.57668  -0.57524  -0.55328  -0.55214  -0.52709
 Alpha  occ. eigenvalues --   -0.52646  -0.52448  -0.52367  -0.50007  -0.49855
 Alpha  occ. eigenvalues --   -0.48070  -0.47828  -0.46734  -0.46600  -0.46061
 Alpha  occ. eigenvalues --   -0.45775  -0.45735  -0.45284  -0.43815  -0.43758
 Alpha virt. eigenvalues --    0.20755   0.23184   0.23666   0.24254   0.25742
 Alpha virt. eigenvalues --    0.26076   0.26776   0.27605   0.28325   0.29453
 Alpha virt. eigenvalues --    0.30427   0.31551   0.31648   0.31799   0.32075

 Mulliken charges:
               1
     1  C   -0.298449
     2  C   -0.299652
     3  C   -0.475751
     4  H    0.149686
     5  H    0.149058
     6  H    0.152128
     7  H    0.152009
     8  H    0.155122
     9  H    0.155316
    10  H    0.160398
    11  C   -0.297481
    12  C   -0.305350
    13  C   -0.477089
    14  H    0.149854
    15  H    0.149728
    16  H    0.153851
    17  H    0.153821
    18  H    0.154977
    19  H    0.155397
    20  H    0.162749
    21  C   -0.297714
    22  C   -0.299982
    23  C   -0.475661
    24  H    0.149053
    25  H    0.149495
    26  H    0.151736
    27  H    0.152014
    28  H    0.155300
    29  H    0.154986
    30  H    0.160238
    31  C   -0.308873
    32  C   -0.298761
    33  C   -0.478018
    34  H    0.161386
    35  H    0.148862
    36  H    0.151538
    37  H    0.151704
    38  H    0.154792
    39  H    0.157627
    40  H    0.159956
 Sum of Mulliken charges =  -0.00000

 Dipole moment (field-independent basis, Debye):
    X=             -0.0312    Y=             -0.0125    Z=              0.0181  Tot=              0.0382
 Quadrupole moment (field-independent basis, Debye-Ang):
   XX=            -84.6412   YY=            -85.2498   ZZ=            -84.9260
   XY=              0.6403   XZ=              0.1054   YZ=              0.5721

 Normal termination of Gaussian 16 at Thu May  6 00:44:36 2021.
