 Gaussian 16, Revision A.03,
 Gaussian 16:  EM64L-G16RevA.03 25-Dec-2016

 -------------
 #p 6-31g* mp2
 -------------

 ------------------------------------------------------
 Input file generated by CHIRIPA (05-May-2021 14:55:20)
 ------------------------------------------------------
 Symbolic Z-matrix:
 Charge =  0 Multiplicity = 1

                         Standard orientation:
 ---------------------------------------------------------------------
 Center     Atomic      Atomic             Coordinates (Angstroms)
 Number     Number       Type             X           Y           Z
 ---------------------------------------------------------------------
      1          6           0       -1.179267   -2.138852    1.005592
      2          6           0       -2.196818   -2.551191    0.138939
      3          6           0       -3.099857   -1.623213   -0.388246
      4          6           0       -2.955469   -0.284858   -0.025962
      5          6           0       -1.952188    0.156986    0.835136
      6          6           0       -1.060409   -0.788460    1.350317
      7          1           0       -0.482138   -2.866512    1.410459
      8          1           0       -2.291526   -3.599269   -0.130520
      9          1           0       -3.896902   -1.915061   -1.061270
     10          1           0       -1.883084    1.208657    1.085399
     11          1           0       -0.271140   -0.465362    2.023151
     12          7           0       -3.905516    0.706797   -0.577714
     13          8           0       -3.756945    1.880068   -0.243052
     14          8           0       -4.780745    0.292008   -1.334393
     15          6           0        4.221197    0.385432   -0.457477
     16          6           0        4.729537   -1.017011   -0.121723
     17          6           0        6.007795   -1.379355   -0.878396
     18          1           0        4.040698    0.453942   -1.538991
     19          1           0        5.006394    1.117986   -0.224609
     20          1           0        3.943111   -1.746574   -0.353858
     21          1           0        4.908666   -1.082249    0.959144
     22          1           0        6.810212   -0.674064   -0.639035
     23          1           0        5.839171   -1.342164   -1.959499
     24          1           0        6.353612   -2.385958   -0.623403
     25          6           0        2.943961    0.762204    0.291145
     26          6           0        2.435622    2.164646   -0.044611
     27          6           0        1.157363    2.526991    0.712063
     28          1           0        2.158765    0.029649    0.058276
     29          1           0        3.124461    0.693694    1.372659
     30          1           0        2.256493    2.229884   -1.125477
     31          1           0        3.222048    2.894209    0.187526
     32          1           0        1.325987    2.489799    1.793166
     33          1           0        0.354946    1.821700    0.472703
     34          1           0        0.811546    3.533594    0.457071
 ---------------------------------------------------------------------

 SCF Done:  E(RHF) =  -669.535143541     A.U. after   15 cycles
 E2 =    -0.2092540523D+01 EUMP2 =    -0.67162768406395D+03

 The electronic state is 1-A.
 Alpha  occ. eigenvalues --  -20.60770 -20.60764 -15.85823 -11.31203 -11.27781
 Alpha  occ. eigenvalues --  -11.27737 -11.27517 -11.26799 -11.26765 -11.22102
 Alpha  occ. eigenvalues --  -11.22048 -11.21937 -11.21827 -11.21576 -11.21477
 Alpha  occ. eigenvalues --   -1.59845  -1.39397  -1.19385  -1.08924  -1.08770
 Alpha  occ. eigenvalues --   -1.04796  -1.04003  -0.96470  -0.95603  -0.87493
 Alpha  occ. eigenvalues --   -0.86175  -0.82440  -0.80087  -0.78762  -0.77470
 Alpha  occ. eigenvalues --   -0.72041  -0.71170  -0.70491  -0.65552  -0.65034
 Alpha  occ. eigenvalues --   -0.64778  -0.62202  -0.61357  -0.59815  -0.58073
 Alpha  occ. eigenvalues --   -0.55778  -0.55271  -0.53183  -0.53149  -0.52927
 Alpha  occ. eigenvalues --   -0.52761  -0.50396  -0.48802  -0.48795  -0.48390
 Alpha  occ. eigenvalues --   -0.47102  -0.46292  -0.46207  -0.44798  -0.44257
 Alpha  occ. eigenvalues --   -0.37363  -0.36338
 Alpha virt. eigenvalues --    0.05005   0.11174   0.16403   0.20828   0.22544
 Alpha virt. eigenvalues --    0.23870   0.26069   0.26179   0.26803   0.28147
 Alpha virt. eigenvalues --    0.29066   0.30391   0.31168   0.31555   0.31682

 Mulliken charges:
               1
     1  C   -0.172097
     2  C   -0.218416
     3  C   -0.171182
     4  C    0.157289
     5  C   -0.173999
     6  C   -0.218326
     7  H    0.226136
     8  H    0.223549
     9  H    0.275690
    10  H    0.279497
    11  H    0.227439
    12  N    0.488077
    13  O   -0.459911
    14  O   -0.460524
    15  C   -0.298350
    16  C   -0.299650
    17  C   -0.475894
    18  H    0.152098
    19  H    0.151349
    20  H    0.149358
    21  H    0.150706
    22  H    0.156569
    23  H    0.156561
    24  H    0.160275
    25  C   -0.301672
    26  C   -0.298671
    27  C   -0.485215
    28  H    0.148838
    29  H    0.145862
    30  H    0.156174
    31  H    0.154042
    32  H    0.150729
    33  H    0.155372
    34  H    0.168295
 Sum of Mulliken charges =  -0.00000

 Dipole moment (field-independent basis, Debye):
    X=              3.3972    Y=             -3.4523    Z=              1.8711  Tot=              5.1924
 Quadrupole moment (field-independent basis, Debye-Ang):
   XX=           -114.3074   YY=            -90.1495   ZZ=            -93.9016
   XY=             12.1198   XZ=             -3.8949   YZ=              1.5867

 Normal termination of Gaussian 16 at Wed May  5 23:46:33 2021.
