 Gaussian 16, Revision A.03,
 Gaussian 16:  EM64L-G16RevA.03 25-Dec-2016

 -------------
 #p 6-31g* mp2
 -------------

 ------------------------------------------------------
 Input file generated by CHIRIPA (05-May-2021 14:57:25)
 ------------------------------------------------------
 Symbolic Z-matrix:
 Charge =  0 Multiplicity = 1

                         Standard orientation:
 ---------------------------------------------------------------------
 Center     Atomic      Atomic             Coordinates (Angstroms)
 Number     Number       Type             X           Y           Z
 ---------------------------------------------------------------------
      1          6           0        2.693734    2.102713   -0.477734
      2          6           0        4.072437    2.318545   -0.382247
      3          6           0        4.946233    1.246917   -0.175749
      4          6           0        4.404650   -0.033143   -0.068867
      5          6           0        3.035744   -0.280397   -0.159696
      6          6           0        2.180693    0.806217   -0.366350
      7          1           0        2.022229    2.941000   -0.638208
      8          1           0        4.473686    3.324342   -0.468370
      9          1           0        6.017750    1.385581   -0.098024
     10          1           0        2.665411   -1.294399   -0.069855
     11          1           0        1.110412    0.635620   -0.440109
     12          7           0        5.319777   -1.175560    0.149826
     13          8           0        4.817607   -2.293692    0.240621
     14          8           0        6.521895   -0.931223    0.226300
     15          6           0       -1.815195   -0.324636    0.729629
     16          6           0       -2.264603   -0.850840   -0.485963
     17          6           0       -3.613561   -0.762605   -0.842438
     18          6           0       -4.489584   -0.138754    0.044515
     19          6           0       -4.072389    0.395212    1.262759
     20          6           0       -2.718929    0.295616    1.598578
     21          1           0       -0.765544   -0.397591    0.998525
     22          1           0       -1.565008   -1.333079   -1.162760
     23          1           0       -3.988445   -1.161418   -1.777226
     24          1           0       -4.793551    0.870205    1.916767
     25          1           0       -2.372740    0.705170    2.543281
     26          7           0       -5.920049   -0.039332   -0.321935
     27          8           0       -6.671758    0.515117    0.476912
     28          8           0       -6.262452   -0.517735   -1.401068
 ---------------------------------------------------------------------

 SCF Done:  E(RHF) =  -868.336958127     A.U. after   16 cycles
 E2 =    -0.2599748721D+01 EUMP2 =    -0.87093670684778D+03

 The electronic state is 1-A.
 Alpha  occ. eigenvalues --  -20.61393 -20.61382 -20.61262 -20.61257 -15.86450
 Alpha  occ. eigenvalues --  -15.86319 -11.31930 -11.31833 -11.28597 -11.28481
 Alpha  occ. eigenvalues --  -11.28402 -11.28383 -11.28270 -11.28259 -11.27642
 Alpha  occ. eigenvalues --  -11.27518 -11.27485 -11.27461  -1.60464  -1.60334
 Alpha  occ. eigenvalues --   -1.40015  -1.39883  -1.20122  -1.20022  -1.09487
 Alpha  occ. eigenvalues --   -1.09413  -1.05561  -1.05434  -0.96300  -0.96221
 Alpha  occ. eigenvalues --   -0.86946  -0.86837  -0.83160  -0.83024  -0.78185
 Alpha  occ. eigenvalues --   -0.78038  -0.72664  -0.72535  -0.71790  -0.71658
 Alpha  occ. eigenvalues --   -0.71230  -0.71175  -0.65777  -0.65700  -0.65601
 Alpha  occ. eigenvalues --   -0.65400  -0.62920  -0.62760  -0.56113  -0.55924
 Alpha  occ. eigenvalues --   -0.53858  -0.53811  -0.53592  -0.53528  -0.49433
 Alpha  occ. eigenvalues --   -0.49414  -0.49306  -0.49280  -0.45396  -0.45254
 Alpha  occ. eigenvalues --   -0.38090  -0.38045  -0.37169  -0.37027
 Alpha virt. eigenvalues --    0.04374   0.04448   0.10463   0.10569   0.15715
 Alpha virt. eigenvalues --    0.15854   0.18628   0.21847   0.25078   0.26801
 Alpha virt. eigenvalues --    0.27563   0.28961   0.30134   0.31082   0.31703

 Mulliken charges:
               1
     1  C   -0.170830
     2  C   -0.218287
     3  C   -0.169596
     4  C    0.159214
     5  C   -0.172021
     6  C   -0.224163
     7  H    0.228656
     8  H    0.226423
     9  H    0.278167
    10  H    0.272566
    11  H    0.218771
    12  N    0.488108
    13  O   -0.460412
    14  O   -0.457862
    15  C   -0.176792
    16  C   -0.219866
    17  C   -0.170038
    18  C    0.159491
    19  C   -0.170508
    20  C   -0.218441
    21  H    0.222330
    22  H    0.222802
    23  H    0.278007
    24  H    0.277758
    25  H    0.225842
    26  N    0.487894
    27  O   -0.458637
    28  O   -0.458576
 Sum of Mulliken charges =  -0.00000

 Dipole moment (field-independent basis, Debye):
    X=              1.7993    Y=              3.7694    Z=              0.5225  Tot=              4.2093
 Quadrupole moment (field-independent basis, Debye-Ang):
   XX=           -174.0623   YY=           -102.6579   ZZ=           -101.8281
   XY=             21.4705   XZ=             -9.8436   YZ=              1.9062

 Normal termination of Gaussian 16 at Thu May  6 14:44:15 2021.
