 Gaussian 16, Revision A.03,
 Gaussian 16:  EM64L-G16RevA.03 25-Dec-2016

 -------------
 #p 6-31g* mp2
 -------------

 ------------------------------------------------------
 Input file generated by CHIRIPA (05-May-2021 14:51:11)
 ------------------------------------------------------
 Symbolic Z-matrix:
 Charge =  0 Multiplicity = 1

                         Standard orientation:
 ---------------------------------------------------------------------
 Center     Atomic      Atomic             Coordinates (Angstroms)
 Number     Number       Type             X           Y           Z
 ---------------------------------------------------------------------
      1          6           0        3.684623   -0.058508   -0.478139
      2          6           0        5.136308   -0.371601   -0.114038
      3          6           0        5.680736   -1.594171   -0.853439
      4          1           0        3.059796   -0.933523   -0.252564
      5          1           0        3.613032    0.105568   -1.562274
      6          1           0        5.205385   -0.533675    0.969279
      7          1           0        5.757722    0.504329   -0.340328
      8          1           0        5.640863   -1.438736   -1.936422
      9          1           0        5.085387   -2.482638   -0.619374
     10          1           0        6.719871   -1.799937   -0.578267
     11          6           0        3.126185    1.161061    0.252974
     12          6           0        1.674500    1.474153   -0.111127
     13          6           0        1.130072    2.696723    0.628274
     14          1           0        3.197776    0.996985    1.337109
     15          1           0        3.751012    2.036076    0.027398
     16          1           0        1.053086    0.598223    0.115163
     17          1           0        1.605424    1.636227   -1.194444
     18          1           0        1.725421    3.585190    0.394209
     19          1           0        1.169945    2.541289    1.711257
     20          1           0        0.090937    2.902489    0.353102
     21          6           0       -3.853433    0.003528   -0.161085
     22          6           0       -5.299660   -0.439752   -0.384496
     23          6           0       -6.183622    0.681151   -0.932204
     24          1           0       -3.840665    0.854910    0.533127
     25          1           0       -3.438222    0.368339   -1.110775
     26          1           0       -5.711577   -0.804909    0.565031
     27          1           0       -5.308972   -1.290300   -1.078108
     28          1           0       -5.799213    1.040716   -1.892176
     29          1           0       -6.204105    1.528865   -0.239701
     30          1           0       -7.213179    0.342473   -1.084421
     31          6           0       -2.957375   -1.106081    0.386251
     32          6           0       -1.511147   -0.662801    0.609660
     33          6           0       -0.627186   -1.783703    1.157370
     34          1           0       -3.372586   -1.470891    1.335939
     35          1           0       -2.970144   -1.957462   -0.307962
     36          1           0       -1.501835    0.187747    1.303273
     37          1           0       -1.099231   -0.297644   -0.339866
     38          1           0       -0.606704   -2.631417    0.464865
     39          1           0       -1.011595   -2.143268    2.117340
     40          1           0        0.402370   -1.445025    1.309586
 ---------------------------------------------------------------------

 SCF Done:  E(RHF) =  -470.732522757     A.U. after   11 cycles
 E2 =    -0.1583870599D+01 EUMP2 =    -0.47231639335619D+03

 The electronic state is 1-A.
 Alpha  occ. eigenvalues --  -11.21625 -11.21617 -11.21583 -11.21466 -11.21430
 Alpha  occ. eigenvalues --  -11.21373 -11.21370 -11.21308 -11.21155 -11.21083
 Alpha  occ. eigenvalues --  -11.21054 -11.21015  -1.08477  -1.08379  -1.03614
 Alpha  occ. eigenvalues --   -1.03449  -0.96033  -0.95935  -0.87041  -0.86954
 Alpha  occ. eigenvalues --   -0.79721  -0.79491  -0.78351  -0.78129  -0.65117
 Alpha  occ. eigenvalues --   -0.65030  -0.61027  -0.60916  -0.59501  -0.59181
 Alpha  occ. eigenvalues --   -0.57711  -0.57455  -0.55305  -0.55227  -0.52748
 Alpha  occ. eigenvalues --   -0.52610  -0.52477  -0.52345  -0.49976  -0.49864
 Alpha  occ. eigenvalues --   -0.48015  -0.47827  -0.46765  -0.46490  -0.45919
 Alpha  occ. eigenvalues --   -0.45770  -0.45697  -0.45443  -0.43826  -0.43737
 Alpha virt. eigenvalues --    0.20813   0.22999   0.23731   0.24785   0.25990
 Alpha virt. eigenvalues --    0.26447   0.26753   0.27255   0.28479   0.29158
 Alpha virt. eigenvalues --    0.30929   0.31351   0.31486   0.31859   0.32713

 Mulliken charges:
               1
     1  C   -0.299810
     2  C   -0.299501
     3  C   -0.475733
     4  H    0.150235
     5  H    0.149463
     6  H    0.151872
     7  H    0.151989
     8  H    0.155073
     9  H    0.155292
    10  H    0.160194
    11  C   -0.297250
    12  C   -0.311919
    13  C   -0.475349
    14  H    0.148720
    15  H    0.149375
    16  H    0.167249
    17  H    0.150572
    18  H    0.154743
    19  H    0.154242
    20  H    0.160727
    21  C   -0.298470
    22  C   -0.299684
    23  C   -0.475736
    24  H    0.149667
    25  H    0.149644
    26  H    0.151979
    27  H    0.151995
    28  H    0.155213
    29  H    0.155229
    30  H    0.160322
    31  C   -0.297473
    32  C   -0.304349
    33  C   -0.480374
    34  H    0.149459
    35  H    0.149735
    36  H    0.153833
    37  H    0.154896
    38  H    0.155874
    39  H    0.156131
    40  H    0.161925
 Sum of Mulliken charges =  -0.00000

 Dipole moment (field-independent basis, Debye):
    X=             -0.0468    Y=             -0.0208    Z=             -0.0018  Tot=              0.0513
 Quadrupole moment (field-independent basis, Debye-Ang):
   XX=            -85.6208   YY=            -85.6585   ZZ=            -83.6484
   XY=              1.0814   XZ=             -0.5401   YZ=             -0.3098

 Normal termination of Gaussian 16 at Wed May  5 18:14:37 2021.
