 Gaussian 16, Revision A.03,
 Gaussian 16:  EM64L-G16RevA.03 25-Dec-2016

 -------------
 #p 6-31g* mp2
 -------------

 ------------------------------------------------------
 Input file generated by CHIRIPA (05-May-2021 14:53:14)
 ------------------------------------------------------
 Symbolic Z-matrix:
 Charge =  0 Multiplicity = 1

                         Standard orientation:
 ---------------------------------------------------------------------
 Center     Atomic      Atomic             Coordinates (Angstroms)
 Number     Number       Type             X           Y           Z
 ---------------------------------------------------------------------
      1          6           0        2.675144    0.958810    0.095202
      2          6           0        2.797678    2.229568   -0.746312
      3          6           0        1.580765    3.145774   -0.614093
      4          1           0        1.769708    0.413791   -0.204940
      5          1           0        2.537422    1.237224    1.149200
      6          1           0        2.936514    1.948826   -1.798227
      7          1           0        3.703030    2.771528   -0.444264
      8          1           0        1.442293    3.454486    0.427120
      9          1           0        0.671422    2.627110   -0.934536
     10          1           0        1.689445    4.048099   -1.223894
     11          6           0        3.883992    0.032736   -0.026455
     12          6           0        3.761458   -1.238022    0.815058
     13          6           0        4.978372   -2.154229    0.682839
     14          1           0        4.021715   -0.245678   -1.080454
     15          1           0        4.789428    0.577754    0.273687
     16          1           0        2.856106   -1.779982    0.513010
     17          1           0        3.622622   -0.957281    1.866973
     18          1           0        5.887715   -1.635565    1.003283
     19          1           0        5.116843   -2.462940   -0.358373
     20          1           0        4.869692   -3.056554    1.292641
     21          6           0       -3.604536    1.772107    0.758162
     22          6           0       -4.375242    0.606793    0.690510
     23          6           0       -3.808182   -0.595325    0.257032
     24          6           0       -2.461390   -0.596088   -0.102746
     25          6           0       -1.667373    0.548303   -0.046228
     26          6           0       -2.255439    1.739200    0.390225
     27          1           0       -4.053200    2.701582    1.096054
     28          1           0       -5.423213    0.629387    0.975625
     29          1           0       -4.381770   -1.512152    0.195055
     30          1           0       -0.625289    0.494574   -0.337077
     31          1           0       -1.654480    2.642659    0.441758
     32          7           0       -1.849950   -1.862777   -0.563225
     33          8           0       -0.661241   -1.837102   -0.874592
     34          8           0       -2.570989   -2.857297   -0.604062
 ---------------------------------------------------------------------

 SCF Done:  E(RHF) =  -669.535630344     A.U. after   15 cycles
 E2 =    -0.2092643134D+01 EUMP2 =    -0.67162827347719D+03

 The electronic state is 1-A.
 Alpha  occ. eigenvalues --  -20.60816 -20.60809 -15.85858 -11.31158 -11.27729
 Alpha  occ. eigenvalues --  -11.27683 -11.27455 -11.26738 -11.26682 -11.21943
 Alpha  occ. eigenvalues --  -11.21842 -11.21521 -11.21229 -11.21145 -11.20664
 Alpha  occ. eigenvalues --   -1.59882  -1.39439  -1.19327  -1.08734  -1.08451
 Alpha  occ. eigenvalues --   -1.04723  -1.03572  -0.96072  -0.95582  -0.87101
 Alpha  occ. eigenvalues --   -0.86122  -0.82417  -0.79687  -0.78216  -0.77444
 Alpha  occ. eigenvalues --   -0.72081  -0.71199  -0.70453  -0.65121  -0.64982
 Alpha  occ. eigenvalues --   -0.64691  -0.62126  -0.60920  -0.59474  -0.57646
 Alpha  occ. eigenvalues --   -0.55384  -0.55231  -0.53058  -0.52925  -0.52718
 Alpha  occ. eigenvalues --   -0.52440  -0.50036  -0.48838  -0.48832  -0.47969
 Alpha  occ. eigenvalues --   -0.46670  -0.45738  -0.45582  -0.44848  -0.43801
 Alpha  occ. eigenvalues --   -0.37309  -0.36316
 Alpha virt. eigenvalues --    0.05038   0.11325   0.16519   0.19871   0.23062
 Alpha virt. eigenvalues --    0.24029   0.25482   0.26074   0.27298   0.28315
 Alpha virt. eigenvalues --    0.30216   0.30370   0.31324   0.31685   0.32111

 Mulliken charges:
               1
     1  C   -0.310363
     2  C   -0.299436
     3  C   -0.482142
     4  H    0.159473
     5  H    0.147525
     6  H    0.156438
     7  H    0.154273
     8  H    0.153372
     9  H    0.148109
    10  H    0.164522
    11  C   -0.296633
    12  C   -0.304258
    13  C   -0.475823
    14  H    0.152791
    15  H    0.147912
    16  H    0.166582
    17  H    0.148637
    18  H    0.152163
    19  H    0.156828
    20  H    0.161384
    21  C   -0.170445
    22  C   -0.219101
    23  C   -0.169867
    24  C    0.156992
    25  C   -0.180297
    26  C   -0.225961
    27  H    0.225669
    28  H    0.223295
    29  H    0.275378
    30  H    0.290742
    31  H    0.228456
    32  N    0.487660
    33  O   -0.464221
    34  O   -0.459655
 Sum of Mulliken charges =  -0.00000

 Dipole moment (field-independent basis, Debye):
    X=             -2.0583    Y=              4.3686    Z=              1.5798  Tot=              5.0810
 Quadrupole moment (field-independent basis, Debye-Ang):
   XX=            -80.6603   YY=            -99.7987   ZZ=            -95.2918
   XY=             -6.7590   XZ=             -4.4500   YZ=             -1.3805

 Normal termination of Gaussian 16 at Wed May  5 20:12:56 2021.
