 Gaussian 16, Revision A.03,
 Gaussian 16:  EM64L-G16RevA.03 25-Dec-2016

 -------------
 #p 6-31g* mp2
 -------------

 ------------------------------------------------------
 Input file generated by CHIRIPA (05-May-2021 14:55:20)
 ------------------------------------------------------
 Symbolic Z-matrix:
 Charge =  0 Multiplicity = 1

                         Standard orientation:
 ---------------------------------------------------------------------
 Center     Atomic      Atomic             Coordinates (Angstroms)
 Number     Number       Type             X           Y           Z
 ---------------------------------------------------------------------
      1          6           0       -1.904254    0.139285    0.316438
      2          6           0       -2.656974    1.318226    0.310887
      3          6           0       -4.042687    1.275033    0.130662
      4          6           0       -4.645775    0.030130   -0.041942
      5          6           0       -3.923183   -1.161990   -0.041250
      6          6           0       -2.538642   -1.094885    0.140662
      7          1           0       -0.828254    0.182126    0.457095
      8          1           0       -2.166979    2.278111    0.447163
      9          1           0       -4.649561    2.172278    0.122096
     10          1           0       -4.439867   -2.103970   -0.179558
     11          1           0       -1.956601   -2.012086    0.144525
     12          7           0       -6.112147   -0.028255   -0.233630
     13          8           0       -6.619632   -1.137579   -0.383617
     14          8           0       -6.726238    1.036413   -0.230259
     15          6           0        6.246177    0.357085   -0.201688
     16          6           0        7.566143   -0.400717   -0.055363
     17          6           0        8.775157    0.428602   -0.489310
     18          1           0        6.123049    0.667575   -1.248292
     19          1           0        6.292653    1.278971    0.394434
     20          1           0        7.516675   -1.321587   -0.650483
     21          1           0        7.686052   -0.709605    0.990976
     22          1           0        8.852577    1.340440    0.111654
     23          1           0        8.682237    0.724982   -1.539132
     24          1           0        9.708150   -0.132332   -0.376452
     25          6           0        5.028317   -0.458851    0.228183
     26          6           0        3.708351    0.298952    0.081857
     27          6           0        2.499337   -0.530368    0.515805
     28          1           0        4.981841   -1.380736   -0.367940
     29          1           0        5.151444   -0.769341    1.274787
     30          1           0        3.588441    0.607840   -0.964482
     31          1           0        3.757819    1.219821    0.676978
     32          1           0        2.592257   -0.826747    1.565627
     33          1           0        2.421917   -1.442205   -0.085160
     34          1           0        1.566344    0.030567    0.402947
 ---------------------------------------------------------------------

 SCF Done:  E(RHF) =  -669.535552120     A.U. after   15 cycles
 E2 =    -0.2090604779D+01 EUMP2 =    -0.67162615689880D+03

 The electronic state is 1-A.
 Alpha  occ. eigenvalues --  -20.60721 -20.60716 -15.85774 -11.31130 -11.27702
 Alpha  occ. eigenvalues --  -11.27697 -11.27414 -11.26711 -11.26697 -11.22526
 Alpha  occ. eigenvalues --  -11.22326 -11.22111 -11.22083 -11.21950 -11.21474
 Alpha  occ. eigenvalues --   -1.59797  -1.39350  -1.19302  -1.09124  -1.08696
 Alpha  occ. eigenvalues --   -1.04705  -1.04268  -0.96740  -0.95534  -0.87764
 Alpha  occ. eigenvalues --   -0.86100  -0.82369  -0.80338  -0.78893  -0.77417
 Alpha  occ. eigenvalues --   -0.71992  -0.71120  -0.70427  -0.65745  -0.64952
 Alpha  occ. eigenvalues --   -0.64710  -0.62054  -0.61651  -0.60186  -0.58339
 Alpha  occ. eigenvalues --   -0.56007  -0.55259  -0.53411  -0.53145  -0.53033
 Alpha  occ. eigenvalues --   -0.52796  -0.50660  -0.48754  -0.48748  -0.48646
 Alpha  occ. eigenvalues --   -0.47345  -0.46447  -0.46341  -0.44758  -0.44518
 Alpha  occ. eigenvalues --   -0.37277  -0.36312
 Alpha virt. eigenvalues --    0.05119   0.11344   0.16610   0.19863   0.22357
 Alpha virt. eigenvalues --    0.23707   0.25733   0.26005   0.26824   0.27368
 Alpha virt. eigenvalues --    0.28297   0.30295   0.30726   0.31396   0.32527

 Mulliken charges:
               1
     1  C   -0.177795
     2  C   -0.221737
     3  C   -0.170679
     4  C    0.158211
     5  C   -0.170762
     6  C   -0.222301
     7  H    0.238307
     8  H    0.223576
     9  H    0.275371
    10  H    0.275411
    11  H    0.224204
    12  N    0.487974
    13  O   -0.460583
    14  O   -0.460608
    15  C   -0.298810
    16  C   -0.300142
    17  C   -0.476067
    18  H    0.150579
    19  H    0.150263
    20  H    0.152605
    21  H    0.152576
    22  H    0.155679
    23  H    0.155777
    24  H    0.161665
    25  C   -0.299557
    26  C   -0.298679
    27  C   -0.481957
    28  H    0.150741
    29  H    0.150911
    30  H    0.153949
    31  H    0.153338
    32  H    0.159206
    33  H    0.157872
    34  H    0.151465
 Sum of Mulliken charges =  -0.00000

 Dipole moment (field-independent basis, Debye):
    X=              5.4411    Y=              0.1844    Z=              0.6731  Tot=              5.4857
 Quadrupole moment (field-independent basis, Debye-Ang):
   XX=           -143.3817   YY=            -89.8316   ZZ=            -94.8371
   XY=             -1.5279   XZ=             -3.0315   YZ=              0.8925

 Normal termination of Gaussian 16 at Thu May  6 12:26:44 2021.
