 Gaussian 16, Revision A.03,
 Gaussian 16:  EM64L-G16RevA.03 25-Dec-2016

 -------------
 #p 6-31g* mp2
 -------------

 ------------------------------------------------------
 Input file generated by CHIRIPA (05-May-2021 14:51:11)
 ------------------------------------------------------
 Symbolic Z-matrix:
 Charge =  0 Multiplicity = 1

                         Standard orientation:
 ---------------------------------------------------------------------
 Center     Atomic      Atomic             Coordinates (Angstroms)
 Number     Number       Type             X           Y           Z
 ---------------------------------------------------------------------
      1          6           0       -2.985065   -0.276814   -0.556271
      2          6           0       -4.433652    0.175604   -0.743082
      3          6           0       -4.697200    0.755788   -2.132947
      4          1           0       -2.315603    0.576346   -0.732007
      5          1           0       -2.741399   -1.027905   -1.320395
      6          1           0       -4.674941    0.924604    0.022029
      7          1           0       -5.099754   -0.678686   -0.566693
      8          1           0       -4.483775    0.012192   -2.907619
      9          1           0       -4.056548    1.624592   -2.315551
     10          1           0       -5.738762    1.072818   -2.244754
     11          6           0       -2.706012   -0.859127    0.828203
     12          6           0       -1.257425   -1.311545    1.015014
     13          6           0       -0.993878   -1.891729    2.404879
     14          1           0       -2.949679   -0.108036    1.592327
     15          1           0       -3.375475   -1.712287    1.003939
     16          1           0       -0.591324   -0.457255    0.838625
     17          1           0       -1.016137   -2.060545    0.249903
     18          1           0       -1.634529   -2.760533    2.587484
     19          1           0       -1.207303   -1.148133    3.179551
     20          1           0        0.047684   -2.208759    2.516686
     21          6           0        3.208814    0.296876   -0.750759
     22          6           0        3.850391   -1.071979   -0.521415
     23          6           0        4.573379   -1.601041   -1.760438
     24          1           0        2.501178    0.227393   -1.588237
     25          1           0        3.985526    1.011543   -1.056316
     26          1           0        3.072922   -1.783522   -0.215042
     27          1           0        4.556440   -0.999273    0.315738
     28          1           0        5.368858   -0.913379   -2.065286
     29          1           0        3.876912   -1.702083   -2.599082
     30          1           0        5.024618   -2.580625   -1.574269
     31          6           0        2.482264    0.839064    0.478827
     32          6           0        1.840686    2.207920    0.249483
     33          6           0        1.117699    2.736982    1.488506
     34          1           0        1.705552    0.124397    0.784384
     35          1           0        3.189900    0.908549    1.316305
     36          1           0        1.134637    2.135214   -0.587670
     37          1           0        2.618156    2.919463   -0.056890
     38          1           0        1.814167    2.838025    2.327150
     39          1           0        0.322219    2.049320    1.793354
     40          1           0        0.666459    3.716566    1.302336
 ---------------------------------------------------------------------

 SCF Done:  E(RHF) =  -470.733260484     A.U. after   11 cycles
 E2 =    -0.1583426959D+01 EUMP2 =    -0.47231668744228D+03

 The electronic state is 1-A.
 Alpha  occ. eigenvalues --  -11.21665 -11.21634 -11.21630 -11.21591 -11.21456
 Alpha  occ. eigenvalues --  -11.21397 -11.21385 -11.21324 -11.21127 -11.21120
 Alpha  occ. eigenvalues --  -11.21097 -11.21063  -1.08493  -1.08422  -1.03591
 Alpha  occ. eigenvalues --   -1.03533  -0.96027  -0.95986  -0.87040  -0.87005
 Alpha  occ. eigenvalues --   -0.79676  -0.79581  -0.78352  -0.78189  -0.65263
 Alpha  occ. eigenvalues --   -0.64942  -0.61112  -0.60813  -0.59410  -0.59338
 Alpha  occ. eigenvalues --   -0.57662  -0.57577  -0.55326  -0.55261  -0.52719
 Alpha  occ. eigenvalues --   -0.52685  -0.52450  -0.52413  -0.49988  -0.49921
 Alpha  occ. eigenvalues --   -0.48046  -0.47883  -0.46863  -0.46539  -0.46037
 Alpha  occ. eigenvalues --   -0.45789  -0.45752  -0.45329  -0.43830  -0.43788
 Alpha virt. eigenvalues --    0.19753   0.23070   0.23867   0.24223   0.26017
 Alpha virt. eigenvalues --    0.26487   0.26921   0.27956   0.28426   0.29301
 Alpha virt. eigenvalues --    0.30401   0.31658   0.31673   0.31868   0.32019

 Mulliken charges:
               1
     1  C   -0.298566
     2  C   -0.299700
     3  C   -0.475778
     4  H    0.149462
     5  H    0.149479
     6  H    0.152212
     7  H    0.152076
     8  H    0.155154
     9  H    0.155256
    10  H    0.160432
    11  C   -0.297595
    12  C   -0.308551
    13  C   -0.476261
    14  H    0.149743
    15  H    0.149989
    16  H    0.158978
    17  H    0.151788
    18  H    0.155719
    19  H    0.155550
    20  H    0.160921
    21  C   -0.297777
    22  C   -0.299814
    23  C   -0.475717
    24  H    0.149878
    25  H    0.149398
    26  H    0.152092
    27  H    0.151839
    28  H    0.155156
    29  H    0.155242
    30  H    0.160173
    31  C   -0.306146
    32  C   -0.299644
    33  C   -0.477836
    34  H    0.157386
    35  H    0.149660
    36  H    0.151567
    37  H    0.152347
    38  H    0.155748
    39  H    0.155838
    40  H    0.160301
 Sum of Mulliken charges =  -0.00000

 Dipole moment (field-independent basis, Debye):
    X=             -0.0123    Y=             -0.0102    Z=              0.0080  Tot=              0.0179
 Quadrupole moment (field-independent basis, Debye-Ang):
   XX=            -84.3847   YY=            -84.1642   ZZ=            -86.1378
   XY=              1.0896   XZ=              0.4849   YZ=              0.4610

 Normal termination of Gaussian 16 at Wed May  5 21:27:44 2021.
