 Gaussian 16, Revision A.03,
 Gaussian 16:  EM64L-G16RevA.03 25-Dec-2016

 -------------
 #p 6-31g* mp2
 -------------

 ------------------------------------------------------
 Input file generated by CHIRIPA (05-May-2021 14:53:14)
 ------------------------------------------------------
 Symbolic Z-matrix:
 Charge =  0 Multiplicity = 1

                         Standard orientation:
 ---------------------------------------------------------------------
 Center     Atomic      Atomic             Coordinates (Angstroms)
 Number     Number       Type             X           Y           Z
 ---------------------------------------------------------------------
      1          6           0        4.743131   -0.411047   -0.368870
      2          6           0        4.809700   -1.737102    0.389504
      3          6           0        5.900963   -2.667394   -0.141056
      4          1           0        4.568089   -0.613694   -1.434346
      5          1           0        5.718378    0.090801   -0.302249
      6          1           0        3.834203   -2.235651    0.322639
      7          1           0        4.984413   -1.531266    1.453329
      8          1           0        6.884495   -2.193507   -0.059219
      9          1           0        5.727750   -2.901894   -1.196332
     10          1           0        5.930909   -3.609412    0.415330
     11          6           0        3.657037    0.529684    0.149929
     12          6           0        3.590468    1.855739   -0.608445
     13          6           0        2.499205    2.786031   -0.077885
     14          1           0        2.681790    0.027837    0.083308
     15          1           0        3.832079    0.732332    1.215405
     16          1           0        3.415755    1.649903   -1.672270
     17          1           0        4.565965    2.354288   -0.541580
     18          1           0        2.672418    3.020532    0.977391
     19          1           0        1.515673    2.312145   -0.159722
     20          1           0        2.469259    3.728049   -0.634271
     21          6           0       -5.372097   -1.219266   -0.701121
     22          6           0       -4.548178   -0.564304   -1.622372
     23          6           0       -3.387292    0.088861   -1.197796
     24          6           0       -3.079187    0.067051    0.161574
     25          6           0       -3.879832   -0.576765    1.103782
     26          6           0       -5.035887   -1.223399    0.656624
     27          1           0       -6.272024   -1.724123   -1.039713
     28          1           0       -4.806799   -0.559458   -2.677426
     29          1           0       -2.731579    0.603620   -1.889519
     30          1           0       -3.595841   -0.564353    2.149064
     31          1           0       -5.673880   -1.731242    1.374331
     32          7           0       -1.852766    0.755070    0.623007
     33          8           0       -1.603433    0.721300    1.826057
     34          8           0       -1.164052    1.315083   -0.227108
 ---------------------------------------------------------------------

 SCF Done:  E(RHF) =  -669.536407860     A.U. after   15 cycles
 E2 =    -0.2090955023D+01 EUMP2 =    -0.67162736288266D+03

 The electronic state is 1-A.
 Alpha  occ. eigenvalues --  -20.61027 -20.61010 -15.86044 -11.31341 -11.27899
 Alpha  occ. eigenvalues --  -11.27895 -11.27631 -11.26900 -11.26890 -11.20921
 Alpha  occ. eigenvalues --  -11.20549 -11.20541 -11.20356 -11.20232 -11.19294
 Alpha  occ. eigenvalues --   -1.60073  -1.39630  -1.19504  -1.08914  -1.07452
 Alpha  occ. eigenvalues --   -1.04896  -1.02494  -0.95760  -0.94920  -0.86298
 Alpha  occ. eigenvalues --   -0.85931  -0.82594  -0.78600  -0.77649  -0.77211
 Alpha  occ. eigenvalues --   -0.72264  -0.71384  -0.70612  -0.65160  -0.64899
 Alpha  occ. eigenvalues --   -0.64091  -0.62243  -0.59891  -0.58368  -0.56527
 Alpha  occ. eigenvalues --   -0.55403  -0.54196  -0.53230  -0.52987  -0.51636
 Alpha  occ. eigenvalues --   -0.51335  -0.49195  -0.49012  -0.48669  -0.46866
 Alpha  occ. eigenvalues --   -0.45630  -0.45055  -0.44756  -0.44617  -0.42764
 Alpha  occ. eigenvalues --   -0.37482  -0.36496
 Alpha virt. eigenvalues --    0.04878   0.11160   0.16382   0.21296   0.23775
 Alpha virt. eigenvalues --    0.25419   0.27218   0.27606   0.28161   0.28454
 Alpha virt. eigenvalues --    0.29173   0.30866   0.32328   0.32519   0.32654

 Mulliken charges:
               1
     1  C   -0.297544
     2  C   -0.298741
     3  C   -0.475064
     4  H    0.146991
     5  H    0.147177
     6  H    0.151205
     7  H    0.151804
     8  H    0.154245
     9  H    0.153526
    10  H    0.157962
    11  C   -0.298053
    12  C   -0.298171
    13  C   -0.488180
    14  H    0.154915
    15  H    0.149198
    16  H    0.147405
    17  H    0.145693
    18  H    0.151368
    19  H    0.186879
    20  H    0.151924
    21  C   -0.170491
    22  C   -0.218549
    23  C   -0.170841
    24  C    0.157489
    25  C   -0.170440
    26  C   -0.218610
    27  H    0.226168
    28  H    0.223983
    29  H    0.275836
    30  H    0.276052
    31  H    0.224001
    32  N    0.490466
    33  O   -0.457934
    34  O   -0.461665
 Sum of Mulliken charges =  -0.00000

 Dipole moment (field-independent basis, Debye):
    X=             -4.7358    Y=             -2.4471    Z=             -1.5630  Tot=              5.5551
 Quadrupole moment (field-independent basis, Debye-Ang):
   XX=            -69.9584   YY=            -96.5054   ZZ=            -90.5810
   XY=              8.4627   XZ=              4.1831   YZ=             -1.8362

 Normal termination of Gaussian 16 at Wed May  5 23:27:29 2021.
