 Gaussian 16, Revision A.03,
 Gaussian 16:  EM64L-G16RevA.03 25-Dec-2016

 -------------
 #p 6-31g* mp2
 -------------

 ------------------------------------------------------
 Input file generated by CHIRIPA (05-May-2021 14:53:17)
 ------------------------------------------------------
 Symbolic Z-matrix:
 Charge =  0 Multiplicity = 1

                         Standard orientation:
 ---------------------------------------------------------------------
 Center     Atomic      Atomic             Coordinates (Angstroms)
 Number     Number       Type             X           Y           Z
 ---------------------------------------------------------------------
      1          6           0        3.638563    0.474679   -0.319306
      2          6           0        3.053400    1.881829   -0.194813
      3          6           0        1.561266    1.932860   -0.524548
      4          1           0        3.474495    0.105288   -1.340862
      5          1           0        3.090823   -0.203190    0.349924
      6          1           0        3.602986    2.557127   -0.863053
      7          1           0        3.219050    2.247989    0.826511
      8          1           0        0.995273    1.281905    0.149626
      9          1           0        1.381391    1.592799   -1.549538
     10          1           0        1.163531    2.948031   -0.429184
     11          6           0        5.129408    0.407470    0.007176
     12          6           0        5.714571   -0.999681   -0.117317
     13          6           0        7.206705   -1.050711    0.212418
     14          1           0        5.677148    1.085339   -0.662055
     15          1           0        5.293476    0.776861    1.028732
     16          1           0        5.548921   -1.365840   -1.138642
     17          1           0        5.164986   -1.674979    0.550922
     18          1           0        7.386581   -0.710651    1.237408
     19          1           0        7.772698   -0.399756   -0.461756
     20          1           0        7.604440   -2.065882    0.117054
     21          6           0       -1.196484   -1.470660    0.484768
     22          6           0       -2.196160   -2.117202   -0.249503
     23          6           0       -3.434721   -1.502766   -0.456827
     24          6           0       -3.640432   -0.235725    0.086848
     25          6           0       -2.664358    0.434155    0.822938
     26          6           0       -1.433356   -0.199287    1.017705
     27          1           0       -0.237276   -1.955352    0.640944
     28          1           0       -2.015004   -3.104599   -0.664563
     29          1           0       -4.226220   -1.980607   -1.021286
     30          1           0       -2.874462    1.418110    1.224319
     31          1           0       -0.658837    0.305204    1.588367
     32          7           0       -4.947640    0.424812   -0.125990
     33          8           0       -5.103950    1.541355    0.363433
     34          8           0       -5.791167   -0.186511   -0.778204
 ---------------------------------------------------------------------

 SCF Done:  E(RHF) =  -669.535080143     A.U. after   15 cycles
 E2 =    -0.2091484276D+01 EUMP2 =    -0.67162656441890D+03

 The electronic state is 1-A.
 Alpha  occ. eigenvalues --  -20.60748 -20.60743 -15.85802 -11.31173 -11.27746
 Alpha  occ. eigenvalues --  -11.27740 -11.27493 -11.26761 -11.26750 -11.22261
 Alpha  occ. eigenvalues --  -11.22177 -11.22123 -11.21971 -11.21750 -11.21546
 Alpha  occ. eigenvalues --   -1.59823  -1.39377  -1.19350  -1.09078  -1.08745
 Alpha  occ. eigenvalues --   -1.04759  -1.04145  -0.96598  -0.95576  -0.87616
 Alpha  occ. eigenvalues --   -0.86156  -0.82410  -0.80210  -0.78896  -0.77457
 Alpha  occ. eigenvalues --   -0.72021  -0.71146  -0.70455  -0.65727  -0.65004
 Alpha  occ. eigenvalues --   -0.64788  -0.62156  -0.61510  -0.59960  -0.58204
 Alpha  occ. eigenvalues --   -0.55922  -0.55246  -0.53297  -0.53208  -0.52967
 Alpha  occ. eigenvalues --   -0.52756  -0.50520  -0.48785  -0.48775  -0.48510
 Alpha  occ. eigenvalues --   -0.47244  -0.46432  -0.46362  -0.44781  -0.44406
 Alpha  occ. eigenvalues --   -0.37314  -0.36332
 Alpha virt. eigenvalues --    0.05084   0.11180   0.16549   0.20073   0.22563
 Alpha virt. eigenvalues --    0.23852   0.25626   0.26484   0.26704   0.28223
 Alpha virt. eigenvalues --    0.28769   0.30197   0.31106   0.31469   0.31696

 Mulliken charges:
               1
     1  C   -0.296601
     2  C   -0.300590
     3  C   -0.477586
     4  H    0.151201
     5  H    0.140880
     6  H    0.155474
     7  H    0.151563
     8  H    0.146988
     9  H    0.159199
    10  H    0.163363
    11  C   -0.298571
    12  C   -0.299707
    13  C   -0.475987
    14  H    0.152014
    15  H    0.150294
    16  H    0.152456
    17  H    0.149513
    18  H    0.155810
    19  H    0.156646
    20  H    0.161197
    21  C   -0.170873
    22  C   -0.218657
    23  C   -0.170719
    24  C    0.158355
    25  C   -0.171708
    26  C   -0.215507
    27  H    0.225916
    28  H    0.223448
    29  H    0.275593
    30  H    0.275851
    31  H    0.223500
    32  N    0.488107
    33  O   -0.460353
    34  O   -0.460510
 Sum of Mulliken charges =  -0.00000

 Dipole moment (field-independent basis, Debye):
    X=              4.7062    Y=             -2.2886    Z=              0.6832  Tot=              5.2776
 Quadrupole moment (field-independent basis, Debye-Ang):
   XX=           -129.0145   YY=            -90.6591   ZZ=            -92.9329
   XY=              9.2454   XZ=             -1.9842   YZ=              1.8397

 Normal termination of Gaussian 16 at Wed May  5 18:45:19 2021.
