 Gaussian 16, Revision A.03,
 Gaussian 16:  EM64L-G16RevA.03 25-Dec-2016

 -------------
 #p 6-31g* mp2
 -------------

 ------------------------------------------------------
 Input file generated by CHIRIPA (05-May-2021 14:51:11)
 ------------------------------------------------------
 Symbolic Z-matrix:
 Charge =  0 Multiplicity = 1

                         Standard orientation:
 ---------------------------------------------------------------------
 Center     Atomic      Atomic             Coordinates (Angstroms)
 Number     Number       Type             X           Y           Z
 ---------------------------------------------------------------------
      1          6           0        5.048972    0.206749    0.226313
      2          6           0        5.805522   -0.845918   -0.584557
      3          6           0        7.175106   -1.177393    0.008872
      4          1           0        5.655614    1.120786    0.285185
      5          1           0        4.925560   -0.153419    1.257062
      6          1           0        5.926258   -0.484468   -1.613825
      7          1           0        5.196925   -1.757490   -0.641668
      8          1           0        7.070265   -1.562290    1.028413
      9          1           0        7.803741   -0.282035    0.050733
     10          1           0        7.698625   -1.931957   -0.586461
     11          6           0        3.678004    0.548729   -0.354399
     12          6           0        2.921454    1.601396    0.456470
     13          6           0        1.551870    1.932871   -0.136959
     14          1           0        3.801416    0.908897   -1.385148
     15          1           0        3.071362   -0.365308   -0.413272
     16          1           0        3.530051    2.512968    0.513582
     17          1           0        2.800719    1.239946    1.485739
     18          1           0        0.923235    1.037513   -0.178819
     19          1           0        1.656711    2.317768   -1.156500
     20          1           0        1.028351    2.687435    0.458375
     21          6           0       -3.687496   -0.604685   -0.209748
     22          6           0       -2.594525   -0.677005    0.857104
     23          6           0       -1.247984   -1.132533    0.293975
     24          1           0       -3.799513   -1.592008   -0.678353
     25          1           0       -3.369408    0.084228   -1.004490
     26          1           0       -2.915178   -1.364515    1.650280
     27          1           0       -2.485231    0.310557    1.323355
     28          1           0       -0.902230   -0.443048   -0.482984
     29          1           0       -1.334620   -2.127637   -0.154203
     30          1           0       -0.481174   -1.177188    1.073634
     31          6           0       -5.039480   -0.150793    0.337834
     32          6           0       -6.132451   -0.078473   -0.729017
     33          6           0       -7.478992    0.377055   -0.165889
     34          1           0       -5.357569   -0.839706    1.132575
     35          1           0       -4.927464    0.836530    0.806439
     36          1           0       -6.241747   -1.066035   -1.195270
     37          1           0       -5.811798    0.609037   -1.522193
     38          1           0       -7.392355    1.372160    0.282288
     39          1           0       -7.824747   -0.312430    0.611070
     40          1           0       -8.245802    0.421710   -0.945548
 ---------------------------------------------------------------------

 SCF Done:  E(RHF) =  -470.733144279     A.U. after   11 cycles
 E2 =    -0.1582414895D+01 EUMP2 =    -0.47231555917370D+03

 The electronic state is 1-A.
 Alpha  occ. eigenvalues --  -11.21623 -11.21602 -11.21574 -11.21555 -11.21411
 Alpha  occ. eigenvalues --  -11.21367 -11.21352 -11.21306 -11.21113 -11.21071
 Alpha  occ. eigenvalues --  -11.21050 -11.20969  -1.08441  -1.08390  -1.03555
 Alpha  occ. eigenvalues --   -1.03481  -0.96025  -0.95916  -0.87059  -0.86920
 Alpha  occ. eigenvalues --   -0.79645  -0.79522  -0.78254  -0.78201  -0.65094
 Alpha  occ. eigenvalues --   -0.65003  -0.61066  -0.60790  -0.59368  -0.59304
 Alpha  occ. eigenvalues --   -0.57621  -0.57545  -0.55502  -0.55042  -0.52717
 Alpha  occ. eigenvalues --   -0.52632  -0.52471  -0.52308  -0.50148  -0.49667
 Alpha  occ. eigenvalues --   -0.47968  -0.47825  -0.46739  -0.46457  -0.45811
 Alpha  occ. eigenvalues --   -0.45751  -0.45702  -0.45621  -0.43798  -0.43744
 Alpha virt. eigenvalues --    0.21922   0.23019   0.23621   0.24935   0.26224
 Alpha virt. eigenvalues --    0.26701   0.27155   0.27572   0.27761   0.28997
 Alpha virt. eigenvalues --    0.30671   0.31398   0.31745   0.31818   0.32293

 Mulliken charges:
               1
     1  C   -0.298248
     2  C   -0.299655
     3  C   -0.475681
     4  H    0.149533
     5  H    0.149386
     6  H    0.151865
     7  H    0.152057
     8  H    0.155126
     9  H    0.155111
    10  H    0.160176
    11  C   -0.298635
    12  C   -0.298840
    13  C   -0.484105
    14  H    0.149326
    15  H    0.150309
    16  H    0.151575
    17  H    0.151450
    18  H    0.164690
    19  H    0.154270
    20  H    0.159294
    21  C   -0.298735
    22  C   -0.299676
    23  C   -0.480323
    24  H    0.149602
    25  H    0.150192
    26  H    0.151992
    27  H    0.152772
    28  H    0.159509
    29  H    0.155555
    30  H    0.159966
    31  C   -0.298361
    32  C   -0.299691
    33  C   -0.475719
    34  H    0.149480
    35  H    0.149804
    36  H    0.151918
    37  H    0.152059
    38  H    0.155223
    39  H    0.155154
    40  H    0.160275
 Sum of Mulliken charges =  -0.00000

 Dipole moment (field-independent basis, Debye):
    X=             -0.0382    Y=             -0.0212    Z=             -0.0050  Tot=              0.0440
 Quadrupole moment (field-independent basis, Debye-Ang):
   XX=            -86.7299   YY=            -83.5736   ZZ=            -84.6098
   XY=              1.1849   XZ=             -0.3395   YZ=             -0.5872

 Normal termination of Gaussian 16 at Wed May  5 19:51:26 2021.
