 Gaussian 16, Revision A.03,
 Gaussian 16:  EM64L-G16RevA.03 25-Dec-2016

 -------------
 #p 6-31g* mp2
 -------------

 ------------------------------------------------------
 Input file generated by CHIRIPA (05-May-2021 14:51:13)
 ------------------------------------------------------
 Symbolic Z-matrix:
 Charge =  0 Multiplicity = 1

                         Standard orientation:
 ---------------------------------------------------------------------
 Center     Atomic      Atomic             Coordinates (Angstroms)
 Number     Number       Type             X           Y           Z
 ---------------------------------------------------------------------
      1          6           0        3.030032   -0.374467    0.202756
      2          6           0        2.710891   -1.804018   -0.236012
      3          6           0        1.303695   -2.245845    0.166953
      4          1           0        2.918559   -0.298822    1.293075
      5          1           0        2.290318    0.309880   -0.235296
      6          1           0        3.451804   -2.485302    0.201615
      7          1           0        2.823323   -1.876317   -1.325392
      8          1           0        0.550695   -1.589734   -0.281501
      9          1           0        1.182747   -2.202179    1.254182
     10          1           0        1.096628   -3.270702   -0.156545
     11          6           0        4.433291    0.081671   -0.192882
     12          6           0        4.752432    1.511222    0.245886
     13          6           0        6.159628    1.953049   -0.157080
     14          1           0        5.173005   -0.602675    0.245169
     15          1           0        4.544764    0.006026   -1.283202
     16          1           0        4.640000    1.583521    1.335265
     17          1           0        4.011519    2.192506   -0.191741
     18          1           0        6.280576    1.909383   -1.244308
     19          1           0        6.912628    1.296938    0.291374
     20          1           0        6.366695    2.977906    0.166419
     21          6           0       -3.612628    0.879304    0.174258
     22          6           0       -4.739589    1.806073   -0.282955
     23          6           0       -4.486964    3.269021    0.082776
     24          1           0       -3.489823    0.970837    1.262139
     25          1           0       -2.667507    1.212882   -0.276150
     26          1           0       -5.682537    1.470017    0.167081
     27          1           0       -4.859854    1.712180   -1.369848
     28          1           0       -3.560916    3.627068   -0.378566
     29          1           0       -4.388273    3.383528    1.167095
     30          1           0       -5.304871    3.913893   -0.253422
     31          6           0       -3.850695   -0.586508   -0.184132
     32          6           0       -2.723734   -1.513277    0.273081
     33          6           0       -2.976358   -2.976225   -0.092649
     34          1           0       -4.795816   -0.920087    0.266276
     35          1           0       -3.973500   -0.678042   -1.272013
     36          1           0       -2.603469   -1.419384    1.359974
     37          1           0       -1.780785   -1.177222   -0.176954
     38          1           0       -3.075050   -3.090733   -1.176969
     39          1           0       -3.902408   -3.334272    0.368691
     40          1           0       -2.158452   -3.621098    0.243549
 ---------------------------------------------------------------------

 SCF Done:  E(RHF) =  -470.733148266     A.U. after   11 cycles
 E2 =    -0.1582618669D+01 EUMP2 =    -0.47231576693471D+03

 The electronic state is 1-A.
 Alpha  occ. eigenvalues --  -11.21606 -11.21603 -11.21586 -11.21511 -11.21412
 Alpha  occ. eigenvalues --  -11.21373 -11.21352 -11.21308 -11.21075 -11.21061
 Alpha  occ. eigenvalues --  -11.21053 -11.20995  -1.08437  -1.08391  -1.03546
 Alpha  occ. eigenvalues --   -1.03474  -0.96000  -0.95920  -0.87002  -0.86954
 Alpha  occ. eigenvalues --   -0.79653  -0.79501  -0.78270  -0.78182  -0.65094
 Alpha  occ. eigenvalues --   -0.65005  -0.61024  -0.60811  -0.59372  -0.59289
 Alpha  occ. eigenvalues --   -0.57639  -0.57506  -0.55327  -0.55176  -0.52727
 Alpha  occ. eigenvalues --   -0.52586  -0.52417  -0.52346  -0.50004  -0.49829
 Alpha  occ. eigenvalues --   -0.48057  -0.47747  -0.46761  -0.46454  -0.45861
 Alpha  occ. eigenvalues --   -0.45739  -0.45716  -0.45509  -0.43801  -0.43726
 Alpha virt. eigenvalues --    0.21947   0.23031   0.23524   0.24776   0.25800
 Alpha virt. eigenvalues --    0.26785   0.26973   0.27337   0.27877   0.29000
 Alpha virt. eigenvalues --    0.30087   0.30812   0.31556   0.31770   0.32491

 Mulliken charges:
               1
     1  C   -0.298176
     2  C   -0.299910
     3  C   -0.479603
     4  H    0.149839
     5  H    0.149116
     6  H    0.151875
     7  H    0.151737
     8  H    0.159698
     9  H    0.155465
    10  H    0.160212
    11  C   -0.298280
    12  C   -0.299641
    13  C   -0.475710
    14  H    0.149589
    15  H    0.149577
    16  H    0.152012
    17  H    0.151875
    18  H    0.155149
    19  H    0.155203
    20  H    0.160286
    21  C   -0.298063
    22  C   -0.299594
    23  C   -0.475663
    24  H    0.149744
    25  H    0.148816
    26  H    0.151971
    27  H    0.151815
    28  H    0.155021
    29  H    0.155203
    30  H    0.160188
    31  C   -0.297864
    32  C   -0.303837
    33  C   -0.476581
    34  H    0.149317
    35  H    0.149193
    36  H    0.151770
    37  H    0.156886
    38  H    0.154471
    39  H    0.154688
    40  H    0.162206
 Sum of Mulliken charges =  -0.00000

 Dipole moment (field-independent basis, Debye):
    X=              0.0167    Y=             -0.0096    Z=              0.0108  Tot=              0.0221
 Quadrupole moment (field-independent basis, Debye-Ang):
   XX=            -85.5415   YY=            -86.0912   ZZ=            -83.2545
   XY=             -0.5565   XZ=              0.0943   YZ=             -0.5744

 Normal termination of Gaussian 16 at Wed May  5 19:59:28 2021.
