 Gaussian 16, Revision A.03,
 Gaussian 16:  EM64L-G16RevA.03 25-Dec-2016

 -------------
 #p 6-31g* mp2
 -------------

 ------------------------------------------------------
 Input file generated by CHIRIPA (05-May-2021 14:55:22)
 ------------------------------------------------------
 Symbolic Z-matrix:
 Charge =  0 Multiplicity = 1

                         Standard orientation:
 ---------------------------------------------------------------------
 Center     Atomic      Atomic             Coordinates (Angstroms)
 Number     Number       Type             X           Y           Z
 ---------------------------------------------------------------------
      1          6           0        1.324382    1.392841    0.350382
      2          6           0        1.537235    0.287808    1.181115
      3          6           0        2.673207   -0.511501    1.022308
      4          6           0        3.579778   -0.175306    0.018121
      5          6           0        3.395738    0.919177   -0.825399
      6          6           0        2.252677    1.704449   -0.648463
      7          1           0        0.439178    2.008311    0.480788
      8          1           0        0.818003    0.043429    1.957665
      9          1           0        2.862724   -1.372706    1.651457
     10          1           0        4.130550    1.137708   -1.590719
     11          1           0        2.089965    2.562032   -1.295087
     12          7           0        4.786133   -1.014068   -0.159597
     13          8           0        5.569756   -0.696707   -1.051703
     14          8           0        4.925209   -1.972970    0.596579
     15          6           0       -3.700691    0.447197    0.114204
     16          6           0       -3.874555    1.955969   -0.062898
     17          6           0       -2.611775    2.742110    0.290882
     18          1           0       -3.415460    0.236960    1.154102
     19          1           0       -2.866600    0.105022   -0.513971
     20          1           0       -4.708959    2.294969    0.564369
     21          1           0       -4.159593    2.162623   -1.102448
     22          1           0       -1.774760    2.432176   -0.343113
     23          1           0       -2.327248    2.565276    1.333175
     24          1           0       -2.758280    3.818449    0.157132
     25          6           0       -4.954556   -0.352305   -0.235577
     26          6           0       -4.780691   -1.861076   -0.058474
     27          6           0       -6.043473   -2.647217   -0.412254
     28          1           0       -5.788647   -0.010129    0.392598
     29          1           0       -5.239787   -0.142067   -1.275475
     30          1           0       -4.495655   -2.067730    0.981076
     31          1           0       -3.946288   -2.200077   -0.685742
     32          1           0       -6.327999   -2.470383   -1.454547
     33          1           0       -6.880487   -2.337284    0.221740
     34          1           0       -5.896968   -3.723558   -0.278505
 ---------------------------------------------------------------------

 SCF Done:  E(RHF) =  -669.535616725     A.U. after   15 cycles
 E2 =    -0.2090973692D+01 EUMP2 =    -0.67162659041669D+03

 The electronic state is 1-A.
 Alpha  occ. eigenvalues --  -20.60713 -20.60707 -15.85766 -11.31115 -11.27687
 Alpha  occ. eigenvalues --  -11.27682 -11.27352 -11.26688 -11.26676 -11.22546
 Alpha  occ. eigenvalues --  -11.22364 -11.22208 -11.22118 -11.21994 -11.21478
 Alpha  occ. eigenvalues --   -1.59789  -1.39343  -1.19284  -1.09180  -1.08675
 Alpha  occ. eigenvalues --   -1.04687  -1.04304  -0.96783  -0.95513  -0.87807
 Alpha  occ. eigenvalues --   -0.86081  -0.82353  -0.80388  -0.78958  -0.77405
 Alpha  occ. eigenvalues --   -0.71984  -0.71112  -0.70390  -0.65803  -0.64932
 Alpha  occ. eigenvalues --   -0.64692  -0.62038  -0.61699  -0.60159  -0.58392
 Alpha  occ. eigenvalues --   -0.56117  -0.55192  -0.53459  -0.53156  -0.53009
 Alpha  occ. eigenvalues --   -0.52776  -0.50724  -0.48761  -0.48740  -0.48660
 Alpha  occ. eigenvalues --   -0.47399  -0.46508  -0.46399  -0.44752  -0.44535
 Alpha  occ. eigenvalues --   -0.37250  -0.36298
 Alpha virt. eigenvalues --    0.05116   0.11355   0.16554   0.20452   0.22347
 Alpha virt. eigenvalues --    0.23809   0.25653   0.25948   0.26873   0.27429
 Alpha virt. eigenvalues --    0.29426   0.30372   0.30792   0.31044   0.32128

 Mulliken charges:
               1
     1  C   -0.177387
     2  C   -0.220485
     3  C   -0.170912
     4  C    0.158213
     5  C   -0.170821
     6  C   -0.220869
     7  H    0.236768
     8  H    0.223471
     9  H    0.275244
    10  H    0.275238
    11  H    0.223128
    12  N    0.488062
    13  O   -0.460694
    14  O   -0.460662
    15  C   -0.299550
    16  C   -0.299198
    17  C   -0.482327
    18  H    0.147224
    19  H    0.150199
    20  H    0.155680
    21  H    0.155417
    22  H    0.150196
    23  H    0.152878
    24  H    0.165455
    25  C   -0.298761
    26  C   -0.300311
    27  C   -0.476155
    28  H    0.150862
    29  H    0.151395
    30  H    0.151506
    31  H    0.153161
    32  H    0.156176
    33  H    0.155745
    34  H    0.162115
 Sum of Mulliken charges =  -0.00000

 Dipole moment (field-independent basis, Debye):
    X=             -4.5078    Y=              2.9476    Z=              0.5953  Tot=              5.4187
 Quadrupole moment (field-independent basis, Debye-Ang):
   XX=           -125.2518   YY=            -94.8970   ZZ=            -91.3716
   XY=             11.7215   XZ=              0.5065   YZ=             -2.7388

 Normal termination of Gaussian 16 at Thu May  6 15:52:45 2021.
