 Gaussian 16, Revision A.03,
 Gaussian 16:  EM64L-G16RevA.03 25-Dec-2016

 -------------
 #p 6-31g* mp2
 -------------

 ------------------------------------------------------
 Input file generated by CHIRIPA (05-May-2021 14:55:23)
 ------------------------------------------------------
 Symbolic Z-matrix:
 Charge =  0 Multiplicity = 1

                         Standard orientation:
 ---------------------------------------------------------------------
 Center     Atomic      Atomic             Coordinates (Angstroms)
 Number     Number       Type             X           Y           Z
 ---------------------------------------------------------------------
      1          6           0        3.726874    2.039504   -0.162949
      2          6           0        2.746877    1.918367    0.827734
      3          6           0        2.053105    0.716455    0.996954
      4          6           0        2.366191   -0.348863    0.154123
      5          6           0        3.337244   -0.259272   -0.842030
      6          6           0        4.018416    0.952214   -0.993205
      7          1           0        4.260919    2.976897   -0.287394
      8          1           0        2.518371    2.761108    1.473968
      9          1           0        1.289710    0.595234    1.755868
     10          1           0        3.542990   -1.116876   -1.470999
     11          1           0        4.779000    1.043414   -1.763426
     12          7           0        1.638396   -1.626342    0.323717
     13          8           0        1.932833   -2.550099   -0.431675
     14          8           0        0.787293   -1.679683    1.208825
     15          6           0       -3.376459   -0.512475    0.103594
     16          6           0       -2.623025   -1.657147   -0.574674
     17          6           0       -3.022411   -3.030293   -0.033604
     18          1           0       -3.190580   -0.550007    1.185715
     19          1           0       -4.456448   -0.661644   -0.033399
     20          1           0       -1.544728   -1.505126   -0.437628
     21          1           0       -2.810564   -1.616771   -1.655329
     22          1           0       -4.092201   -3.207519   -0.184409
     23          1           0       -2.819172   -3.095240    1.040210
     24          1           0       -2.471770   -3.833992   -0.532325
     25          6           0       -2.988061    0.866573   -0.426594
     26          6           0       -3.741495    2.011245    0.251675
     27          6           0       -3.342109    3.384391   -0.289395
     28          1           0       -1.908072    1.015743   -0.289600
     29          1           0       -3.173940    0.904106   -1.508715
     30          1           0       -3.553956    1.970869    1.332330
     31          1           0       -4.819792    1.859225    0.114629
     32          1           0       -3.545348    3.449338   -1.363209
     33          1           0       -2.272319    3.561616   -0.138590
     34          1           0       -3.892750    4.188090    0.209326
 ---------------------------------------------------------------------

 SCF Done:  E(RHF) =  -669.536235549     A.U. after   15 cycles
 E2 =    -0.2091587653D+01 EUMP2 =    -0.67162782320164D+03

 The electronic state is 1-A.
 Alpha  occ. eigenvalues --  -20.60993 -20.60985 -15.86013 -11.31324 -11.27888
 Alpha  occ. eigenvalues --  -11.27876 -11.27614 -11.26887 -11.26877 -11.21355
 Alpha  occ. eigenvalues --  -11.21004 -11.20952 -11.20622 -11.20451 -11.19853
 Alpha  occ. eigenvalues --   -1.60049  -1.39605  -1.19489  -1.08895  -1.07820
 Alpha  occ. eigenvalues --   -1.04882  -1.02852  -0.95739  -0.95332  -0.86357
 Alpha  occ. eigenvalues --   -0.86283  -0.82574  -0.78989  -0.77635  -0.77562
 Alpha  occ. eigenvalues --   -0.72235  -0.71369  -0.70595  -0.65145  -0.64884
 Alpha  occ. eigenvalues --   -0.64447  -0.62230  -0.60233  -0.58767  -0.56913
 Alpha  occ. eigenvalues --   -0.55385  -0.54629  -0.53212  -0.52973  -0.52027
 Alpha  occ. eigenvalues --   -0.51760  -0.49297  -0.49004  -0.48990  -0.47292
 Alpha  occ. eigenvalues --   -0.46060  -0.45340  -0.45088  -0.44615  -0.43120
 Alpha  occ. eigenvalues --   -0.37463  -0.36482
 Alpha virt. eigenvalues --    0.04869   0.11149   0.16353   0.21242   0.23315
 Alpha virt. eigenvalues --    0.25042   0.26771   0.27376   0.27912   0.28407
 Alpha virt. eigenvalues --    0.28675   0.30922   0.32002   0.32207   0.32492

 Mulliken charges:
               1
     1  C   -0.170450
     2  C   -0.218443
     3  C   -0.171427
     4  C    0.158563
     5  C   -0.170654
     6  C   -0.218432
     7  H    0.226240
     8  H    0.224048
     9  H    0.275600
    10  H    0.275998
    11  H    0.224026
    12  N    0.487262
    13  O   -0.458168
    14  O   -0.459209
    15  C   -0.297700
    16  C   -0.302754
    17  C   -0.473613
    18  H    0.151379
    19  H    0.146222
    20  H    0.164501
    21  H    0.145232
    22  H    0.147241
    23  H    0.160239
    24  H    0.163842
    25  C   -0.296960
    26  C   -0.299132
    27  C   -0.474578
    28  H    0.145297
    29  H    0.148311
    30  H    0.150497
    31  H    0.152392
    32  H    0.155279
    33  H    0.150537
    34  H    0.158814
 Sum of Mulliken charges =  -0.00000

 Dipole moment (field-independent basis, Debye):
    X=              2.8041    Y=              4.3763    Z=             -0.5500  Tot=              5.2266
 Quadrupole moment (field-independent basis, Debye-Ang):
   XX=            -81.7764   YY=            -98.8387   ZZ=            -92.1265
   XY=              8.7382   XZ=             -3.0372   YZ=              2.9129

 Normal termination of Gaussian 16 at Wed May  5 23:56:21 2021.
