 Gaussian 16, Revision A.03,
 Gaussian 16:  EM64L-G16RevA.03 25-Dec-2016

 -------------
 #p 6-31g* mp2
 -------------

 ------------------------------------------------------
 Input file generated by CHIRIPA (05-May-2021 14:57:27)
 ------------------------------------------------------
 Symbolic Z-matrix:
 Charge =  0 Multiplicity = 1

                         Standard orientation:
 ---------------------------------------------------------------------
 Center     Atomic      Atomic             Coordinates (Angstroms)
 Number     Number       Type             X           Y           Z
 ---------------------------------------------------------------------
      1          6           0       -3.970081    0.414826   -1.201943
      2          6           0       -3.493867   -0.899524   -1.249115
      3          6           0       -2.505701   -1.329071   -0.358292
      4          6           0       -2.013881   -0.413690    0.570945
      5          6           0       -2.467994    0.902325    0.642890
      6          6           0       -3.456530    1.309977   -0.257756
      7          1           0       -4.737856    0.740004   -1.897771
      8          1           0       -3.890862   -1.596886   -1.981321
      9          1           0       -2.119075   -2.340866   -0.372798
     10          1           0       -2.052910    1.574568    1.383979
     11          1           0       -3.824481    2.331320   -0.218814
     12          7           0       -0.967558   -0.856843    1.519219
     13          8           0       -0.550591   -0.031040    2.328431
     14          8           0       -0.584229   -2.021599    1.435307
     15          6           0        3.066286   -2.006629   -0.700775
     16          6           0        3.844401   -1.041449   -0.053098
     17          6           0        3.366958    0.262257    0.111067
     18          6           0        2.101256    0.567580   -0.386997
     19          6           0        1.302201   -0.371871   -1.036790
     20          6           0        1.799902   -1.669355   -1.189692
     21          1           0        3.445043   -3.016961   -0.823928
     22          1           0        4.828258   -1.300539    0.327614
     23          1           0        3.948346    1.029040    0.608509
     24          1           0        0.325314   -0.083666   -1.405636
     25          1           0        1.193407   -2.416875   -1.693102
     26          7           0        1.585086    1.944461   -0.219165
     27          8           0        0.466733    2.188182   -0.666964
     28          8           0        2.308638    2.753867    0.357003
 ---------------------------------------------------------------------

 SCF Done:  E(RHF) =  -868.338356933     A.U. after   16 cycles
 E2 =    -0.2604572212D+01 EUMP2 =    -0.87094292914424D+03

 The electronic state is 1-A.
 Alpha  occ. eigenvalues --  -20.60749 -20.60725 -20.60434 -20.60388 -15.85745
 Alpha  occ. eigenvalues --  -15.85442 -11.30961 -11.30578 -11.27674 -11.27418
 Alpha  occ. eigenvalues --  -11.27276 -11.27090 -11.27061 -11.26788 -11.26625
 Alpha  occ. eigenvalues --  -11.26397 -11.26129 -11.26083  -1.59802  -1.59470
 Alpha  occ. eigenvalues --   -1.39361  -1.39040  -1.19162  -1.18702  -1.08583
 Alpha  occ. eigenvalues --   -1.08146  -1.04525  -1.04100  -0.95436  -0.95036
 Alpha  occ. eigenvalues --   -0.85938  -0.85524  -0.82272  -0.81891  -0.77344
 Alpha  occ. eigenvalues --   -0.76971  -0.71997  -0.71716  -0.71304  -0.70624
 Alpha  occ. eigenvalues --   -0.70253  -0.69827  -0.64808  -0.64528  -0.64387
 Alpha  occ. eigenvalues --   -0.64142  -0.61874  -0.61491  -0.55048  -0.54630
 Alpha  occ. eigenvalues --   -0.52934  -0.52613  -0.52369  -0.52143  -0.48767
 Alpha  occ. eigenvalues --   -0.48726  -0.48458  -0.48415  -0.44844  -0.44485
 Alpha  occ. eigenvalues --   -0.37146  -0.36624  -0.36065  -0.35589
 Alpha virt. eigenvalues --    0.05124   0.05573   0.11480   0.12007   0.16626
 Alpha virt. eigenvalues --    0.17236   0.21440   0.22092   0.26978   0.27955
 Alpha virt. eigenvalues --    0.28622   0.28880   0.30882   0.31671   0.32726

 Mulliken charges:
               1
     1  C   -0.170317
     2  C   -0.219809
     3  C   -0.181438
     4  C    0.148595
     5  C   -0.151029
     6  C   -0.216789
     7  H    0.225553
     8  H    0.220528
     9  H    0.269079
    10  H    0.282269
    11  H    0.227433
    12  N    0.489592
    13  O   -0.457170
    14  O   -0.464275
    15  C   -0.167897
    16  C   -0.216084
    17  C   -0.167868
    18  C    0.166099
    19  C   -0.187518
    20  C   -0.202803
    21  H    0.224094
    22  H    0.222136
    23  H    0.274208
    24  H    0.274060
    25  H    0.218031
    26  N    0.491272
    27  O   -0.471239
    28  O   -0.458711
 Sum of Mulliken charges =  -0.00000

 Dipole moment (field-independent basis, Debye):
    X=             -1.8224    Y=             -3.0634    Z=             -3.7084  Tot=              5.1437
 Quadrupole moment (field-independent basis, Debye-Ang):
   XX=            -79.0766   YY=           -107.8564   ZZ=           -107.6895
   XY=            -10.6071   XZ=              5.1668   YZ=              6.8415

 Normal termination of Gaussian 16 at Wed May  5 21:16:54 2021.
