 Gaussian 16, Revision A.03,
 Gaussian 16:  EM64L-G16RevA.03 25-Dec-2016

 -------------
 #p 6-31g* mp2
 -------------

 ------------------------------------------------------
 Input file generated by CHIRIPA (05-May-2021 14:53:17)
 ------------------------------------------------------
 Symbolic Z-matrix:
 Charge =  0 Multiplicity = 1

                         Standard orientation:
 ---------------------------------------------------------------------
 Center     Atomic      Atomic             Coordinates (Angstroms)
 Number     Number       Type             X           Y           Z
 ---------------------------------------------------------------------
      1          6           0        2.138463    0.969494   -0.638502
      2          6           0        1.525524    2.031604    0.274850
      3          6           0        0.283616    2.686551   -0.330547
      4          1           0        2.397388    1.428943   -1.602250
      5          1           0        1.383955    0.199702   -0.851888
      6          1           0        2.281385    2.798442    0.487570
      7          1           0        1.268204    1.569616    1.236603
      8          1           0       -0.490113    1.937283   -0.526864
      9          1           0        0.528825    3.173091   -1.280153
     10          1           0       -0.138329    3.442563    0.338982
     11          6           0        3.380770    0.305695   -0.047087
     12          6           0        3.993709   -0.756415   -0.960439
     13          6           0        5.235616   -1.411362   -0.355043
     14          1           0        4.135278    1.075487    0.166299
     15          1           0        3.121845   -0.153754    0.916660
     16          1           0        4.251029   -0.294427   -1.922192
     17          1           0        3.237848   -1.523253   -1.173159
     18          1           0        4.990408   -1.897902    0.594564
     19          1           0        6.009346   -0.662094   -0.158725
     20          1           0        5.657562   -2.167374   -1.024572
     21          6           0       -3.718560   -0.244066   -1.696786
     22          6           0       -3.647960    0.758796   -0.724262
     23          6           0       -2.785738    0.628664    0.368527
     24          6           0       -2.004883   -0.522682    0.457738
     25          6           0       -2.052687   -1.539301   -0.494884
     26          6           0       -2.922102   -1.387897   -1.579201
     27          1           0       -4.391150   -0.134714   -2.542399
     28          1           0       -4.265327    1.648195   -0.812995
     29          1           0       -2.711196    1.389655    1.135831
     30          1           0       -1.424912   -2.414477   -0.379200
     31          1           0       -2.974847   -2.168347   -2.332966
     32          7           0       -1.088279   -0.671706    1.610140
     33          8           0       -0.410775   -1.695686    1.665744
     34          8           0       -1.064706    0.238288    2.435967
 ---------------------------------------------------------------------

 SCF Done:  E(RHF) =  -669.535390883     A.U. after   15 cycles
 E2 =    -0.2094368217D+01 EUMP2 =    -0.67162975910017D+03

 The electronic state is 1-A.
 Alpha  occ. eigenvalues --  -20.61005 -20.60992 -15.86017 -11.31305 -11.27895
 Alpha  occ. eigenvalues --  -11.27855 -11.27616 -11.26873 -11.26860 -11.21072
 Alpha  occ. eigenvalues --  -11.20894 -11.20833 -11.20690 -11.20652 -11.20555
 Alpha  occ. eigenvalues --   -1.60055  -1.39611  -1.19500  -1.08897  -1.07839
 Alpha  occ. eigenvalues --   -1.04888  -1.02987  -0.95750  -0.95461  -0.86518
 Alpha  occ. eigenvalues --   -0.86259  -0.82573  -0.79044  -0.77648  -0.77627
 Alpha  occ. eigenvalues --   -0.72240  -0.71407  -0.70596  -0.65144  -0.64876
 Alpha  occ. eigenvalues --   -0.64441  -0.62230  -0.60387  -0.58833  -0.57079
 Alpha  occ. eigenvalues --   -0.55389  -0.54865  -0.53228  -0.52965  -0.52174
 Alpha  occ. eigenvalues --   -0.51858  -0.49400  -0.49004  -0.48996  -0.47367
 Alpha  occ. eigenvalues --   -0.46089  -0.45242  -0.45203  -0.44773  -0.43236
 Alpha  occ. eigenvalues --   -0.37435  -0.36422
 Alpha virt. eigenvalues --    0.04854   0.11118   0.16332   0.21245   0.23192
 Alpha virt. eigenvalues --    0.24655   0.26933   0.27190   0.28016   0.28256
 Alpha virt. eigenvalues --    0.28730   0.30980   0.31766   0.31973   0.32470

 Mulliken charges:
               1
     1  C   -0.297062
     2  C   -0.309976
     3  C   -0.480164
     4  H    0.145390
     5  H    0.144464
     6  H    0.150102
     7  H    0.171941
     8  H    0.154593
     9  H    0.151070
    10  H    0.157526
    11  C   -0.300133
    12  C   -0.298694
    13  C   -0.475987
    14  H    0.147439
    15  H    0.161167
    16  H    0.148232
    17  H    0.151273
    18  H    0.158949
    19  H    0.153923
    20  H    0.157445
    21  C   -0.170250
    22  C   -0.216658
    23  C   -0.173495
    24  C    0.160167
    25  C   -0.171626
    26  C   -0.218320
    27  H    0.226413
    28  H    0.224643
    29  H    0.277566
    30  H    0.275907
    31  H    0.224086
    32  N    0.488911
    33  O   -0.459889
    34  O   -0.458954
 Sum of Mulliken charges =  -0.00000

 Dipole moment (field-independent basis, Debye):
    X=             -3.3800    Y=              0.4148    Z=             -3.8763  Tot=              5.1597
 Quadrupole moment (field-independent basis, Debye-Ang):
   XX=            -82.4494   YY=            -91.7271   ZZ=            -98.3665
   XY=             -0.0979   XZ=              6.2176   YZ=              4.2473

 Normal termination of Gaussian 16 at Thu May  6 05:57:01 2021.
