 Gaussian 16, Revision A.03,
 Gaussian 16:  EM64L-G16RevA.03 25-Dec-2016

 -------------
 #p 6-31g* mp2
 -------------

 ------------------------------------------------------
 Input file generated by CHIRIPA (05-May-2021 14:55:18)
 ------------------------------------------------------
 Symbolic Z-matrix:
 Charge =  0 Multiplicity = 1

                         Standard orientation:
 ---------------------------------------------------------------------
 Center     Atomic      Atomic             Coordinates (Angstroms)
 Number     Number       Type             X           Y           Z
 ---------------------------------------------------------------------
      1          6           0       -1.300089    0.750045    2.400993
      2          6           0       -1.314077   -0.641814    2.262963
      3          6           0       -1.831069   -1.235578    1.107666
      4          6           0       -2.328177   -0.403590    0.105682
      5          6           0       -2.328146    0.986245    0.213610
      6          6           0       -1.806276    1.558208    1.377680
      7          1           0       -0.896583    1.202828    3.301862
      8          1           0       -0.921633   -1.271922    3.056056
      9          1           0       -1.854167   -2.310381    0.974694
     10          1           0       -2.726389    1.588254   -0.594106
     11          1           0       -1.796700    2.639430    1.482138
     12          7           0       -2.878075   -1.020641   -1.122023
     13          8           0       -3.310088   -0.265613   -1.990316
     14          8           0       -2.866661   -2.247631   -1.192758
     15          6           0        2.521541    1.033224   -0.175728
     16          6           0        1.652702    1.658175   -1.267763
     17          6           0        0.974127    2.951518   -0.815443
     18          1           0        1.900752    0.833469    0.708390
     19          1           0        3.285052    1.759345    0.136035
     20          1           0        0.891927    0.930594   -1.578347
     21          1           0        2.275591    1.856289   -2.149453
     22          1           0        1.721137    3.697102   -0.524440
     23          1           0        0.329611    2.766146    0.049910
     24          1           0        0.358058    3.381282   -1.611447
     25          6           0        3.206579   -0.260379   -0.612810
     26          6           0        4.075417   -0.885330    0.479225
     27          6           0        4.753993   -2.178673    0.026905
     28          1           0        2.443069   -0.986500   -0.924572
     29          1           0        3.827368   -0.060624   -1.496928
     30          1           0        3.452529   -1.083444    1.360915
     31          1           0        4.836193   -0.157748    0.789810
     32          1           0        5.398510   -1.993301   -0.838448
     33          1           0        4.006984   -2.924256   -0.264098
     34          1           0        5.370063   -2.608437    0.822909
 ---------------------------------------------------------------------

 SCF Done:  E(RHF) =  -669.535112061     A.U. after   15 cycles
 E2 =    -0.2093463960D+01 EUMP2 =    -0.67162857602177D+03

 The electronic state is 1-A.
 Alpha  occ. eigenvalues --  -20.60865 -20.60860 -15.85920 -11.31327 -11.27885
 Alpha  occ. eigenvalues --  -11.27881 -11.27643 -11.26920 -11.26895 -11.21809
 Alpha  occ. eigenvalues --  -11.21727 -11.21556 -11.21485 -11.21302 -11.21217
 Alpha  occ. eigenvalues --   -1.59940  -1.39492  -1.19505  -1.08894  -1.08587
 Alpha  occ. eigenvalues --   -1.04915  -1.03705  -0.96170  -0.95714  -0.87198
 Alpha  occ. eigenvalues --   -0.86301  -0.82546  -0.79778  -0.78403  -0.77585
 Alpha  occ. eigenvalues --   -0.72135  -0.71266  -0.70592  -0.65242  -0.65148
 Alpha  occ. eigenvalues --   -0.64906  -0.62267  -0.61119  -0.59533  -0.57779
 Alpha  occ. eigenvalues --   -0.55536  -0.55374  -0.53225  -0.53018  -0.52868
 Alpha  occ. eigenvalues --   -0.52549  -0.50109  -0.48898  -0.48888  -0.48088
 Alpha  occ. eigenvalues --   -0.46808  -0.45943  -0.45865  -0.44888  -0.43960
 Alpha  occ. eigenvalues --   -0.37454  -0.36431
 Alpha virt. eigenvalues --    0.04939   0.11036   0.16360   0.20996   0.22720
 Alpha virt. eigenvalues --    0.24117   0.26313   0.26598   0.27226   0.28133
 Alpha virt. eigenvalues --    0.28684   0.30362   0.31378   0.31583   0.31879

 Mulliken charges:
               1
     1  C   -0.171592
     2  C   -0.218793
     3  C   -0.171122
     4  C    0.158160
     5  C   -0.167860
     6  C   -0.219704
     7  H    0.226927
     8  H    0.224242
     9  H    0.276080
    10  H    0.277014
    11  H    0.225946
    12  N    0.487865
    13  O   -0.459742
    14  O   -0.460108
    15  C   -0.299674
    16  C   -0.298219
    17  C   -0.481788
    18  H    0.148015
    19  H    0.147759
    20  H    0.154888
    21  H    0.153704
    22  H    0.153704
    23  H    0.153048
    24  H    0.160079
    25  C   -0.298783
    26  C   -0.298928
    27  C   -0.475931
    28  H    0.151986
    29  H    0.151049
    30  H    0.147864
    31  H    0.151447
    32  H    0.156599
    33  H    0.156382
    34  H    0.159487
 Sum of Mulliken charges =  -0.00000

 Dipole moment (field-independent basis, Debye):
    X=              1.8527    Y=              2.1070    Z=              4.3117  Tot=              5.1442
 Quadrupole moment (field-independent basis, Debye-Ang):
   XX=           -104.0044   YY=            -93.3546   ZZ=            -93.5480
   XY=             -6.1780   XZ=             -9.8802   YZ=             -3.6842

 Normal termination of Gaussian 16 at Thu May  6 14:02:17 2021.
