 Gaussian 16, Revision A.03,
 Gaussian 16:  EM64L-G16RevA.03 25-Dec-2016

 -------------
 #p 6-31g* mp2
 -------------

 ------------------------------------------------------
 Input file generated by CHIRIPA (05-May-2021 14:55:25)
 ------------------------------------------------------
 Symbolic Z-matrix:
 Charge =  0 Multiplicity = 1

                         Standard orientation:
 ---------------------------------------------------------------------
 Center     Atomic      Atomic             Coordinates (Angstroms)
 Number     Number       Type             X           Y           Z
 ---------------------------------------------------------------------
      1          6           0        4.276053    2.300475    0.321100
      2          6           0        2.965242    2.035490    0.731072
      3          6           0        2.377246    0.794033    0.471085
      4          6           0        3.132293   -0.163716   -0.204127
      5          6           0        4.440412    0.070110   -0.625363
      6          6           0        5.008164    1.318670   -0.354618
      7          1           0        4.724960    3.267628    0.527243
      8          1           0        2.394305    2.796081    1.256026
      9          1           0        1.364335    0.562255    0.777204
     10          1           0        4.984575   -0.708012   -1.146736
     11          1           0        6.026354    1.521670   -0.674189
     12          7           0        2.520523   -1.481751   -0.485059
     13          8           0        3.206806   -2.308704   -1.081549
     14          8           0        1.366320   -1.662916   -0.103442
     15          6           0       -3.745112   -0.693423    0.397539
     16          6           0       -2.430481   -0.383056    1.114060
     17          6           0       -1.655067   -1.643409    1.498818
     18          1           0       -4.367997   -1.325467    1.045210
     19          1           0       -3.532503   -1.283904   -0.504417
     20          1           0       -2.645381    0.207844    2.013654
     21          1           0       -1.810732    0.248481    0.464685
     22          1           0       -1.411843   -2.232804    0.608844
     23          1           0       -2.251234   -2.273673    2.166615
     24          1           0       -0.718726   -1.398385    2.009787
     25          6           0       -4.531674    0.556432    0.006497
     26          6           0       -5.846305    0.246065   -0.710023
     27          6           0       -6.621718    1.506418   -1.094782
     28          1           0       -4.744282    1.146913    0.908453
     29          1           0       -3.908789    1.188475   -0.641175
     30          1           0       -6.466054   -0.385472   -0.060648
     31          1           0       -5.631404   -0.344835   -1.609618
     32          1           0       -6.025551    2.136682   -1.762579
     33          1           0       -6.864943    2.095813   -0.204807
     34          1           0       -7.558060    1.261394   -1.605750
 ---------------------------------------------------------------------

 SCF Done:  E(RHF) =  -669.535591534     A.U. after   15 cycles
 E2 =    -0.2091451351D+01 EUMP2 =    -0.67162704288425D+03

 The electronic state is 1-A.
 Alpha  occ. eigenvalues --  -20.60853 -20.60844 -15.85890 -11.31241 -11.27809
 Alpha  occ. eigenvalues --  -11.27803 -11.27550 -11.26822 -11.26812 -11.21324
 Alpha  occ. eigenvalues --  -11.21065 -11.21054 -11.20880 -11.20875 -11.19960
 Alpha  occ. eigenvalues --   -1.59923  -1.39478  -1.19413  -1.08813  -1.08002
 Alpha  occ. eigenvalues --   -1.04813  -1.03031  -0.95671  -0.95420  -0.86448
 Alpha  occ. eigenvalues --   -0.86212  -0.82483  -0.79118  -0.77823  -0.77529
 Alpha  occ. eigenvalues --   -0.72125  -0.71241  -0.70521  -0.65074  -0.64818
 Alpha  occ. eigenvalues --   -0.64624  -0.62164  -0.60408  -0.58851  -0.57075
 Alpha  occ. eigenvalues --   -0.55316  -0.54695  -0.53145  -0.52906  -0.52112
 Alpha  occ. eigenvalues --   -0.51871  -0.49381  -0.48871  -0.48830  -0.47419
 Alpha  occ. eigenvalues --   -0.46149  -0.45361  -0.45267  -0.44886  -0.43278
 Alpha  occ. eigenvalues --   -0.37395  -0.36416
 Alpha virt. eigenvalues --    0.04985   0.11231   0.16480   0.20598   0.23122
 Alpha virt. eigenvalues --    0.23936   0.26456   0.27257   0.27660   0.28121
 Alpha virt. eigenvalues --    0.29269   0.30690   0.31553   0.32090   0.32301

 Mulliken charges:
               1
     1  C   -0.170516
     2  C   -0.219388
     3  C   -0.173738
     4  C    0.157305
     5  C   -0.170535
     6  C   -0.218711
     7  H    0.225814
     8  H    0.224117
     9  H    0.280019
    10  H    0.275681
    11  H    0.223615
    12  N    0.493399
    13  O   -0.459901
    14  O   -0.464863
    15  C   -0.298061
    16  C   -0.301847
    17  C   -0.472076
    18  H    0.149211
    19  H    0.153123
    20  H    0.145189
    21  H    0.146707
    22  H    0.173634
    23  H    0.147773
    24  H    0.158998
    25  C   -0.297674
    26  C   -0.299456
    27  C   -0.475405
    28  H    0.147131
    29  H    0.147659
    30  H    0.151862
    31  H    0.152910
    32  H    0.154212
    33  H    0.154018
    34  H    0.159793
 Sum of Mulliken charges =  -0.00000

 Dipole moment (field-independent basis, Debye):
    X=              2.3260    Y=              4.5083    Z=              0.9073  Tot=              5.1534
 Quadrupole moment (field-independent basis, Debye-Ang):
   XX=            -78.6186   YY=            -96.9172   ZZ=            -94.4572
   XY=             13.8755   XZ=              0.0358   YZ=              0.0341

 Normal termination of Gaussian 16 at Wed May  5 16:09:43 2021.
