 Gaussian 16, Revision A.03,
 Gaussian 16:  EM64L-G16RevA.03 25-Dec-2016

 -------------
 #p 6-31g* mp2
 -------------

 ------------------------------------------------------
 Input file generated by CHIRIPA (05-May-2021 14:53:12)
 ------------------------------------------------------
 Symbolic Z-matrix:
 Charge =  0 Multiplicity = 1

                         Standard orientation:
 ---------------------------------------------------------------------
 Center     Atomic      Atomic             Coordinates (Angstroms)
 Number     Number       Type             X           Y           Z
 ---------------------------------------------------------------------
      1          6           0        2.130619   -0.759712   -0.225559
      2          6           0        1.562490   -2.139664   -0.558647
      3          6           0        0.048922   -2.119497   -0.774284
      4          1           0        1.635444   -0.374250    0.676198
      5          1           0        1.884477   -0.063400   -1.039167
      6          1           0        1.810825   -2.833501    0.254702
      7          1           0        2.059212   -2.521968   -1.459606
      8          1           0       -0.213790   -1.449278   -1.599142
      9          1           0       -0.463589   -1.762581    0.124906
     10          1           0       -0.336158   -3.116212   -1.011207
     11          6           0        3.642583   -0.763630   -0.007201
     12          6           0        4.210712    0.616321    0.325887
     13          6           0        5.724280    0.596155    0.541525
     14          1           0        3.888725   -1.459942    0.806407
     15          1           0        4.137758   -1.149092   -0.908958
     16          1           0        3.713990    0.998626    1.226846
     17          1           0        3.962377    1.310158   -0.487462
     18          1           0        6.236791    0.239239   -0.357666
     19          1           0        5.986992   -0.074064    1.366382
     20          1           0        6.109360    1.592870    0.778447
     21          6           0       -0.766402    2.511087   -0.600711
     22          6           0       -0.853446    2.143048    0.745948
     23          6           0       -1.675111    1.083024    1.140614
     24          6           0       -2.399084    0.409820    0.157786
     25          6           0       -2.333564    0.752698   -1.191818
     26          6           0       -1.505437    1.815964   -1.563599
     27          1           0       -0.125604    3.335798   -0.898409
     28          1           0       -0.280644    2.681099    1.495911
     29          1           0       -1.761205    0.777091    2.176188
     30          1           0       -2.916593    0.197469   -1.916536
     31          1           0       -1.439800    2.099586   -2.610162
     32          7           0       -3.272366   -0.714095    0.563488
     33          8           0       -3.900029   -1.291253   -0.321704
     34          8           0       -3.312644   -0.996580    1.758987
 ---------------------------------------------------------------------

 SCF Done:  E(RHF) =  -669.534493189     A.U. after   15 cycles
 E2 =    -0.2094654277D+01 EUMP2 =    -0.67162914746661D+03

 The electronic state is 1-A.
 Alpha  occ. eigenvalues --  -20.60782 -20.60770 -15.85813 -11.31144 -11.27757
 Alpha  occ. eigenvalues --  -11.27735 -11.27516 -11.26799 -11.26789 -11.21981
 Alpha  occ. eigenvalues --  -11.21600 -11.21582 -11.21475 -11.21391 -11.20897
 Alpha  occ. eigenvalues --   -1.59845  -1.39400  -1.19368  -1.08763  -1.08599
 Alpha  occ. eigenvalues --   -1.04779  -1.03673  -0.96111  -0.95594  -0.87134
 Alpha  occ. eigenvalues --   -0.86172  -0.82432  -0.79771  -0.78414  -0.77474
 Alpha  occ. eigenvalues --   -0.72044  -0.71176  -0.70479  -0.65238  -0.65024
 Alpha  occ. eigenvalues --   -0.64783  -0.62128  -0.61077  -0.59489  -0.57752
 Alpha  occ. eigenvalues --   -0.55403  -0.55278  -0.53321  -0.52871  -0.52779
 Alpha  occ. eigenvalues --   -0.52392  -0.50073  -0.48803  -0.48799  -0.48021
 Alpha  occ. eigenvalues --   -0.46822  -0.45896  -0.45882  -0.44797  -0.43913
 Alpha  occ. eigenvalues --   -0.37263  -0.36331
 Alpha virt. eigenvalues --    0.05028   0.11193   0.16490   0.21285   0.22723
 Alpha virt. eigenvalues --    0.24119   0.26195   0.27041   0.27316   0.27823
 Alpha virt. eigenvalues --    0.28417   0.30614   0.31253   0.31640   0.31971

 Mulliken charges:
               1
     1  C   -0.297557
     2  C   -0.300431
     3  C   -0.476744
     4  H    0.148362
     5  H    0.146381
     6  H    0.153587
     7  H    0.150854
     8  H    0.151861
     9  H    0.154272
    10  H    0.165915
    11  C   -0.298444
    12  C   -0.298367
    13  C   -0.475559
    14  H    0.150987
    15  H    0.149959
    16  H    0.148610
    17  H    0.148063
    18  H    0.156128
    19  H    0.156741
    20  H    0.159108
    21  C   -0.169752
    22  C   -0.215716
    23  C   -0.173801
    24  C    0.160468
    25  C   -0.169838
    26  C   -0.219356
    27  H    0.225802
    28  H    0.223636
    29  H    0.275270
    30  H    0.275710
    31  H    0.223301
    32  N    0.491328
    33  O   -0.459397
    34  O   -0.461381
 Sum of Mulliken charges =  -0.00000

 Dipole moment (field-independent basis, Debye):
    X=              3.0005    Y=              3.9249    Z=             -1.4443  Tot=              5.1472
 Quadrupole moment (field-independent basis, Debye-Ang):
   XX=           -111.1909   YY=            -91.9469   ZZ=            -89.8112
   XY=             -8.2636   XZ=              5.1801   YZ=              0.5354

 Normal termination of Gaussian 16 at Thu May  6 12:01:54 2021.
