 Gaussian 16, Revision A.03,
 Gaussian 16:  EM64L-G16RevA.03 25-Dec-2016

 -------------
 #p 6-31g* mp2
 -------------

 ------------------------------------------------------
 Input file generated by CHIRIPA (05-May-2021 14:57:27)
 ------------------------------------------------------
 Symbolic Z-matrix:
 Charge =  0 Multiplicity = 1

                         Standard orientation:
 ---------------------------------------------------------------------
 Center     Atomic      Atomic             Coordinates (Angstroms)
 Number     Number       Type             X           Y           Z
 ---------------------------------------------------------------------
      1          6           0       -5.601052    0.663341    0.238663
      2          6           0       -4.497414    1.495167    0.022865
      3          6           0       -3.228311    0.949524   -0.192074
      4          6           0       -3.098400   -0.438409   -0.184623
      5          6           0       -4.178662   -1.293584    0.027511
      6          6           0       -5.438440   -0.725931    0.240294
      7          1           0       -6.583300    1.095758    0.404795
      8          1           0       -4.620732    2.574442    0.021059
      9          1           0       -2.356865    1.570197   -0.361672
     10          1           0       -4.024446   -2.365788    0.023633
     11          1           0       -6.293753   -1.374381    0.407620
     12          7           0       -1.759794   -1.027708   -0.411028
     13          8           0       -1.671756   -2.253578   -0.399670
     14          8           0       -0.823978   -0.252572   -0.595554
     15          6           0        1.494157    2.069445    0.369272
     16          6           0        1.663402    1.098671    1.361983
     17          6           0        2.671190    0.136255    1.249443
     18          6           0        3.495440    0.174213    0.125850
     19          6           0        3.351956    1.128623   -0.880036
     20          6           0        2.337488    2.081302   -0.746602
     21          1           0        0.708688    2.813291    0.464811
     22          1           0        1.009938    1.087045    2.229679
     23          1           0        2.824397   -0.626577    2.003124
     24          1           0        4.018936    1.114732   -1.733477
     25          1           0        2.208375    2.834033   -1.519110
     26          7           0        4.565877   -0.839499   -0.004351
     27          8           0        5.278891   -0.784546   -1.003964
     28          8           0        4.671601   -1.669805    0.895678
 ---------------------------------------------------------------------

 SCF Done:  E(RHF) =  -868.336667466     A.U. after   16 cycles
 E2 =    -0.2600836667D+01 EUMP2 =    -0.87093750413270D+03

 The electronic state is 1-A.
 Alpha  occ. eigenvalues --  -20.61248 -20.61243 -20.59800 -20.59791 -15.86281
 Alpha  occ. eigenvalues --  -15.84848 -11.31736 -11.30066 -11.28369 -11.28259
 Alpha  occ. eigenvalues --  -11.28022 -11.27353 -11.27282 -11.26670 -11.26626
 Alpha  occ. eigenvalues --  -11.26480 -11.25709 -11.25675  -1.60322  -1.58872
 Alpha  occ. eigenvalues --   -1.39876  -1.38432  -1.19905  -1.18231  -1.09278
 Alpha  occ. eigenvalues --   -1.07685  -1.05320  -1.03649  -0.96105  -0.94550
 Alpha  occ. eigenvalues --   -0.86711  -0.85089  -0.82937  -0.81406  -0.77987
 Alpha  occ. eigenvalues --   -0.76447  -0.72511  -0.71656  -0.71085  -0.71004
 Alpha  occ. eigenvalues --   -0.70179  -0.69469  -0.65554  -0.65316  -0.63942
 Alpha  occ. eigenvalues --   -0.63734  -0.62675  -0.61046  -0.55795  -0.54276
 Alpha  occ. eigenvalues --   -0.53642  -0.53409  -0.51908  -0.51815  -0.49280
 Alpha  occ. eigenvalues --   -0.49242  -0.47837  -0.47829  -0.45267  -0.43872
 Alpha  occ. eigenvalues --   -0.37877  -0.36928  -0.36144  -0.35165
 Alpha virt. eigenvalues --    0.04539   0.06108   0.10724   0.12454   0.16061
 Alpha virt. eigenvalues --    0.17566   0.20542   0.22121   0.26234   0.27341
 Alpha virt. eigenvalues --    0.28174   0.29044   0.30719   0.31356   0.33331

 Mulliken charges:
               1
     1  C   -0.170785
     2  C   -0.218023
     3  C   -0.172242
     4  C    0.158594
     5  C   -0.170698
     6  C   -0.218098
     7  H    0.227127
     8  H    0.222737
     9  H    0.268361
    10  H    0.277764
    11  H    0.225591
    12  N    0.489379
    13  O   -0.456877
    14  O   -0.462629
    15  C   -0.158031
    16  C   -0.205494
    17  C   -0.166242
    18  C    0.160892
    19  C   -0.169315
    20  C   -0.215626
    21  H    0.212902
    22  H    0.215937
    23  H    0.272882
    24  H    0.272122
    25  H    0.217162
    26  N    0.488401
    27  O   -0.463622
    28  O   -0.462169
 Sum of Mulliken charges =  -0.00000

 Dipole moment (field-independent basis, Debye):
    X=             -8.7412    Y=              5.4530    Z=              1.2402  Tot=             10.3770
 Quadrupole moment (field-independent basis, Debye-Ang):
   XX=           -102.1983   YY=           -101.4116   ZZ=           -102.4211
   XY=             10.1787   XZ=             -2.1600   YZ=             -2.7476

 Normal termination of Gaussian 16 at Thu May  6 19:49:32 2021.
