 Gaussian 16, Revision A.03,
 Gaussian 16:  EM64L-G16RevA.03 25-Dec-2016

 -------------
 #p 6-31g* mp2
 -------------

 ------------------------------------------------------
 Input file generated by CHIRIPA (05-May-2021 14:55:25)
 ------------------------------------------------------
 Symbolic Z-matrix:
 Charge =  0 Multiplicity = 1

                         Standard orientation:
 ---------------------------------------------------------------------
 Center     Atomic      Atomic             Coordinates (Angstroms)
 Number     Number       Type             X           Y           Z
 ---------------------------------------------------------------------
      1          6           0        0.732495   -2.699445    0.217481
      2          6           0        0.561416   -1.716768    1.198092
      3          6           0        1.285525   -0.522256    1.140161
      4          6           0        2.176210   -0.342780    0.082920
      5          6           0        2.368778   -1.302884   -0.909253
      6          6           0        1.634041   -2.489737   -0.831213
      7          1           0        0.165861   -3.624395    0.270293
      8          1           0       -0.138038   -1.876905    2.013668
      9          1           0        1.172597    0.255231    1.885936
     10          1           0        3.073384   -1.114539   -1.710174
     11          1           0        1.768948   -3.251143   -1.594172
     12          7           0        2.948418    0.917742    0.010948
     13          8           0        3.726903    1.051619   -0.930686
     14          8           0        2.760567    1.747993    0.897532
     15          6           0       -2.634341    1.418564   -0.392728
     16          6           0       -1.598147    2.333049    0.261493
     17          6           0       -1.633853    3.757891   -0.291988
     18          1           0       -2.461723    1.396514   -1.477469
     19          1           0       -3.635822    1.845616   -0.244212
     20          1           0       -0.599044    1.903685    0.112982
     21          1           0       -1.773132    2.352773    1.344825
     22          1           0       -2.617960    4.209491   -0.130146
     23          1           0       -1.437201    3.757851   -1.368989
     24          1           0       -0.885087    4.394527    0.189576
     25          6           0       -2.610949   -0.009208    0.150086
     26          6           0       -3.647141   -0.923693   -0.504137
     27          6           0       -3.611436   -2.348536    0.049345
     28          1           0       -1.609467   -0.436261    0.001568
     29          1           0       -2.783565    0.012842    1.234826
     30          1           0       -3.472157   -0.943417   -1.587467
     31          1           0       -4.646245   -0.494328   -0.355625
     32          1           0       -3.808088   -2.348495    1.126345
     33          1           0       -2.627329   -2.800135   -0.112496
     34          1           0       -4.360202   -2.985172   -0.432219
 ---------------------------------------------------------------------

 SCF Done:  E(RHF) =  -669.534735285     A.U. after   15 cycles
 E2 =    -0.2094766896D+01 EUMP2 =    -0.67162950218049D+03

 The electronic state is 1-A.
 Alpha  occ. eigenvalues --  -20.60881 -20.60874 -15.85922 -11.31309 -11.27845
 Alpha  occ. eigenvalues --  -11.27817 -11.27578 -11.26886 -11.26834 -11.21990
 Alpha  occ. eigenvalues --  -11.21753 -11.21542 -11.21515 -11.21416 -11.20801
 Alpha  occ. eigenvalues --   -1.59947  -1.39499  -1.19478  -1.08873  -1.08594
 Alpha  occ. eigenvalues --   -1.04870  -1.03698  -0.96155  -0.95693  -0.87181
 Alpha  occ. eigenvalues --   -0.86261  -0.82520  -0.79789  -0.78428  -0.77545
 Alpha  occ. eigenvalues --   -0.72137  -0.71269  -0.70561  -0.65252  -0.65112
 Alpha  occ. eigenvalues --   -0.64854  -0.62200  -0.61104  -0.59549  -0.57755
 Alpha  occ. eigenvalues --   -0.55522  -0.55313  -0.53312  -0.52951  -0.52811
 Alpha  occ. eigenvalues --   -0.52575  -0.50122  -0.48900  -0.48896  -0.48101
 Alpha  occ. eigenvalues --   -0.46833  -0.45950  -0.45836  -0.44859  -0.43920
 Alpha  occ. eigenvalues --   -0.37420  -0.36337
 Alpha virt. eigenvalues --    0.04916   0.11036   0.16307   0.20495   0.22935
 Alpha virt. eigenvalues --    0.23966   0.25712   0.26337   0.27118   0.28372
 Alpha virt. eigenvalues --    0.28820   0.30103   0.31350   0.31599   0.32050

 Mulliken charges:
               1
     1  C   -0.172023
     2  C   -0.218950
     3  C   -0.170154
     4  C    0.158741
     5  C   -0.171684
     6  C   -0.218372
     7  H    0.227293
     8  H    0.226929
     9  H    0.277340
    10  H    0.275898
    11  H    0.224131
    12  N    0.488122
    13  O   -0.459653
    14  O   -0.459835
    15  C   -0.297216
    16  C   -0.302315
    17  C   -0.476034
    18  H    0.150256
    19  H    0.149012
    20  H    0.154760
    21  H    0.148410
    22  H    0.152956
    23  H    0.155870
    24  H    0.167166
    25  C   -0.308734
    26  C   -0.297893
    27  C   -0.477041
    28  H    0.161447
    29  H    0.142608
    30  H    0.153061
    31  H    0.153542
    32  H    0.153268
    33  H    0.146708
    34  H    0.162387
 Sum of Mulliken charges =  -0.00000

 Dipole moment (field-independent basis, Debye):
    X=             -2.5814    Y=             -4.3734    Z=              0.2318  Tot=              5.0837
 Quadrupole moment (field-independent basis, Debye-Ang):
   XX=           -106.1338   YY=            -92.6874   ZZ=            -90.9900
   XY=             -9.9456   XZ=             -2.1259   YZ=              1.5712

 Normal termination of Gaussian 16 at Thu May  6 04:49:47 2021.
