 Gaussian 16, Revision A.03,
 Gaussian 16:  EM64L-G16RevA.03 25-Dec-2016

 -------------
 #p 6-31g* mp2
 -------------

 ------------------------------------------------------
 Input file generated by CHIRIPA (05-May-2021 14:55:23)
 ------------------------------------------------------
 Symbolic Z-matrix:
 Charge =  0 Multiplicity = 1

                         Standard orientation:
 ---------------------------------------------------------------------
 Center     Atomic      Atomic             Coordinates (Angstroms)
 Number     Number       Type             X           Y           Z
 ---------------------------------------------------------------------
      1          6           0        4.587803   -2.106451    0.327374
      2          6           0        3.338390   -2.278627   -0.277476
      3          6           0        2.514016   -1.178050   -0.529837
      4          6           0        2.972646    0.086128   -0.162681
      5          6           0        4.212295    0.290070    0.441444
      6          6           0        5.020006   -0.824912    0.684274
      7          1           0        5.221725   -2.967001    0.519712
      8          1           0        3.000145   -3.272717   -0.555720
      9          1           0        1.542199   -1.282754   -0.996770
     10          1           0        4.522172    1.293359    0.707538
     11          1           0        5.989838   -0.688201    1.154148
     12          7           0        2.108738    1.258884   -0.424799
     13          8           0        2.535842    2.362216   -0.091817
     14          8           0        1.020861    1.052552   -0.958266
     15          6           0       -3.443906    0.550240    0.495850
     16          6           0       -3.195115    1.901397   -0.175316
     17          6           0       -2.105426    2.716195    0.522163
     18          1           0       -3.722730    0.715258    1.545598
     19          1           0       -2.506818   -0.023447    0.507815
     20          1           0       -4.132720    2.471809   -0.187251
     21          1           0       -2.917038    1.733153   -1.223640
     22          1           0       -1.156361    2.170416    0.521493
     23          1           0       -2.378951    2.913269    1.563772
     24          1           0       -1.943883    3.678254    0.025973
     25          6           0       -4.530566   -0.275919   -0.189979
     26          6           0       -4.779357   -1.627076    0.481187
     27          6           0       -5.869045   -2.441873   -0.216293
     28          1           0       -5.467654    0.297769   -0.201944
     29          1           0       -4.251742   -0.440936   -1.239728
     30          1           0       -5.057434   -1.458830    1.529511
     31          1           0       -3.841751   -2.197487    0.493122
     32          1           0       -5.595521   -2.638947   -1.257901
     33          1           0       -6.818111   -1.896094   -0.215623
     34          1           0       -6.030589   -3.403933    0.279897
 ---------------------------------------------------------------------

 SCF Done:  E(RHF) =  -669.536250637     A.U. after   15 cycles
 E2 =    -0.2091022409D+01 EUMP2 =    -0.67162727304592D+03

 The electronic state is 1-A.
 Alpha  occ. eigenvalues --  -20.60997 -20.60992 -15.86021 -11.31329 -11.27892
 Alpha  occ. eigenvalues --  -11.27884 -11.27623 -11.26892 -11.26882 -11.21190
 Alpha  occ. eigenvalues --  -11.20764 -11.20758 -11.20524 -11.20415 -11.19476
 Alpha  occ. eigenvalues --   -1.60052  -1.39609  -1.19495  -1.08901  -1.07668
 Alpha  occ. eigenvalues --   -1.04889  -1.02676  -0.95746  -0.95113  -0.86290
 Alpha  occ. eigenvalues --   -0.86133  -0.82579  -0.78801  -0.77636  -0.77431
 Alpha  occ. eigenvalues --   -0.72240  -0.71367  -0.70603  -0.65151  -0.64891
 Alpha  occ. eigenvalues --   -0.64300  -0.62236  -0.60059  -0.58569  -0.56720
 Alpha  occ. eigenvalues --   -0.55395  -0.54391  -0.53220  -0.52980  -0.51804
 Alpha  occ. eigenvalues --   -0.51552  -0.49263  -0.48995  -0.48793  -0.47093
 Alpha  occ. eigenvalues --   -0.45858  -0.45121  -0.44950  -0.44723  -0.42947
 Alpha  occ. eigenvalues --   -0.37471  -0.36488
 Alpha virt. eigenvalues --    0.04859   0.11167   0.16348   0.21288   0.23551
 Alpha virt. eigenvalues --    0.25237   0.27145   0.27367   0.28073   0.28368
 Alpha virt. eigenvalues --    0.28971   0.30857   0.32176   0.32396   0.32539

 Mulliken charges:
               1
     1  C   -0.170500
     2  C   -0.218498
     3  C   -0.170780
     4  C    0.158393
     5  C   -0.170672
     6  C   -0.218557
     7  H    0.226163
     8  H    0.223951
     9  H    0.275399
    10  H    0.276045
    11  H    0.223990
    12  N    0.488050
    13  O   -0.457832
    14  O   -0.460205
    15  C   -0.297777
    16  C   -0.298072
    17  C   -0.480420
    18  H    0.146273
    19  H    0.150035
    20  H    0.145875
    21  H    0.155391
    22  H    0.175486
    23  H    0.145028
    24  H    0.160100
    25  C   -0.297780
    26  C   -0.298426
    27  C   -0.475166
    28  H    0.148345
    29  H    0.149217
    30  H    0.151051
    31  H    0.148688
    32  H    0.154216
    33  H    0.155199
    34  H    0.157791
 Sum of Mulliken charges =  -0.00000

 Dipole moment (field-independent basis, Debye):
    X=              3.3904    Y=             -4.0989    Z=              0.8569  Tot=              5.3879
 Quadrupole moment (field-independent basis, Debye-Ang):
   XX=            -75.5120   YY=            -94.5783   ZZ=            -94.9638
   XY=            -10.6707   XZ=              3.4758   YZ=              1.9672

 Normal termination of Gaussian 16 at Thu May  6 12:38:07 2021.
