 Gaussian 16, Revision A.03,
 Gaussian 16:  EM64L-G16RevA.03 25-Dec-2016

 -------------
 #p 6-31g* mp2
 -------------

 ------------------------------------------------------
 Input file generated by CHIRIPA (05-May-2021 14:55:20)
 ------------------------------------------------------
 Symbolic Z-matrix:
 Charge =  0 Multiplicity = 1

                         Standard orientation:
 ---------------------------------------------------------------------
 Center     Atomic      Atomic             Coordinates (Angstroms)
 Number     Number       Type             X           Y           Z
 ---------------------------------------------------------------------
      1          6           0        4.713678    1.355951    0.470543
      2          6           0        3.406084    1.852658    0.471249
      3          6           0        2.327428    1.012914    0.178197
      4          6           0        2.593869   -0.324194   -0.112389
      5          6           0        3.885358   -0.848858   -0.121095
      6          6           0        4.948728    0.009153    0.174894
      7          1           0        5.545667    2.015379    0.699334
      8          1           0        3.220558    2.898160    0.700486
      9          1           0        1.305161    1.371168    0.171683
     10          1           0        4.038863   -1.895686   -0.353485
     11          1           0        5.963178   -0.379350    0.173605
     12          7           0        1.460036   -1.222862   -0.424185
     13          8           0        1.721311   -2.396956   -0.676921
     14          8           0        0.331531   -0.736128   -0.409932
     15          6           0       -3.608935    0.940205    0.342668
     16          6           0       -3.375104    2.002232   -0.732231
     17          6           0       -3.477577    3.427216   -0.187519
     18          1           0       -4.600574    1.092759    0.790245
     19          1           0       -2.876837    1.078541    1.150312
     20          1           0       -4.106542    1.861074   -1.538265
     21          1           0       -2.383985    1.847015   -1.177434
     22          1           0       -2.737418    3.591922    0.602189
     23          1           0       -4.469763    3.606060    0.239308
     24          1           0       -3.307040    4.170381   -0.972684
     25          6           0       -3.509756   -0.489433   -0.186504
     26          6           0       -3.743587   -1.551460    0.888395
     27          6           0       -3.641115   -2.976445    0.343683
     28          1           0       -4.241855   -0.627769   -0.994149
     29          1           0       -2.518117   -0.641987   -0.634081
     30          1           0       -4.734707   -1.396243    1.333598
     31          1           0       -3.012149   -1.410302    1.694428
     32          1           0       -2.648929   -3.155288   -0.083145
     33          1           0       -4.381273   -3.141150   -0.446025
     34          1           0       -3.811652   -3.719609    1.128848
 ---------------------------------------------------------------------

 SCF Done:  E(RHF) =  -669.536441598     A.U. after   15 cycles
 E2 =    -0.2091224258D+01 EUMP2 =    -0.67162766585621D+03

 The electronic state is 1-A.
 Alpha  occ. eigenvalues --  -20.61046 -20.61041 -15.86082 -11.31358 -11.27918
 Alpha  occ. eigenvalues --  -11.27912 -11.27645 -11.26914 -11.26904 -11.20910
 Alpha  occ. eigenvalues --  -11.20673 -11.20467 -11.20388 -11.19968 -11.19780
 Alpha  occ. eigenvalues --   -1.60106  -1.39664  -1.19522  -1.08934  -1.07390
 Alpha  occ. eigenvalues --   -1.04912  -1.02580  -0.95784  -0.95030  -0.86315
 Alpha  occ. eigenvalues --   -0.86052  -0.82621  -0.78680  -0.77682  -0.77141
 Alpha  occ. eigenvalues --   -0.72312  -0.71416  -0.70631  -0.65184  -0.64915
 Alpha  occ. eigenvalues --   -0.63994  -0.62261  -0.59970  -0.58448  -0.56635
 Alpha  occ. eigenvalues --   -0.55418  -0.54305  -0.53246  -0.53004  -0.51787
 Alpha  occ. eigenvalues --   -0.51456  -0.49134  -0.49054  -0.48894  -0.46992
 Alpha  occ. eigenvalues --   -0.45711  -0.45086  -0.44723  -0.44491  -0.42795
 Alpha  occ. eigenvalues --   -0.37499  -0.36512
 Alpha virt. eigenvalues --    0.04852   0.11144   0.16360   0.21090   0.23522
 Alpha virt. eigenvalues --    0.25221   0.26920   0.27429   0.28201   0.28799
 Alpha virt. eigenvalues --    0.29030   0.30970   0.31979   0.32430   0.32726

 Mulliken charges:
               1
     1  C   -0.170459
     2  C   -0.218533
     3  C   -0.170837
     4  C    0.157461
     5  C   -0.170327
     6  C   -0.218606
     7  H    0.226290
     8  H    0.224242
     9  H    0.275463
    10  H    0.276012
    11  H    0.224056
    12  N    0.494710
    13  O   -0.458484
    14  O   -0.467550
    15  C   -0.295653
    16  C   -0.300278
    17  C   -0.474629
    18  H    0.144890
    19  H    0.146820
    20  H    0.151003
    21  H    0.154515
    22  H    0.149910
    23  H    0.154722
    24  H    0.156896
    25  C   -0.310263
    26  C   -0.296372
    27  C   -0.478863
    28  H    0.143080
    29  H    0.179954
    30  H    0.144717
    31  H    0.151663
    32  H    0.169445
    33  H    0.150403
    34  H    0.154602
 Sum of Mulliken charges =  -0.00000

 Dipole moment (field-independent basis, Debye):
    X=              4.3632    Y=              3.0357    Z=              1.0088  Tot=              5.4102
 Quadrupole moment (field-independent basis, Debye-Ang):
   XX=            -72.5114   YY=            -95.8663   ZZ=            -95.9946
   XY=              4.4598   XZ=              2.5704   YZ=             -0.2432

 Normal termination of Gaussian 16 at Wed May  5 18:54:43 2021.
