 Gaussian 16, Revision A.03,
 Gaussian 16:  EM64L-G16RevA.03 25-Dec-2016

 -------------
 #p 6-31g* mp2
 -------------

 ------------------------------------------------------
 Input file generated by CHIRIPA (05-May-2021 14:51:09)
 ------------------------------------------------------
 Symbolic Z-matrix:
 Charge =  0 Multiplicity = 1

                         Standard orientation:
 ---------------------------------------------------------------------
 Center     Atomic      Atomic             Coordinates (Angstroms)
 Number     Number       Type             X           Y           Z
 ---------------------------------------------------------------------
      1          6           0       -4.159266   -0.094853   -0.571304
      2          6           0       -5.449191   -0.631712    0.049874
      3          6           0       -6.107958   -1.717572   -0.801436
      4          1           0       -4.379580    0.304180   -1.570894
      5          1           0       -3.455801   -0.926669   -0.714876
      6          1           0       -6.149491    0.201093    0.193509
      7          1           0       -5.225816   -1.029339    1.048179
      8          1           0       -5.430163   -2.566995   -0.934377
      9          1           0       -6.359086   -1.329572   -1.793904
     10          1           0       -7.028397   -2.087176   -0.338785
     11          6           0       -3.489003    0.991368    0.268101
     12          6           0       -2.199079    1.528227   -0.353077
     13          6           0       -1.540312    2.614087    0.498233
     14          1           0       -4.192469    1.823184    0.411674
     15          1           0       -3.268690    0.592335    1.267691
     16          1           0       -2.422454    1.925854   -1.351381
     17          1           0       -1.498778    0.695422   -0.496711
     18          1           0       -1.289184    2.226088    1.490701
     19          1           0       -2.218107    3.463510    0.631175
     20          1           0       -0.619873    2.983691    0.035583
     21          6           0        4.514615   -0.662482   -0.094929
     22          6           0        5.404451    0.512358   -0.502273
     23          6           0        6.782515    0.067746   -0.993246
     24          1           0        5.017728   -1.239246    0.693210
     25          1           0        4.398456   -1.339926   -0.952235
     26          1           0        5.517766    1.188098    0.355137
     27          1           0        4.899077    1.086504   -1.289400
     28          1           0        6.687810   -0.588824   -1.864192
     29          1           0        7.310014   -0.486652   -0.210311
     30          1           0        7.402131    0.923410   -1.279212
     31          6           0        3.133655   -0.234034    0.398132
     32          6           0        2.243818   -1.408873    0.805475
     33          6           0        0.865755   -0.964261    1.296449
     34          1           0        3.249813    0.443411    1.255437
     35          1           0        2.630541    0.342731   -0.390008
     36          1           0        2.749194   -1.983019    1.592602
     37          1           0        2.130504   -2.084613   -0.051935
     38          1           0        0.338255   -0.409862    0.513514
     39          1           0        0.960460   -0.307691    2.167394
     40          1           0        0.246139   -1.819925    1.582415
 ---------------------------------------------------------------------

 SCF Done:  E(RHF) =  -470.733291995     A.U. after   11 cycles
 E2 =    -0.1582682343D+01 EUMP2 =    -0.47231597433783D+03

 The electronic state is 1-A.
 Alpha  occ. eigenvalues --  -11.21631 -11.21609 -11.21578 -11.21561 -11.21419
 Alpha  occ. eigenvalues --  -11.21370 -11.21359 -11.21310 -11.21100 -11.21077
 Alpha  occ. eigenvalues --  -11.21054 -11.21023  -1.08448  -1.08396  -1.03561
 Alpha  occ. eigenvalues --   -1.03489  -0.96010  -0.95937  -0.87020  -0.86961
 Alpha  occ. eigenvalues --   -0.79636  -0.79545  -0.78265  -0.78206  -0.65121
 Alpha  occ. eigenvalues --   -0.64997  -0.61074  -0.60800  -0.59374  -0.59309
 Alpha  occ. eigenvalues --   -0.57625  -0.57542  -0.55344  -0.55181  -0.52696
 Alpha  occ. eigenvalues --   -0.52643  -0.52435  -0.52353  -0.50034  -0.49820
 Alpha  occ. eigenvalues --   -0.48016  -0.47804  -0.46794  -0.46454  -0.45851
 Alpha  occ. eigenvalues --   -0.45745  -0.45726  -0.45553  -0.43804  -0.43752
 Alpha virt. eigenvalues --    0.21215   0.23033   0.23695   0.24893   0.26114
 Alpha virt. eigenvalues --    0.26515   0.27335   0.27554   0.27987   0.28983
 Alpha virt. eigenvalues --    0.30438   0.31004   0.31761   0.31891   0.32143

 Mulliken charges:
               1
     1  C   -0.298403
     2  C   -0.299654
     3  C   -0.475692
     4  H    0.149404
     5  H    0.149635
     6  H    0.151856
     7  H    0.152051
     8  H    0.155138
     9  H    0.155086
    10  H    0.160180
    11  C   -0.298103
    12  C   -0.305058
    13  C   -0.475996
    14  H    0.149360
    15  H    0.150459
    16  H    0.151701
    17  H    0.156195
    18  H    0.156721
    19  H    0.154908
    20  H    0.159819
    21  C   -0.298340
    22  C   -0.299685
    23  C   -0.475720
    24  H    0.149681
    25  H    0.149530
    26  H    0.152008
    27  H    0.151976
    28  H    0.155191
    29  H    0.155185
    30  H    0.160302
    31  C   -0.298301
    32  C   -0.299288
    33  C   -0.483055
    34  H    0.149784
    35  H    0.149626
    36  H    0.152046
    37  H    0.151841
    38  H    0.162348
    39  H    0.155553
    40  H    0.159712
 Sum of Mulliken charges =  -0.00000

 Dipole moment (field-independent basis, Debye):
    X=              0.0143    Y=              0.0008    Z=              0.0111  Tot=              0.0181
 Quadrupole moment (field-independent basis, Debye-Ang):
   XX=            -85.8320   YY=            -84.9801   ZZ=            -84.0101
   XY=             -0.6579   XZ=              0.6849   YZ=             -0.7428

 Normal termination of Gaussian 16 at Wed May  5 15:08:48 2021.
