 Gaussian 16, Revision A.03,
 Gaussian 16:  EM64L-G16RevA.03 25-Dec-2016

 -------------
 #p 6-31g* mp2
 -------------

 ------------------------------------------------------
 Input file generated by CHIRIPA (05-May-2021 14:57:24)
 ------------------------------------------------------
 Symbolic Z-matrix:
 Charge =  0 Multiplicity = 1

                         Standard orientation:
 ---------------------------------------------------------------------
 Center     Atomic      Atomic             Coordinates (Angstroms)
 Number     Number       Type             X           Y           Z
 ---------------------------------------------------------------------
      1          6           0       -2.117545    2.118419   -0.020501
      2          6           0       -1.719311    1.069042    0.814209
      3          6           0       -2.473238   -0.106091    0.886346
      4          6           0       -3.625050   -0.198385    0.106538
      5          6           0       -4.047898    0.829626   -0.734700
      6          6           0       -3.278521    1.995578   -0.790933
      7          1           0       -1.525875    3.027725   -0.070361
      8          1           0       -0.818134    1.161659    1.413665
      9          1           0       -2.187948   -0.933933    1.524082
     10          1           0       -4.951008    0.707971   -1.320372
     11          1           0       -3.590207    2.808918   -1.440066
     12          7           0       -4.431377   -1.437586    0.174488
     13          8           0       -5.442095   -1.494135   -0.522568
     14          8           0       -4.037389   -2.328859    0.923517
     15          6           0        1.863611    1.917328    0.027713
     16          6           0        1.477771    0.710117   -0.564139
     17          6           0        2.371824   -0.362163   -0.637847
     18          6           0        3.649599   -0.191776   -0.107236
     19          6           0        4.063748    0.998482    0.488632
     20          6           0        3.153094    2.057411    0.551287
     21          1           0        1.162641    2.745116    0.080679
     22          1           0        0.476985    0.598477   -0.971582
     23          1           0        2.099350   -1.307790   -1.090578
     24          1           0        5.068174    1.079734    0.886056
     25          1           0        3.455492    2.993790    1.011500
     26          7           0        4.604880   -1.319884   -0.179417
     27          8           0        5.724867   -1.144415    0.295427
     28          8           0        4.215554   -2.358203   -0.709469
 ---------------------------------------------------------------------

 SCF Done:  E(RHF) =  -868.335529036     A.U. after   16 cycles
 E2 =    -0.2602761729D+01 EUMP2 =    -0.87093829076575D+03

 The electronic state is 1-A.
 Alpha  occ. eigenvalues --  -20.61406 -20.61400 -20.61204 -20.61196 -15.86463
 Alpha  occ. eigenvalues --  -15.86256 -11.32069 -11.31807 -11.28608 -11.28601
 Alpha  occ. eigenvalues --  -11.28520 -11.28353 -11.28308 -11.28259 -11.27731
 Alpha  occ. eigenvalues --  -11.27695 -11.27492 -11.27342  -1.60476  -1.60273
 Alpha  occ. eigenvalues --   -1.40022  -1.39821  -1.20274  -1.19988  -1.09675
 Alpha  occ. eigenvalues --   -1.09374  -1.05695  -1.05376  -0.96449  -0.96179
 Alpha  occ. eigenvalues --   -0.87158  -0.86728  -0.83243  -0.82987  -0.78240
 Alpha  occ. eigenvalues --   -0.77968  -0.72679  -0.72473  -0.71803  -0.71598
 Alpha  occ. eigenvalues --   -0.71574  -0.71044  -0.65957  -0.65827  -0.65594
 Alpha  occ. eigenvalues --   -0.65253  -0.63011  -0.62681  -0.56390  -0.55888
 Alpha  occ. eigenvalues --   -0.54201  -0.53938  -0.53529  -0.53299  -0.49455
 Alpha  occ. eigenvalues --   -0.49417  -0.49245  -0.49217  -0.45373  -0.45184
 Alpha  occ. eigenvalues --   -0.38390  -0.38033  -0.37373  -0.36787
 Alpha virt. eigenvalues --    0.04244   0.04485   0.09912   0.10994   0.15556
 Alpha virt. eigenvalues --    0.15956   0.18753   0.21795   0.24884   0.26714
 Alpha virt. eigenvalues --    0.26992   0.29236   0.29982   0.31499   0.32073

 Mulliken charges:
               1
     1  C   -0.180622
     2  C   -0.226471
     3  C   -0.172778
     4  C    0.159806
     5  C   -0.170789
     6  C   -0.216750
     7  H    0.221087
     8  H    0.230358
     9  H    0.280226
    10  H    0.278863
    11  H    0.226501
    12  N    0.487756
    13  O   -0.457736
    14  O   -0.457014
    15  C   -0.180856
    16  C   -0.223648
    17  C   -0.172333
    18  C    0.160149
    19  C   -0.171206
    20  C   -0.217680
    21  H    0.216790
    22  H    0.233253
    23  H    0.279361
    24  H    0.277667
    25  H    0.224563
    26  N    0.487713
    27  O   -0.458809
    28  O   -0.457401
 Sum of Mulliken charges =  -0.00000

 Dipole moment (field-independent basis, Debye):
    X=             -0.6229    Y=              8.0750    Z=             -0.0020  Tot=              8.0990
 Quadrupole moment (field-independent basis, Debye-Ang):
   XX=           -144.6297   YY=           -107.0674   ZZ=           -102.6831
   XY=             -0.4886   XZ=              6.7698   YZ=              0.0076

 Normal termination of Gaussian 16 at Wed May  5 22:44:16 2021.
