 Gaussian 16, Revision A.03,
 Gaussian 16:  EM64L-G16RevA.03 25-Dec-2016

 -------------
 #p 6-31g* mp2
 -------------

 ------------------------------------------------------
 Input file generated by CHIRIPA (05-May-2021 14:55:24)
 ------------------------------------------------------
 Symbolic Z-matrix:
 Charge =  0 Multiplicity = 1

                         Standard orientation:
 ---------------------------------------------------------------------
 Center     Atomic      Atomic             Coordinates (Angstroms)
 Number     Number       Type             X           Y           Z
 ---------------------------------------------------------------------
      1          6           0       -0.453966   -1.731773    1.335857
      2          6           0       -1.538576   -2.325995    0.682373
      3          6           0       -2.511124   -1.537726    0.060013
      4          6           0       -2.367106   -0.152096    0.110785
      5          6           0       -1.297977    0.469671    0.753948
      6          6           0       -0.337333   -0.338294    1.369500
      7          1           0        0.296909   -2.351770    1.816677
      8          1           0       -1.631727   -3.407937    0.654650
      9          1           0       -3.360937   -1.971520   -0.452880
     10          1           0       -1.232227    1.550864    0.764770
     11          1           0        0.503926    0.125936    1.876272
     12          7           0       -3.390397    0.692834   -0.544476
     13          8           0       -3.240632    1.911331   -0.485550
     14          8           0       -4.322842    0.120595   -1.104588
     15          6           0        3.068826   -0.313928   -0.063856
     16          6           0        2.905055   -1.387713   -1.140030
     17          6           0        3.419380   -2.756328   -0.692640
     18          1           0        4.130025   -0.236907    0.209764
     19          1           0        2.534286   -0.629030    0.842992
     20          1           0        3.438590   -1.070040   -2.045038
     21          1           0        1.844147   -1.462053   -1.411257
     22          1           0        2.880087   -3.098725    0.196476
     23          1           0        4.483590   -2.704486   -0.440906
     24          1           0        3.292590   -3.508919   -1.477110
     25          6           0        2.559219    1.059786   -0.496220
     26          6           0        2.722990    2.133571    0.579954
     27          6           0        2.208666    3.502186    0.132564
     28          1           0        3.093759    1.374888   -1.403069
     29          1           0        1.498020    0.982766   -0.769840
     30          1           0        3.783897    2.207911    0.851181
     31          1           0        2.189455    1.815898    1.484962
     32          1           0        1.144456    3.450344   -0.119170
     33          1           0        2.747958    3.844584   -0.756552
     34          1           0        2.335455    4.254777    0.917034
 ---------------------------------------------------------------------

 SCF Done:  E(RHF) =  -669.534141047     A.U. after   15 cycles
 E2 =    -0.2095313382D+01 EUMP2 =    -0.67162945442956D+03

 The electronic state is 1-A.
 Alpha  occ. eigenvalues --  -20.60833 -20.60828 -15.85886 -11.31285 -11.27835
 Alpha  occ. eigenvalues --  -11.27831 -11.27584 -11.26872 -11.26829 -11.22388
 Alpha  occ. eigenvalues --  -11.22180 -11.22100 -11.21940 -11.21787 -11.21605
 Alpha  occ. eigenvalues --   -1.59907  -1.39460  -1.19458  -1.09146  -1.08819
 Alpha  occ. eigenvalues --   -1.04863  -1.04193  -0.96627  -0.95675  -0.87640
 Alpha  occ. eigenvalues --   -0.86266  -0.82507  -0.80253  -0.78938  -0.77555
 Alpha  occ. eigenvalues --   -0.72104  -0.71231  -0.70566  -0.66046  -0.65111
 Alpha  occ. eigenvalues --   -0.64676  -0.62227  -0.61538  -0.59988  -0.58234
 Alpha  occ. eigenvalues --   -0.55973  -0.55333  -0.53336  -0.53179  -0.53018
 Alpha  occ. eigenvalues --   -0.52923  -0.50582  -0.48871  -0.48858  -0.48566
 Alpha  occ. eigenvalues --   -0.47310  -0.46446  -0.46354  -0.44858  -0.44432
 Alpha  occ. eigenvalues --   -0.37407  -0.36407
 Alpha virt. eigenvalues --    0.04933   0.11091   0.16297   0.18866   0.22066
 Alpha virt. eigenvalues --    0.23464   0.24928   0.25861   0.26762   0.27807
 Alpha virt. eigenvalues --    0.29299   0.30629   0.31136   0.31861   0.32299

 Mulliken charges:
               1
     1  C   -0.172140
     2  C   -0.218836
     3  C   -0.171102
     4  C    0.158671
     5  C   -0.176370
     6  C   -0.218415
     7  H    0.227117
     8  H    0.224210
     9  H    0.275988
    10  H    0.277165
    11  H    0.230856
    12  N    0.488051
    13  O   -0.460155
    14  O   -0.460026
    15  C   -0.295709
    16  C   -0.302194
    17  C   -0.474750
    18  H    0.151486
    19  H    0.136727
    20  H    0.155264
    21  H    0.157123
    22  H    0.146024
    23  H    0.157252
    24  H    0.162876
    25  C   -0.304778
    26  C   -0.302867
    27  C   -0.477256
    28  H    0.154471
    29  H    0.155660
    30  H    0.155752
    31  H    0.140478
    32  H    0.157113
    33  H    0.159860
    34  H    0.162454
 Sum of Mulliken charges =  -0.00000

 Dipole moment (field-independent basis, Debye):
    X=              3.6253    Y=             -2.9121    Z=              2.1529  Tot=              5.1242
 Quadrupole moment (field-independent basis, Debye-Ang):
   XX=           -110.2068   YY=            -91.4105   ZZ=            -94.4486
   XY=              9.7456   XZ=             -5.1119   YZ=              0.6711

 Normal termination of Gaussian 16 at Thu May  6 06:22:13 2021.
