 Gaussian 16, Revision A.03,
 Gaussian 16:  EM64L-G16RevA.03 25-Dec-2016

 -------------
 #p 6-31g* mp2
 -------------

 ------------------------------------------------------
 Input file generated by CHIRIPA (05-May-2021 14:57:26)
 ------------------------------------------------------
 Symbolic Z-matrix:
 Charge =  0 Multiplicity = 1

                         Standard orientation:
 ---------------------------------------------------------------------
 Center     Atomic      Atomic             Coordinates (Angstroms)
 Number     Number       Type             X           Y           Z
 ---------------------------------------------------------------------
      1          6           0       -4.205771   -2.084411   -0.362542
      2          6           0       -2.934411   -1.675731   -0.778649
      3          6           0       -2.515948   -0.355203   -0.589856
      4          6           0       -3.398455    0.534229    0.021193
      5          6           0       -4.671344    0.157402    0.446685
      6          6           0       -5.068658   -1.168156    0.247722
      7          1           0       -4.522628   -3.112183   -0.513151
      8          1           0       -2.262173   -2.385138   -1.252868
      9          1           0       -1.537176   -0.012036   -0.902363
     10          1           0       -5.319254    0.887432    0.916458
     11          1           0       -6.056587   -1.482735    0.571886
     12          7           0       -2.966642    1.934875    0.226444
     13          8           0       -3.762883    2.699167    0.767271
     14          8           0       -1.840122    2.241888   -0.157395
     15          6           0        1.532291   -1.910038    0.189663
     16          6           0        2.565894   -1.953367    1.131103
     17          6           0        3.644257   -1.067991    1.042830
     18          6           0        3.656917   -0.148060   -0.004480
     19          6           0        2.642202   -0.080145   -0.957911
     20          6           0        1.573671   -0.975214   -0.850006
     21          1           0        0.698412   -2.601584    0.265861
     22          1           0        2.536400   -2.678303    1.939584
     23          1           0        4.457751   -1.079700    1.758028
     24          1           0        2.699443    0.653675   -1.752674
     25          1           0        0.772358   -0.939275   -1.582570
     26          7           0        4.793327    0.794377   -0.108323
     27          8           0        4.780976    1.595410   -1.040434
     28          8           0        5.674878    0.714183    0.744364
 ---------------------------------------------------------------------

 SCF Done:  E(RHF) =  -868.336360694     A.U. after   16 cycles
 E2 =    -0.2600393999D+01 EUMP2 =    -0.87093675469307D+03

 The electronic state is 1-A.
 Alpha  occ. eigenvalues --  -20.61275 -20.61270 -20.60733 -20.60722 -15.86336
 Alpha  occ. eigenvalues --  -15.85792 -11.31869 -11.31287 -11.28544 -11.28422
 Alpha  occ. eigenvalues --  -11.28236 -11.27915 -11.27899 -11.27787 -11.27611
 Alpha  occ. eigenvalues --  -11.27448 -11.27073 -11.26943  -1.60347  -1.59801
 Alpha  occ. eigenvalues --   -1.39896  -1.39351  -1.20067  -1.19509  -1.09422
 Alpha  occ. eigenvalues --   -1.08902  -1.05517  -1.04941  -0.96230  -0.95700
 Alpha  occ. eigenvalues --   -0.86897  -0.86358  -0.83075  -0.82533  -0.78106
 Alpha  occ. eigenvalues --   -0.77532  -0.72550  -0.72013  -0.71673  -0.71177
 Alpha  occ. eigenvalues --   -0.71122  -0.70660  -0.65730  -0.65547  -0.65183
 Alpha  occ. eigenvalues --   -0.65009  -0.62897  -0.62241  -0.55984  -0.55516
 Alpha  occ. eigenvalues --   -0.53809  -0.53650  -0.53222  -0.53038  -0.49321
 Alpha  occ. eigenvalues --   -0.49297  -0.48784  -0.48752  -0.45265  -0.44727
 Alpha  occ. eigenvalues --   -0.38037  -0.37541  -0.37103  -0.36517
 Alpha virt. eigenvalues --    0.04454   0.05028   0.10497   0.11020   0.15867
 Alpha virt. eigenvalues --    0.16409   0.18210   0.22128   0.24930   0.26306
 Alpha virt. eigenvalues --    0.27983   0.29195   0.30593   0.30991   0.32554

 Mulliken charges:
               1
     1  C   -0.170232
     2  C   -0.222034
     3  C   -0.174073
     4  C    0.159729
     5  C   -0.169137
     6  C   -0.218511
     7  H    0.226965
     8  H    0.216385
     9  H    0.274038
    10  H    0.278307
    11  H    0.226084
    12  N    0.487754
    13  O   -0.457698
    14  O   -0.459109
    15  C   -0.169419
    16  C   -0.218177
    17  C   -0.168927
    18  C    0.158932
    19  C   -0.165682
    20  C   -0.219125
    21  H    0.219685
    22  H    0.223633
    23  H    0.276943
    24  H    0.279461
    25  H    0.214052
    26  N    0.488224
    27  O   -0.457948
    28  O   -0.460117
 Sum of Mulliken charges =  -0.00000

 Dipole moment (field-independent basis, Debye):
    X=             -5.5264    Y=             -8.0684    Z=             -0.2380  Tot=              9.7825
 Quadrupole moment (field-independent basis, Debye-Ang):
   XX=           -118.0878   YY=           -109.3854   ZZ=           -101.6153
   XY=              2.5547   XZ=              3.3787   YZ=             -2.1117

 Normal termination of Gaussian 16 at Fri May  7 11:13:07 2021.
