 Gaussian 16, Revision A.03,
 Gaussian 16:  EM64L-G16RevA.03 25-Dec-2016

 -------------
 #p 6-31g* mp2
 -------------

 ------------------------------------------------------
 Input file generated by CHIRIPA (05-May-2021 14:57:24)
 ------------------------------------------------------
 Symbolic Z-matrix:
 Charge =  0 Multiplicity = 1

                         Standard orientation:
 ---------------------------------------------------------------------
 Center     Atomic      Atomic             Coordinates (Angstroms)
 Number     Number       Type             X           Y           Z
 ---------------------------------------------------------------------
      1          6           0        2.155965   -2.329901    0.676253
      2          6           0        3.398481   -2.058960    1.258719
      3          6           0        4.137483   -0.938934    0.866334
      4          6           0        3.601442   -0.107369   -0.115730
      5          6           0        2.366432   -0.350523   -0.714825
      6          6           0        1.644807   -1.476322   -0.306927
      7          1           0        1.588640   -3.202206    0.987093
      8          1           0        3.797928   -2.720115    2.022500
      9          1           0        5.101991   -0.705542    1.300697
     10          1           0        1.994325    0.326945   -1.473767
     11          1           0        0.680125   -1.684261   -0.761013
     12          7           0        4.374592    1.081408   -0.539342
     13          8           0        3.880321    1.798487   -1.406596
     14          8           0        5.460220    1.273584    0.003907
     15          6           0       -2.117822    2.296299    0.790619
     16          6           0       -1.475580    1.165878    0.274676
     17          6           0       -2.216937    0.055862   -0.141019
     18          6           0       -3.605130    0.110617   -0.026082
     19          6           0       -4.274126    1.222274    0.483776
     20          6           0       -3.512586    2.320846    0.893340
     21          1           0       -1.534079    3.154141    1.111160
     22          1           0       -0.392523    1.144013    0.193736
     23          1           0       -1.745426   -0.832164   -0.544140
     24          1           0       -5.355180    1.214541    0.552189
     25          1           0       -4.014051    3.197394    1.293641
     26          7           0       -4.400654   -1.058449   -0.462915
     27          8           0       -5.622466   -0.985279   -0.351294
     28          8           0       -3.787311   -2.025798   -0.908654
 ---------------------------------------------------------------------

 SCF Done:  E(RHF) =  -868.337808903     A.U. after   16 cycles
 E2 =    -0.2600395313D+01 EUMP2 =    -0.87093820421627D+03

 The electronic state is 1-A.
 Alpha  occ. eigenvalues --  -20.61403 -20.61389 -20.61248 -20.61224 -15.86457
 Alpha  occ. eigenvalues --  -15.86290 -11.31897 -11.31627 -11.28532 -11.28431
 Alpha  occ. eigenvalues --  -11.28271 -11.28151 -11.28127 -11.27823 -11.27555
 Alpha  occ. eigenvalues --  -11.27415 -11.27148 -11.27118  -1.60476  -1.60311
 Alpha  occ. eigenvalues --   -1.40027  -1.39869  -1.20074  -1.19770  -1.09430
 Alpha  occ. eigenvalues --   -1.09151  -1.05508  -1.05171  -0.96256  -0.96007
 Alpha  occ. eigenvalues --   -0.86875  -0.86562  -0.83114  -0.82835  -0.78187
 Alpha  occ. eigenvalues --   -0.77887  -0.72667  -0.72509  -0.71806  -0.71632
 Alpha  occ. eigenvalues --   -0.71123  -0.70872  -0.65720  -0.65560  -0.65396
 Alpha  occ. eigenvalues --   -0.65121  -0.62984  -0.62397  -0.55919  -0.55620
 Alpha  occ. eigenvalues --   -0.53839  -0.53624  -0.53483  -0.53168  -0.49434
 Alpha  occ. eigenvalues --   -0.49421  -0.49275  -0.49252  -0.45417  -0.45282
 Alpha  occ. eigenvalues --   -0.38012  -0.37708  -0.37119  -0.36766
 Alpha virt. eigenvalues --    0.04348   0.04625   0.10492   0.10882   0.15688
 Alpha virt. eigenvalues --    0.16151   0.18710   0.22078   0.24574   0.26410
 Alpha virt. eigenvalues --    0.28149   0.28943   0.30137   0.31133   0.31898

 Mulliken charges:
               1
     1  C   -0.170414
     2  C   -0.218058
     3  C   -0.169978
     4  C    0.158851
     5  C   -0.179673
     6  C   -0.224888
     7  H    0.232048
     8  H    0.227088
     9  H    0.277914
    10  H    0.275209
    11  H    0.227336
    12  N    0.487911
    13  O   -0.460998
    14  O   -0.457877
    15  C   -0.170825
    16  C   -0.221477
    17  C   -0.177436
    18  C    0.160519
    19  C   -0.170425
    20  C   -0.218023
    21  H    0.230240
    22  H    0.226257
    23  H    0.268077
    24  H    0.276771
    25  H    0.225709
    26  N    0.488137
    27  O   -0.457792
    28  O   -0.464204
 Sum of Mulliken charges =  -0.00000

 Dipole moment (field-independent basis, Debye):
    X=              0.2110    Y=             -0.0557    Z=              3.1952  Tot=              3.2027
 Quadrupole moment (field-independent basis, Debye-Ang):
   XX=           -137.8055   YY=           -102.0320   ZZ=           -104.0129
   XY=            -33.5585   XZ=              1.6229   YZ=              0.1169

 Normal termination of Gaussian 16 at Fri May  7 08:03:28 2021.
