 Gaussian 16, Revision A.03,
 Gaussian 16:  EM64L-G16RevA.03 25-Dec-2016

 -------------
 #p 6-31g* mp2
 -------------

 ------------------------------------------------------
 Input file generated by CHIRIPA (05-May-2021 14:53:14)
 ------------------------------------------------------
 Symbolic Z-matrix:
 Charge =  0 Multiplicity = 1

                         Standard orientation:
 ---------------------------------------------------------------------
 Center     Atomic      Atomic             Coordinates (Angstroms)
 Number     Number       Type             X           Y           Z
 ---------------------------------------------------------------------
      1          6           0       -4.325738   -0.149011    0.161129
      2          6           0       -5.714568   -0.020148   -0.465394
      3          6           0       -6.481996   -1.342519   -0.478923
      4          1           0       -3.749524   -0.903356   -0.391940
      5          1           0       -4.428050   -0.525169    1.188471
      6          1           0       -5.609756    0.356969   -1.490779
      7          1           0       -6.287477    0.734116    0.089112
      8          1           0       -6.615980   -1.720611    0.539751
      9          1           0       -5.934409   -2.099901   -1.049117
     10          1           0       -7.472044   -1.227518   -0.931073
     11          6           0       -3.546250    1.164646    0.181911
     12          6           0       -2.157420    1.035783    0.808434
     13          6           0       -1.389992    2.358154    0.821963
     14          1           0       -3.443938    1.540805   -0.845431
     15          1           0       -4.122464    1.918991    0.734980
     16          1           0       -1.584511    0.281519    0.253928
     17          1           0       -2.262232    0.658666    1.833819
     18          1           0       -1.937579    3.115536    1.392157
     19          1           0       -1.256008    2.736246   -0.196711
     20          1           0       -0.399944    2.243153    1.274113
     21          6           0        0.930366   -1.720190   -0.011749
     22          6           0        0.995303   -0.563296   -0.795266
     23          6           0        2.178358    0.177838   -0.870432
     24          6           0        3.282331   -0.268785   -0.145818
     25          6           0        3.248995   -1.417245    0.643624
     26          6           0        2.055435   -2.142728    0.703934
     27          1           0        0.007260   -2.289843    0.040871
     28          1           0        0.123128   -0.232776   -1.352144
     29          1           0        2.256305    1.077158   -1.469234
     30          1           0        4.134954   -1.721736    1.187481
     31          1           0        2.007905   -3.040801    1.313238
     32          7           0        4.540339    0.507535   -0.217529
     33          8           0        5.498982    0.092963    0.430367
     34          8           0        4.543900    1.515887   -0.920275
 ---------------------------------------------------------------------

 SCF Done:  E(RHF) =  -669.534978986     A.U. after   15 cycles
 E2 =    -0.2092326230D+01 EUMP2 =    -0.67162730521575D+03

 The electronic state is 1-A.
 Alpha  occ. eigenvalues --  -20.60774 -20.60769 -15.85828 -11.31206 -11.27776
 Alpha  occ. eigenvalues --  -11.27772 -11.27518 -11.26791 -11.26781 -11.22318
 Alpha  occ. eigenvalues --  -11.22205 -11.22123 -11.22047 -11.21629 -11.21621
 Alpha  occ. eigenvalues --   -1.59849  -1.39402  -1.19384  -1.09123  -1.08774
 Alpha  occ. eigenvalues --   -1.04793  -1.04161  -0.96597  -0.95606  -0.87611
 Alpha  occ. eigenvalues --   -0.86194  -0.82437  -0.80238  -0.78948  -0.77483
 Alpha  occ. eigenvalues --   -0.72047  -0.71173  -0.70484  -0.65826  -0.65034
 Alpha  occ. eigenvalues --   -0.64784  -0.62211  -0.61494  -0.59958  -0.58209
 Alpha  occ. eigenvalues --   -0.55902  -0.55279  -0.53296  -0.53088  -0.52998
 Alpha  occ. eigenvalues --   -0.52881  -0.50549  -0.48816  -0.48800  -0.48530
 Alpha  occ. eigenvalues --   -0.47280  -0.46480  -0.46409  -0.44805  -0.44421
 Alpha  occ. eigenvalues --   -0.37331  -0.36365
 Alpha virt. eigenvalues --    0.05042   0.11143   0.16511   0.19800   0.22734
 Alpha virt. eigenvalues --    0.23779   0.25441   0.26322   0.27177   0.28079
 Alpha virt. eigenvalues --    0.29170   0.30432   0.31055   0.31379   0.31803

 Mulliken charges:
               1
     1  C   -0.297065
     2  C   -0.299959
     3  C   -0.475958
     4  H    0.142274
     5  H    0.150742
     6  H    0.152533
     7  H    0.154299
     8  H    0.155800
     9  H    0.153845
    10  H    0.162491
    11  C   -0.298621
    12  C   -0.302357
    13  C   -0.476921
    14  H    0.148413
    15  H    0.153257
    16  H    0.143333
    17  H    0.154101
    18  H    0.158811
    19  H    0.152118
    20  H    0.165526
    21  C   -0.169863
    22  C   -0.215697
    23  C   -0.172684
    24  C    0.158098
    25  C   -0.170882
    26  C   -0.218909
    27  H    0.226253
    28  H    0.224229
    29  H    0.275961
    30  H    0.275716
    31  H    0.223643
    32  N    0.488097
    33  O   -0.460394
    34  O   -0.460231
 Sum of Mulliken charges =  -0.00000

 Dipole moment (field-independent basis, Debye):
    X=             -4.4995    Y=             -2.6821    Z=              0.3205  Tot=              5.2481
 Quadrupole moment (field-independent basis, Debye-Ang):
   XX=           -123.3068   YY=            -92.1356   ZZ=            -92.5415
   XY=            -10.3260   XZ=              2.5098   YZ=             -1.8149

 Normal termination of Gaussian 16 at Thu May  6 17:06:57 2021.
