 Gaussian 16, Revision A.03,
 Gaussian 16:  EM64L-G16RevA.03 25-Dec-2016

 -------------
 #p 6-31g* mp2
 -------------

 ------------------------------------------------------
 Input file generated by CHIRIPA (05-May-2021 14:55:23)
 ------------------------------------------------------
 Symbolic Z-matrix:
 Charge =  0 Multiplicity = 1

                         Standard orientation:
 ---------------------------------------------------------------------
 Center     Atomic      Atomic             Coordinates (Angstroms)
 Number     Number       Type             X           Y           Z
 ---------------------------------------------------------------------
      1          6           0       -3.138118   -2.509025    0.724515
      2          6           0       -1.817528   -2.140440    0.447553
      3          6           0       -1.521769   -0.856067   -0.018774
      4          6           0       -2.575846    0.038489   -0.197609
      5          6           0       -3.901813   -0.298822    0.069454
      6          6           0       -4.174219   -1.588663    0.534916
      7          1           0       -3.358800   -3.508881    1.086433
      8          1           0       -1.010863   -2.853131    0.593867
      9          1           0       -0.508440   -0.544320   -0.241024
     10          1           0       -4.684707    0.433479   -0.086210
     11          1           0       -5.200753   -1.872144    0.749187
     12          7           0       -2.275101    1.401091   -0.690831
     13          8           0       -3.221668    2.170744   -0.840102
     14          8           0       -1.098505    1.673644   -0.918808
     15          6           0        3.342311   -0.445021   -0.192175
     16          6           0        4.678013   -1.187061   -0.135065
     17          6           0        4.625672   -2.552242   -0.821604
     18          1           0        2.565884   -1.063943    0.277977
     19          1           0        3.046502   -0.317093   -1.242662
     20          1           0        4.971894   -1.312330    0.914963
     21          1           0        5.451389   -0.566218   -0.605236
     22          1           0        4.356763   -2.442547   -1.877186
     23          1           0        3.874544   -3.192898   -0.348351
     24          1           0        5.590972   -3.065357   -0.768968
     25          6           0        3.378746    0.921398    0.489955
     26          6           0        2.043044    1.663438    0.432845
     27          6           0        2.095385    3.028619    1.119384
     28          1           0        3.674555    0.793470    1.540443
     29          1           0        4.155173    1.540320    0.019804
     30          1           0        1.269669    1.042596    0.903016
     31          1           0        1.749163    1.788707   -0.617182
     32          1           0        2.846514    3.669275    0.646132
     33          1           0        2.364293    2.918923    2.174967
     34          1           0        1.130086    3.541734    1.066749
 ---------------------------------------------------------------------

 SCF Done:  E(RHF) =  -669.535626839     A.U. after   15 cycles
 E2 =    -0.2092388419D+01 EUMP2 =    -0.67162801525849D+03

 The electronic state is 1-A.
 Alpha  occ. eigenvalues --  -20.60843 -20.60836 -15.85880 -11.31212 -11.27784
 Alpha  occ. eigenvalues --  -11.27747 -11.27525 -11.26796 -11.26781 -11.21638
 Alpha  occ. eigenvalues --  -11.21403 -11.21215 -11.21007 -11.20796 -11.20249
 Alpha  occ. eigenvalues --   -1.59912  -1.39466  -1.19384  -1.08790  -1.08198
 Alpha  occ. eigenvalues --   -1.04781  -1.03182  -0.95695  -0.95612  -0.86700
 Alpha  occ. eigenvalues --   -0.86182  -0.82470  -0.79315  -0.78055  -0.77400
 Alpha  occ. eigenvalues --   -0.72103  -0.71227  -0.70495  -0.65043  -0.64872
 Alpha  occ. eigenvalues --   -0.64754  -0.62131  -0.60583  -0.59068  -0.57227
 Alpha  occ. eigenvalues --   -0.55290  -0.54999  -0.53115  -0.52882  -0.52329
 Alpha  occ. eigenvalues --   -0.52096  -0.49655  -0.48912  -0.48865  -0.47559
 Alpha  occ. eigenvalues --   -0.46374  -0.45541  -0.45338  -0.44810  -0.43460
 Alpha  occ. eigenvalues --   -0.37369  -0.36382
 Alpha virt. eigenvalues --    0.04987   0.11223   0.16485   0.20460   0.23076
 Alpha virt. eigenvalues --    0.24485   0.25133   0.26986   0.27818   0.28212
 Alpha virt. eigenvalues --    0.29756   0.30727   0.31551   0.31847   0.32596

 Mulliken charges:
               1
     1  C   -0.170483
     2  C   -0.219992
     3  C   -0.175426
     4  C    0.156725
     5  C   -0.170538
     6  C   -0.218766
     7  H    0.225692
     8  H    0.223735
     9  H    0.283842
    10  H    0.275525
    11  H    0.223509
    12  N    0.492184
    13  O   -0.460040
    14  O   -0.463843
    15  C   -0.297681
    16  C   -0.299062
    17  C   -0.475201
    18  H    0.137757
    19  H    0.151939
    20  H    0.151663
    21  H    0.154253
    22  H    0.155927
    23  H    0.150244
    24  H    0.160840
    25  C   -0.299024
    26  C   -0.297591
    27  C   -0.477993
    28  H    0.146284
    29  H    0.150088
    30  H    0.143462
    31  H    0.169150
    32  H    0.152881
    33  H    0.148551
    34  H    0.171386
 Sum of Mulliken charges =  -0.00000

 Dipole moment (field-independent basis, Debye):
    X=             -1.1628    Y=             -4.6338    Z=              1.6170  Tot=              5.0437
 Quadrupole moment (field-independent basis, Debye-Ang):
   XX=            -84.7134   YY=            -96.1257   ZZ=            -95.8855
   XY=             11.6662   XZ=             -5.0921   YZ=             -0.0340

 Normal termination of Gaussian 16 at Thu May  6 01:32:10 2021.
