 Gaussian 16, Revision A.03,
 Gaussian 16:  EM64L-G16RevA.03 25-Dec-2016

 -------------
 #p 6-31g* mp2
 -------------

 ------------------------------------------------------
 Input file generated by CHIRIPA (05-May-2021 14:57:26)
 ------------------------------------------------------
 Symbolic Z-matrix:
 Charge =  0 Multiplicity = 1

                         Standard orientation:
 ---------------------------------------------------------------------
 Center     Atomic      Atomic             Coordinates (Angstroms)
 Number     Number       Type             X           Y           Z
 ---------------------------------------------------------------------
      1          6           0       -0.676139   -2.037393   -0.433233
      2          6           0       -1.048176   -1.777779    0.889911
      3          6           0       -2.120615   -0.926364    1.171895
      4          6           0       -2.802020   -0.348937    0.101588
      5          6           0       -2.455442   -0.587974   -1.227334
      6          6           0       -1.379718   -1.442710   -1.485777
      7          1           0        0.158233   -2.700083   -0.643141
      8          1           0       -0.503579   -2.238224    1.709331
      9          1           0       -2.429893   -0.708065    2.186838
     10          1           0       -3.017415   -0.114293   -2.023092
     11          1           0       -1.093017   -1.642515   -2.514332
     12          7           0       -3.939102    0.554176    0.387651
     13          8           0       -4.523303    1.050489   -0.573088
     14          8           0       -4.224614    0.748623    1.567189
     15          6           0        3.649519   -1.760230    0.388598
     16          6           0        2.886963   -1.554048   -0.765749
     17          6           0        2.308828   -0.307083   -1.021452
     18          6           0        2.514565    0.716077   -0.097273
     19          6           0        3.269116    0.541803    1.061851
     20          6           0        3.837829   -0.713491    1.297114
     21          1           0        4.094969   -2.732138    0.579294
     22          1           0        2.739043   -2.365133   -1.473072
     23          1           0        1.713892   -0.119977   -1.907151
     24          1           0        3.398912    1.369563    1.748426
     25          1           0        4.429559   -0.870734    2.194430
     26          7           0        1.907505    2.040593   -0.357154
     27          8           0        2.103668    2.925763    0.472685
     28          8           0        1.247025    2.168498   -1.385766
 ---------------------------------------------------------------------

 SCF Done:  E(RHF) =  -868.335300851     A.U. after   16 cycles
 E2 =    -0.2603165582D+01 EUMP2 =    -0.87093846643325D+03

 The electronic state is 1-A.
 Alpha  occ. eigenvalues --  -20.61185 -20.61178 -20.60539 -20.60528 -15.86250
 Alpha  occ. eigenvalues --  -15.85599 -11.31821 -11.31078 -11.28506 -11.28428
 Alpha  occ. eigenvalues --  -11.28285 -11.27723 -11.27711 -11.27584 -11.27554
 Alpha  occ. eigenvalues --  -11.27461 -11.26790 -11.26754  -1.60253  -1.59607
 Alpha  occ. eigenvalues --   -1.39802  -1.39158  -1.20064  -1.19309  -1.09413
 Alpha  occ. eigenvalues --   -1.08706  -1.05519  -1.04739  -0.96205  -0.95505
 Alpha  occ. eigenvalues --   -0.86898  -0.86148  -0.83059  -0.82329  -0.78050
 Alpha  occ. eigenvalues --   -0.77336  -0.72467  -0.71823  -0.71579  -0.71171
 Alpha  occ. eigenvalues --   -0.70924  -0.70499  -0.65716  -0.65535  -0.64978
 Alpha  occ. eigenvalues --   -0.64783  -0.62854  -0.62085  -0.56005  -0.55413
 Alpha  occ. eigenvalues --   -0.53936  -0.53589  -0.52875  -0.52852  -0.49239
 Alpha  occ. eigenvalues --   -0.49205  -0.48591  -0.48562  -0.45161  -0.44539
 Alpha  occ. eigenvalues --   -0.38104  -0.37897  -0.36433  -0.36331
 Alpha virt. eigenvalues --    0.04387   0.05354   0.10338   0.11293   0.15728
 Alpha virt. eigenvalues --    0.16824   0.19615   0.21964   0.25658   0.26623
 Alpha virt. eigenvalues --    0.27977   0.28972   0.29899   0.31230   0.32560

 Mulliken charges:
               1
     1  C   -0.166318
     2  C   -0.220058
     3  C   -0.169782
     4  C    0.159200
     5  C   -0.163810
     6  C   -0.222934
     7  H    0.218162
     8  H    0.220998
     9  H    0.276040
    10  H    0.278262
    11  H    0.219016
    12  N    0.488712
    13  O   -0.458419
    14  O   -0.460634
    15  C   -0.173146
    16  C   -0.228073
    17  C   -0.162404
    18  C    0.159541
    19  C   -0.169727
    20  C   -0.219981
    21  H    0.226181
    22  H    0.218121
    23  H    0.274706
    24  H    0.278700
    25  H    0.225580
    26  N    0.488368
    27  O   -0.457469
    28  O   -0.458830
 Sum of Mulliken charges =  -0.00000

 Dipole moment (field-independent basis, Debye):
    X=              6.0974    Y=             -7.5391    Z=             -0.0139  Tot=              9.6962
 Quadrupole moment (field-independent basis, Debye-Ang):
   XX=           -116.6224   YY=           -110.2820   ZZ=            -97.0035
   XY=             -1.9257   XZ=              8.4249   YZ=              1.9017

 Normal termination of Gaussian 16 at Fri May  7 12:43:14 2021.
