 Gaussian 16, Revision A.03,
 Gaussian 16:  EM64L-G16RevA.03 25-Dec-2016

 -------------
 #p 6-31g* mp2
 -------------

 ------------------------------------------------------
 Input file generated by CHIRIPA (05-May-2021 14:51:14)
 ------------------------------------------------------
 Symbolic Z-matrix:
 Charge =  0 Multiplicity = 1

                         Standard orientation:
 ---------------------------------------------------------------------
 Center     Atomic      Atomic             Coordinates (Angstroms)
 Number     Number       Type             X           Y           Z
 ---------------------------------------------------------------------
      1          6           0       -2.431721   -0.842464    0.658413
      2          6           0       -1.396924   -0.863773    1.783902
      3          6           0       -1.149536   -2.269167    2.332956
      4          1           0       -3.375965   -1.264336    1.029052
      5          1           0       -2.093111   -1.500193   -0.154071
      6          1           0       -1.736720   -0.205122    2.593429
      7          1           0       -0.455091   -0.441625    1.410596
      8          1           0       -0.786863   -2.933483    1.541911
      9          1           0       -2.075774   -2.695637    2.731464
     10          1           0       -0.406479   -2.261218    3.136488
     11          6           0       -2.689863    0.555520    0.099189
     12          6           0       -3.724660    0.576830   -1.026301
     13          6           0       -3.972048    1.982224   -1.575355
     14          1           0       -3.028473    1.213250    0.911672
     15          1           0       -1.745620    0.977392   -0.271451
     16          1           0       -4.666493    0.154681   -0.652995
     17          1           0       -3.384864   -0.081821   -1.835827
     18          1           0       -3.045810    2.408693   -1.973863
     19          1           0       -4.334721    2.646540   -0.784309
     20          1           0       -4.715105    1.974275   -2.378886
     21          6           0        2.818216   -0.525615   -0.642408
     22          6           0        1.729983   -1.380113   -1.293229
     23          6           0        2.260448   -2.715571   -1.815677
     24          1           0        3.618331   -0.343459   -1.372873
     25          1           0        3.272109   -1.089573    0.184229
     26          1           0        1.277333   -0.814178   -2.117510
     27          1           0        0.932275   -1.560095   -0.561187
     28          1           0        2.694484   -3.303223   -1.000277
     29          1           0        3.041502   -2.553068   -2.565443
     30          1           0        1.465893   -3.310379   -2.276922
     31          6           0        2.303369    0.812558   -0.115194
     32          6           0        3.391601    1.667057    0.535627
     33          6           0        2.861136    3.002515    1.058076
     34          1           0        1.849476    1.376516   -0.941830
     35          1           0        1.503253    0.630403    0.615272
     36          1           0        4.189309    1.847039   -0.196414
     37          1           0        3.844251    1.101122    1.359909
     38          1           0        2.080082    2.840012    1.807841
     39          1           0        2.427101    3.590167    0.242675
     40          1           0        3.655691    3.597322    1.519320
 ---------------------------------------------------------------------

 SCF Done:  E(RHF) =  -470.733159998     A.U. after   11 cycles
 E2 =    -0.1584131826D+01 EUMP2 =    -0.47231729182459D+03

 The electronic state is 1-A.
 Alpha  occ. eigenvalues --  -11.21669 -11.21637 -11.21607 -11.21581 -11.21459
 Alpha  occ. eigenvalues --  -11.21399 -11.21390 -11.21325 -11.21125 -11.21116
 Alpha  occ. eigenvalues --  -11.21087 -11.21055  -1.08503  -1.08410  -1.03582
 Alpha  occ. eigenvalues --   -1.03532  -0.96025  -0.95982  -0.87039  -0.86999
 Alpha  occ. eigenvalues --   -0.79646  -0.79604  -0.78378  -0.78169  -0.65320
 Alpha  occ. eigenvalues --   -0.64886  -0.61069  -0.60842  -0.59391  -0.59352
 Alpha  occ. eigenvalues --   -0.57643  -0.57589  -0.55317  -0.55266  -0.52720
 Alpha  occ. eigenvalues --   -0.52679  -0.52453  -0.52404  -0.49989  -0.49915
 Alpha  occ. eigenvalues --   -0.47969  -0.47958  -0.46798  -0.46661  -0.46142
 Alpha  occ. eigenvalues --   -0.45779  -0.45717  -0.45188  -0.43832  -0.43780
 Alpha virt. eigenvalues --    0.19759   0.23185   0.23621   0.24293   0.25452
 Alpha virt. eigenvalues --    0.26626   0.26744   0.28009   0.28147   0.30068
 Alpha virt. eigenvalues --    0.30562   0.31612   0.31645   0.31799   0.32104

 Mulliken charges:
               1
     1  C   -0.298516
     2  C   -0.310917
     3  C   -0.476527
     4  H    0.149666
     5  H    0.150472
     6  H    0.152256
     7  H    0.161197
     8  H    0.155712
     9  H    0.155769
    10  H    0.159867
    11  C   -0.299440
    12  C   -0.299701
    13  C   -0.475662
    14  H    0.149244
    15  H    0.151399
    16  H    0.151797
    17  H    0.152032
    18  H    0.155150
    19  H    0.155170
    20  H    0.160123
    21  C   -0.297634
    22  C   -0.306287
    23  C   -0.475598
    24  H    0.150051
    25  H    0.149731
    26  H    0.151618
    27  H    0.157832
    28  H    0.155597
    29  H    0.155544
    30  H    0.160092
    31  C   -0.307885
    32  C   -0.298992
    33  C   -0.475921
    34  H    0.149219
    35  H    0.158149
    36  H    0.152116
    37  H    0.152053
    38  H    0.155641
    39  H    0.155199
    40  H    0.160383
 Sum of Mulliken charges =  -0.00000

 Dipole moment (field-independent basis, Debye):
    X=              0.0196    Y=              0.0045    Z=              0.0011  Tot=              0.0202
 Quadrupole moment (field-independent basis, Debye-Ang):
   XX=            -84.3014   YY=            -86.4854   ZZ=            -83.9390
   XY=              0.4944   XZ=             -0.7391   YZ=             -0.2345

 Normal termination of Gaussian 16 at Wed May  5 16:53:55 2021.
