 Gaussian 16, Revision A.03,
 Gaussian 16:  EM64L-G16RevA.03 25-Dec-2016

 -------------
 #p 6-31g* mp2
 -------------

 ------------------------------------------------------
 Input file generated by CHIRIPA (05-May-2021 14:55:22)
 ------------------------------------------------------
 Symbolic Z-matrix:
 Charge =  0 Multiplicity = 1

                         Standard orientation:
 ---------------------------------------------------------------------
 Center     Atomic      Atomic             Coordinates (Angstroms)
 Number     Number       Type             X           Y           Z
 ---------------------------------------------------------------------
      1          6           0        0.865370   -2.084971   -0.172452
      2          6           0        0.792467   -1.060767    0.777397
      3          6           0        1.855715   -0.168035    0.941958
      4          6           0        2.981743   -0.329403    0.136158
      5          6           0        3.084385   -1.339687   -0.818872
      6          6           0        2.009080   -2.220922   -0.966155
      7          1           0        0.034730   -2.774001   -0.293576
      8          1           0       -0.094507   -0.952788    1.395186
      9          1           0        1.825753    0.633830    1.669647
     10          1           0        3.981701   -1.422068   -1.420083
     11          1           0        2.068474   -3.015393   -1.704622
     12          7           0        4.113738    0.609606    0.301226
     13          8           0        5.094679    0.446117   -0.421037
     14          8           0        3.998621    1.491311    1.149744
     15          6           0       -3.255233    1.200714   -0.516052
     16          6           0       -1.788090    1.422552   -0.146912
     17          6           0       -1.156621    2.588281   -0.908565
     18          1           0       -3.331310    1.018594   -1.596789
     19          1           0       -3.820233    2.121151   -0.313650
     20          1           0       -1.226286    0.501524   -0.348652
     21          1           0       -1.715476    1.603975    0.933101
     22          1           0       -1.691620    3.520218   -0.699112
     23          1           0       -1.199651    2.411503   -1.988148
     24          1           0       -0.107771    2.729100   -0.629385
     25          6           0       -3.900417    0.038744    0.237133
     26          6           0       -5.367561   -0.183093   -0.132008
     27          6           0       -5.999029   -1.348823    0.629646
     28          1           0       -3.335418   -0.881693    0.034730
     29          1           0       -3.824341    0.220864    1.317868
     30          1           0       -5.440175   -0.364517   -1.212020
     31          1           0       -5.929365    0.737935    0.069733
     32          1           0       -5.956000   -1.172044    1.709228
     33          1           0       -5.464030   -2.280760    0.420192
     34          1           0       -7.047880   -1.489641    0.350465
 ---------------------------------------------------------------------

 SCF Done:  E(RHF) =  -669.534831931     A.U. after   15 cycles
 E2 =    -0.2092828924D+01 EUMP2 =    -0.67162766085556D+03

 The electronic state is 1-A.
 Alpha  occ. eigenvalues --  -20.60792 -20.60787 -15.85844 -11.31229 -11.27769
 Alpha  occ. eigenvalues --  -11.27763 -11.27517 -11.26815 -11.26765 -11.22183
 Alpha  occ. eigenvalues --  -11.22091 -11.22055 -11.21891 -11.21633 -11.21350
 Alpha  occ. eigenvalues --   -1.59866  -1.39419  -1.19395  -1.09012  -1.08786
 Alpha  occ. eigenvalues --   -1.04801  -1.04030  -0.96475  -0.95619  -0.87488
 Alpha  occ. eigenvalues --   -0.86196  -0.82453  -0.80126  -0.78868  -0.77479
 Alpha  occ. eigenvalues --   -0.72062  -0.71189  -0.70493  -0.65655  -0.65041
 Alpha  occ. eigenvalues --   -0.64788  -0.62151  -0.61431  -0.59847  -0.58105
 Alpha  occ. eigenvalues --   -0.55768  -0.55292  -0.53235  -0.53050  -0.52957
 Alpha  occ. eigenvalues --   -0.52820  -0.50412  -0.48828  -0.48816  -0.48414
 Alpha  occ. eigenvalues --   -0.47158  -0.46369  -0.46315  -0.44820  -0.44303
 Alpha  occ. eigenvalues --   -0.37350  -0.36319
 Alpha virt. eigenvalues --    0.05016   0.11160   0.16494   0.20448   0.22618
 Alpha virt. eigenvalues --    0.23809   0.25602   0.25735   0.27132   0.28200
 Alpha virt. eigenvalues --    0.29206   0.30594   0.31068   0.31468   0.31979

 Mulliken charges:
               1
     1  C   -0.173275
     2  C   -0.216938
     3  C   -0.172109
     4  C    0.158854
     5  C   -0.171361
     6  C   -0.217733
     7  H    0.225656
     8  H    0.228474
     9  H    0.275860
    10  H    0.275657
    11  H    0.223560
    12  N    0.488030
    13  O   -0.460170
    14  O   -0.460335
    15  C   -0.297399
    16  C   -0.307765
    17  C   -0.475751
    18  H    0.150868
    19  H    0.152010
    20  H    0.155917
    21  H    0.145970
    22  H    0.156785
    23  H    0.156203
    24  H    0.163933
    25  C   -0.297766
    26  C   -0.299784
    27  C   -0.475826
    28  H    0.141043
    29  H    0.148723
    30  H    0.153026
    31  H    0.154655
    32  H    0.155659
    33  H    0.152746
    34  H    0.162583
 Sum of Mulliken charges =  -0.00000

 Dipole moment (field-independent basis, Debye):
    X=             -4.0154    Y=             -3.2611    Z=             -0.6227  Tot=              5.2102
 Quadrupole moment (field-independent basis, Debye-Ang):
   XX=           -117.7965   YY=            -92.1194   ZZ=            -92.3782
   XY=            -10.7769   XZ=             -4.2259   YZ=              2.5601

 Normal termination of Gaussian 16 at Thu May  6 14:14:05 2021.
