 Gaussian 16, Revision A.03,
 Gaussian 16:  EM64L-G16RevA.03 25-Dec-2016

 -------------
 #p 6-31g* mp2
 -------------

 ------------------------------------------------------
 Input file generated by CHIRIPA (05-May-2021 14:57:21)
 ------------------------------------------------------
 Symbolic Z-matrix:
 Charge =  0 Multiplicity = 1

                         Standard orientation:
 ---------------------------------------------------------------------
 Center     Atomic      Atomic             Coordinates (Angstroms)
 Number     Number       Type             X           Y           Z
 ---------------------------------------------------------------------
      1          6           0        4.171182    0.585189   -1.908575
      2          6           0        2.909766    1.114822   -1.617303
      3          6           0        2.256230    0.779287   -0.427826
      4          6           0        2.896079   -0.092673    0.451701
      5          6           0        4.152513   -0.636848    0.189903
      6          6           0        4.787443   -0.287417   -1.005635
      7          1           0        4.671638    0.851239   -2.834943
      8          1           0        2.428778    1.792737   -2.316680
      9          1           0        1.279378    1.174762   -0.177271
     10          1           0        4.606789   -1.310132    0.906659
     11          1           0        5.767043   -0.700262   -1.229214
     12          7           0        2.214058   -0.455245    1.714155
     13          8           0        2.799039   -1.225548    2.472487
     14          8           0        1.107424    0.037741    1.921430
     15          6           0       -2.788501    2.437270    0.488907
     16          6           0       -1.796369    1.854179   -0.306204
     17          6           0       -1.907823    0.522795   -0.717959
     18          6           0       -3.029752   -0.199527   -0.314453
     19          6           0       -4.035022    0.353190    0.477522
     20          6           0       -3.902697    1.686239    0.877547
     21          1           0       -2.693814    3.472168    0.804211
     22          1           0       -0.929977    2.435040   -0.609534
     23          1           0       -1.154559    0.046475   -1.333695
     24          1           0       -4.887158   -0.251130    0.764017
     25          1           0       -4.674752    2.136464    1.495020
     26          7           0       -3.158790   -1.609885   -0.744150
     27          8           0       -4.156943   -2.224901   -0.375255
     28          8           0       -2.259336   -2.073602   -1.441706
 ---------------------------------------------------------------------

 SCF Done:  E(RHF) =  -868.336702955     A.U. after   16 cycles
 E2 =    -0.2600890640D+01 EUMP2 =    -0.87093759359404D+03

 The electronic state is 1-A.
 Alpha  occ. eigenvalues --  -20.60985 -20.60971 -20.60504 -20.60495 -15.86036
 Alpha  occ. eigenvalues --  -15.85562 -11.31517 -11.30942 -11.28180 -11.28032
 Alpha  occ. eigenvalues --  -11.27812 -11.27631 -11.27526 -11.27325 -11.27188
 Alpha  occ. eigenvalues --  -11.27066 -11.26704 -11.26524  -1.60050  -1.59573
 Alpha  occ. eigenvalues --   -1.39603  -1.39129  -1.19686  -1.19139  -1.09049
 Alpha  occ. eigenvalues --   -1.08530  -1.05130  -1.04588  -0.95876  -0.95362
 Alpha  occ. eigenvalues --   -0.86510  -0.85986  -0.82719  -0.82232  -0.77778
 Alpha  occ. eigenvalues --   -0.77252  -0.72255  -0.71790  -0.71370  -0.70884
 Alpha  occ. eigenvalues --   -0.70809  -0.70269  -0.65345  -0.65161  -0.64820
 Alpha  occ. eigenvalues --   -0.64645  -0.62587  -0.61865  -0.55590  -0.55082
 Alpha  occ. eigenvalues --   -0.53416  -0.53259  -0.52811  -0.52712  -0.49022
 Alpha  occ. eigenvalues --   -0.49004  -0.48547  -0.48535  -0.44987  -0.44533
 Alpha  occ. eigenvalues --   -0.37635  -0.37082  -0.36729  -0.36137
 Alpha virt. eigenvalues --    0.04765   0.05318   0.10884   0.11503   0.16274
 Alpha virt. eigenvalues --    0.16601   0.19406   0.22194   0.25233   0.27617
 Alpha virt. eigenvalues --    0.28360   0.29416   0.30570   0.31217   0.32406

 Mulliken charges:
               1
     1  C   -0.169860
     2  C   -0.219182
     3  C   -0.178438
     4  C    0.160375
     5  C   -0.168852
     6  C   -0.217772
     7  H    0.227098
     8  H    0.219862
     9  H    0.273207
    10  H    0.277679
    11  H    0.225569
    12  N    0.487709
    13  O   -0.457641
    14  O   -0.461491
    15  C   -0.167813
    16  C   -0.214503
    17  C   -0.162522
    18  C    0.159800
    19  C   -0.168244
    20  C   -0.217782
    21  H    0.225287
    22  H    0.210238
    23  H    0.270678
    24  H    0.276114
    25  H    0.223721
    26  N    0.488784
    27  O   -0.460012
    28  O   -0.462007
 Sum of Mulliken charges =  -0.00000

 Dipole moment (field-independent basis, Debye):
    X=              2.8855    Y=              6.0945    Z=             -2.7794  Tot=              7.2934
 Quadrupole moment (field-independent basis, Debye-Ang):
   XX=            -85.9038   YY=           -106.7126   ZZ=           -109.5366
   XY=            -14.3543   XZ=            -18.4497   YZ=             -1.8067

 Normal termination of Gaussian 16 at Thu May  6 00:06:49 2021.
