 Gaussian 16, Revision A.03,
 Gaussian 16:  EM64L-G16RevA.03 25-Dec-2016

 -------------
 #p 6-31g* mp2
 -------------

 ------------------------------------------------------
 Input file generated by CHIRIPA (05-May-2021 14:51:09)
 ------------------------------------------------------
 Symbolic Z-matrix:
 Charge =  0 Multiplicity = 1

                         Standard orientation:
 ---------------------------------------------------------------------
 Center     Atomic      Atomic             Coordinates (Angstroms)
 Number     Number       Type             X           Y           Z
 ---------------------------------------------------------------------
      1          6           0       -3.065746    0.830982   -0.115274
      2          6           0       -3.366013   -0.586890   -0.602575
      3          6           0       -4.863675   -0.855502   -0.753085
      4          1           0       -3.567728    0.994766    0.848123
      5          1           0       -3.499678    1.553214   -0.820597
      6          1           0       -2.930453   -1.306233    0.102725
      7          1           0       -2.863102   -0.747382   -1.564832
      8          1           0       -5.309306   -0.160698   -1.472293
      9          1           0       -5.377040   -0.722724    0.204739
     10          1           0       -5.055612   -1.874803   -1.102436
     11          6           0       -1.572736    1.114713    0.040114
     12          6           0       -1.272469    2.532585    0.527415
     13          6           0        0.225192    2.801197    0.677924
     14          1           0       -1.138805    0.392481    0.745436
     15          1           0       -1.070755    0.950929   -0.923284
     16          1           0       -1.775380    2.693077    1.489672
     17          1           0       -1.708029    3.251928   -0.177886
     18          1           0        0.738557    2.668419   -0.279900
     19          1           0        0.670823    2.106393    1.397133
     20          1           0        0.417129    3.820498    1.027276
     21          6           0        1.785290   -1.180780    0.542646
     22          6           0        0.902647   -2.329584    0.053593
     23          6           0       -0.160730   -2.734219    1.075012
     24          1           0        2.271219   -1.474862    1.483037
     25          1           0        1.151255   -0.314239    0.776102
     26          1           0        1.538296   -3.193247   -0.180184
     27          1           0        0.418912   -2.032806   -0.885843
     28          1           0       -0.818765   -1.889042    1.301431
     29          1           0        0.306980   -3.056077    2.011097
     30          1           0       -0.780376   -3.556983    0.704936
     31          6           0        2.853193   -0.764916   -0.467486
     32          6           0        3.735836    0.383890    0.021568
     33          6           0        4.799212    0.788524   -0.999851
     34          1           0        3.487227   -1.631457   -0.700941
     35          1           0        2.367264   -0.470833   -1.407876
     36          1           0        4.219571    0.087110    0.961003
     37          1           0        3.100186    1.247553    0.255346
     38          1           0        4.331503    1.110382   -1.935937
     39          1           0        5.457248   -0.056654   -1.226270
     40          1           0        5.418859    1.611289   -0.629775
 ---------------------------------------------------------------------

 SCF Done:  E(RHF) =  -470.731455533     A.U. after   11 cycles
 E2 =    -0.1586289666D+01 EUMP2 =    -0.47231774519891D+03

 The electronic state is 1-A.
 Alpha  occ. eigenvalues --  -11.21700 -11.21602 -11.21531 -11.21482 -11.21478
 Alpha  occ. eigenvalues --  -11.21412 -11.21304 -11.21221 -11.21181 -11.21083
 Alpha  occ. eigenvalues --  -11.21034 -11.21005  -1.08542  -1.08320  -1.03602
 Alpha  occ. eigenvalues --   -1.03462  -0.96060  -0.95917  -0.87088  -0.86928
 Alpha  occ. eigenvalues --   -0.79691  -0.79532  -0.78476  -0.78034  -0.65301
 Alpha  occ. eigenvalues --   -0.64863  -0.61009  -0.60883  -0.59448  -0.59285
 Alpha  occ. eigenvalues --   -0.57695  -0.57493  -0.55402  -0.55165  -0.52741
 Alpha  occ. eigenvalues --   -0.52622  -0.52498  -0.52349  -0.50005  -0.49899
 Alpha  occ. eigenvalues --   -0.48070  -0.47897  -0.46889  -0.46669  -0.46186
 Alpha  occ. eigenvalues --   -0.45779  -0.45635  -0.44744  -0.43849  -0.43702
 Alpha virt. eigenvalues --    0.20642   0.22064   0.23831   0.23957   0.25301
 Alpha virt. eigenvalues --    0.25941   0.26648   0.28365   0.28754   0.30296
 Alpha virt. eigenvalues --    0.30651   0.31241   0.31459   0.31798   0.32188

 Mulliken charges:
               1
     1  C   -0.297570
     2  C   -0.305422
     3  C   -0.475461
     4  H    0.149502
     5  H    0.149699
     6  H    0.158816
     7  H    0.151450
     8  H    0.155054
     9  H    0.155185
    10  H    0.160431
    11  C   -0.307320
    12  C   -0.299637
    13  C   -0.480731
    14  H    0.157406
    15  H    0.149497
    16  H    0.152259
    17  H    0.152390
    18  H    0.156095
    19  H    0.159023
    20  H    0.161308
    21  C   -0.308480
    22  C   -0.299532
    23  C   -0.481664
    24  H    0.148329
    25  H    0.160744
    26  H    0.151838
    27  H    0.152992
    28  H    0.159775
    29  H    0.154801
    30  H    0.160199
    31  C   -0.297047
    32  C   -0.305570
    33  C   -0.475373
    34  H    0.149047
    35  H    0.148521
    36  H    0.151173
    37  H    0.158907
    38  H    0.154454
    39  H    0.154874
    40  H    0.160039
 Sum of Mulliken charges =  -0.00000

 Dipole moment (field-independent basis, Debye):
    X=             -0.0546    Y=              0.0467    Z=              0.0220  Tot=              0.0752
 Quadrupole moment (field-independent basis, Debye-Ang):
   XX=            -86.3338   YY=            -84.5289   ZZ=            -84.1164
   XY=             -1.0336   XZ=              0.5767   YZ=             -0.3237

 Normal termination of Gaussian 16 at Wed May  5 22:58:56 2021.
