 Gaussian 16, Revision A.03,
 Gaussian 16:  EM64L-G16RevA.03 25-Dec-2016

 -------------
 #p 6-31g* mp2
 -------------

 ------------------------------------------------------
 Input file generated by CHIRIPA (05-May-2021 14:51:11)
 ------------------------------------------------------
 Symbolic Z-matrix:
 Charge =  0 Multiplicity = 1

                         Standard orientation:
 ---------------------------------------------------------------------
 Center     Atomic      Atomic             Coordinates (Angstroms)
 Number     Number       Type             X           Y           Z
 ---------------------------------------------------------------------
      1          6           0        3.820613    0.702461   -0.539133
      2          6           0        2.576351    1.269143    0.145461
      3          6           0        1.964977    2.444286   -0.618119
      4          1           0        4.567942    1.500560   -0.646286
      5          1           0        3.557025    0.382399   -1.556717
      6          1           0        2.841894    1.586767    1.161934
      7          1           0        1.831971    0.469555    0.251170
      8          1           0        1.672404    2.137435   -1.627498
      9          1           0        2.688065    3.260995   -0.711558
     10          1           0        1.076722    2.833941   -0.111136
     11          6           0        4.443207   -0.472905    0.212280
     12          6           0        5.687468   -1.039587   -0.472314
     13          6           0        6.298843   -2.214729    0.291266
     14          1           0        4.706795   -0.152843    1.229864
     15          1           0        3.695878   -1.271004    0.319433
     16          1           0        6.431848   -0.239999   -0.578023
     17          1           0        5.421925   -1.357211   -1.488788
     18          1           0        5.575754   -3.031438    0.384705
     19          1           0        6.591416   -1.907879    1.300645
     20          1           0        7.187098   -2.604384   -0.215717
     21          6           0       -3.648961    0.467400    0.269544
     22          6           0       -2.249337    0.024036    0.696701
     23          6           0       -1.294605    1.199987    0.905077
     24          1           0       -3.574679    1.050184   -0.658783
     25          1           0       -4.060086    1.144132    1.031388
     26          1           0       -1.841527   -0.652753   -0.065050
     27          1           0       -2.326979   -0.557923    1.624016
     28          1           0       -1.675739    1.873011    1.679915
     29          1           0       -1.187529    1.777641   -0.018747
     30          1           0       -0.299872    0.860334    1.210040
     31          6           0       -4.614858   -0.696956    0.057309
     32          6           0       -6.014483   -0.253592   -0.369848
     33          6           0       -6.969214   -1.429543   -0.578224
     34          1           0       -4.203733   -1.373689   -0.704534
     35          1           0       -4.689139   -1.279739    0.985636
     36          1           0       -5.936841    0.328366   -1.297162
     37          1           0       -6.422293    0.423197    0.391902
     38          1           0       -7.076290   -2.007198    0.345601
     39          1           0       -6.588080   -2.102567   -1.353062
     40          1           0       -7.963946   -1.089890   -0.883188
 ---------------------------------------------------------------------

 SCF Done:  E(RHF) =  -470.732293853     A.U. after   11 cycles
 E2 =    -0.1583212033D+01 EUMP2 =    -0.47231550588560D+03

 The electronic state is 1-A.
 Alpha  occ. eigenvalues --  -11.21601 -11.21593 -11.21590 -11.21551 -11.21402
 Alpha  occ. eigenvalues --  -11.21383 -11.21342 -11.21322 -11.21072 -11.21063
 Alpha  occ. eigenvalues --  -11.20994 -11.20950  -1.08435  -1.08397  -1.03572
 Alpha  occ. eigenvalues --   -1.03453  -0.96057  -0.95863  -0.87055  -0.86902
 Alpha  occ. eigenvalues --   -0.79603  -0.79566  -0.78245  -0.78221  -0.65085
 Alpha  occ. eigenvalues --   -0.65019  -0.61038  -0.60837  -0.59594  -0.59107
 Alpha  occ. eigenvalues --   -0.57673  -0.57469  -0.55353  -0.55127  -0.52855
 Alpha  occ. eigenvalues --   -0.52544  -0.52431  -0.52210  -0.49943  -0.49825
 Alpha  occ. eigenvalues --   -0.48062  -0.47740  -0.46612  -0.46582  -0.45799
 Alpha  occ. eigenvalues --   -0.45740  -0.45705  -0.45683  -0.43734  -0.43730
 Alpha virt. eigenvalues --    0.22037   0.23071   0.23507   0.24939   0.26528
 Alpha virt. eigenvalues --    0.26655   0.26929   0.27071   0.27837   0.29201
 Alpha virt. eigenvalues --    0.30237   0.30871   0.31377   0.31677   0.32374

 Mulliken charges:
               1
     1  C   -0.297694
     2  C   -0.302639
     3  C   -0.478931
     4  H    0.149615
     5  H    0.149312
     6  H    0.151459
     7  H    0.154062
     8  H    0.153682
     9  H    0.154277
    10  H    0.167046
    11  C   -0.298340
    12  C   -0.299596
    13  C   -0.475695
    14  H    0.149450
    15  H    0.149405
    16  H    0.151969
    17  H    0.151865
    18  H    0.155130
    19  H    0.155164
    20  H    0.160214
    21  C   -0.298502
    22  C   -0.299974
    23  C   -0.482925
    24  H    0.149727
    25  H    0.149569
    26  H    0.151357
    27  H    0.151703
    28  H    0.154450
    29  H    0.157292
    30  H    0.167647
    31  C   -0.298237
    32  C   -0.299635
    33  C   -0.475695
    34  H    0.149386
    35  H    0.149630
    36  H    0.151943
    37  H    0.151941
    38  H    0.155171
    39  H    0.155138
    40  H    0.160259
 Sum of Mulliken charges =  -0.00000

 Dipole moment (field-independent basis, Debye):
    X=             -0.0101    Y=              0.0132    Z=              0.0104  Tot=              0.0196
 Quadrupole moment (field-independent basis, Debye-Ang):
   XX=            -85.5155   YY=            -85.6617   ZZ=            -83.7770
   XY=              0.2261   XZ=             -0.3193   YZ=              0.6650

 Normal termination of Gaussian 16 at Wed May  5 21:28:54 2021.
