 Gaussian 16, Revision A.03,
 Gaussian 16:  EM64L-G16RevA.03 25-Dec-2016

 -------------
 #p 6-31g* mp2
 -------------

 ------------------------------------------------------
 Input file generated by CHIRIPA (05-May-2021 14:53:13)
 ------------------------------------------------------
 Symbolic Z-matrix:
 Charge =  0 Multiplicity = 1

                         Standard orientation:
 ---------------------------------------------------------------------
 Center     Atomic      Atomic             Coordinates (Angstroms)
 Number     Number       Type             X           Y           Z
 ---------------------------------------------------------------------
      1          6           0        3.175250   -0.568019    0.235108
      2          6           0        2.860855   -0.990470    1.670614
      3          6           0        1.498998   -1.673193    1.801105
      4          1           0        2.387886    0.110039   -0.121600
      5          1           0        3.143903   -1.453053   -0.415375
      6          1           0        2.894146   -0.105121    2.318428
      7          1           0        3.649159   -1.667450    2.024012
      8          1           0        1.457783   -2.572744    1.178441
      9          1           0        0.698481   -1.001537    1.474530
     10          1           0        1.294605   -1.966884    2.835431
     11          6           0        4.533362    0.115924    0.088539
     12          6           0        4.847756    0.538375   -1.346967
     13          6           0        6.209613    1.221098   -1.477458
     14          1           0        4.564708    1.000957    0.739022
     15          1           0        5.320725   -0.562135    0.445247
     16          1           0        4.059452    1.215355   -1.700365
     17          1           0        4.814465   -0.346975   -1.994781
     18          1           0        7.010131    0.549442   -1.150883
     19          1           0        6.250828    2.120649   -0.854794
     20          1           0        6.414006    1.514788   -2.511784
     21          6           0       -2.770020    2.398056    1.045283
     22          6           0       -2.079828    1.277798    1.519810
     23          6           0       -2.205947    0.041928    0.878508
     24          6           0       -3.034490   -0.038162   -0.239701
     25          6           0       -3.735148    1.059796   -0.736548
     26          6           0       -3.594025    2.285678   -0.079399
     27          1           0       -2.666221    3.354230    1.549616
     28          1           0       -1.439195    1.362124    2.393036
     29          1           0       -1.683096   -0.841383    1.224638
     30          1           0       -4.366387    0.944671   -1.609304
     31          1           0       -4.131240    3.154004   -0.450149
     32          7           0       -3.175949   -1.341236   -0.927007
     33          8           0       -3.912123   -1.385569   -1.910225
     34          8           0       -2.547971   -2.293577   -0.469485
 ---------------------------------------------------------------------

 SCF Done:  E(RHF) =  -669.535440506     A.U. after   15 cycles
 E2 =    -0.2091231586D+01 EUMP2 =    -0.67162667209274D+03

 The electronic state is 1-A.
 Alpha  occ. eigenvalues --  -20.60742 -20.60736 -15.85796 -11.31176 -11.27759
 Alpha  occ. eigenvalues --  -11.27716 -11.27507 -11.26781 -11.26769 -11.21852
 Alpha  occ. eigenvalues --  -11.21679 -11.21532 -11.21473 -11.21386 -11.21150
 Alpha  occ. eigenvalues --   -1.59817  -1.39369  -1.19358  -1.08750  -1.08579
 Alpha  occ. eigenvalues --   -1.04766  -1.03703  -0.96158  -0.95580  -0.87179
 Alpha  occ. eigenvalues --   -0.86158  -0.82412  -0.79768  -0.78378  -0.77453
 Alpha  occ. eigenvalues --   -0.72014  -0.71141  -0.70473  -0.65221  -0.65008
 Alpha  occ. eigenvalues --   -0.64768  -0.62157  -0.61080  -0.59520  -0.57754
 Alpha  occ. eigenvalues --   -0.55496  -0.55225  -0.53101  -0.52939  -0.52829
 Alpha  occ. eigenvalues --   -0.52501  -0.50089  -0.48776  -0.48765  -0.48071
 Alpha  occ. eigenvalues --   -0.46794  -0.45922  -0.45842  -0.44771  -0.43949
 Alpha  occ. eigenvalues --   -0.37342  -0.36360
 Alpha virt. eigenvalues --    0.05043   0.11258   0.16508   0.20793   0.22780
 Alpha virt. eigenvalues --    0.24078   0.25770   0.26698   0.27481   0.27895
 Alpha virt. eigenvalues --    0.29126   0.30597   0.31441   0.31658   0.31945

 Mulliken charges:
               1
     1  C   -0.298783
     2  C   -0.299672
     3  C   -0.479611
     4  H    0.149096
     5  H    0.153714
     6  H    0.148110
     7  H    0.154241
     8  H    0.166273
     9  H    0.146507
    10  H    0.159158
    11  C   -0.298330
    12  C   -0.299824
    13  C   -0.475755
    14  H    0.147647
    15  H    0.150341
    16  H    0.151607
    17  H    0.153893
    18  H    0.155610
    19  H    0.154152
    20  H    0.160845
    21  C   -0.170793
    22  C   -0.220517
    23  C   -0.175729
    24  C    0.158694
    25  C   -0.170802
    26  C   -0.218579
    27  H    0.225522
    28  H    0.223964
    29  H    0.282615
    30  H    0.275630
    31  H    0.223455
    32  N    0.487726
    33  O   -0.460688
    34  O   -0.459718
 Sum of Mulliken charges =  -0.00000

 Dipole moment (field-independent basis, Debye):
    X=              0.5568    Y=              4.5141    Z=              2.3662  Tot=              5.1270
 Quadrupole moment (field-independent basis, Debye-Ang):
   XX=            -96.9046   YY=            -93.9595   ZZ=            -94.3690
   XY=            -16.7816   XZ=             -5.0661   YZ=             -2.4635

 Normal termination of Gaussian 16 at Wed May  5 17:03:48 2021.
