 Gaussian 16, Revision A.03,
 Gaussian 16:  EM64L-G16RevA.03 25-Dec-2016

 -------------
 #p 6-31g* mp2
 -------------

 ------------------------------------------------------
 Input file generated by CHIRIPA (05-May-2021 14:51:11)
 ------------------------------------------------------
 Symbolic Z-matrix:
 Charge =  0 Multiplicity = 1

                         Standard orientation:
 ---------------------------------------------------------------------
 Center     Atomic      Atomic             Coordinates (Angstroms)
 Number     Number       Type             X           Y           Z
 ---------------------------------------------------------------------
      1          6           0        2.764387   -0.513461   -0.604738
      2          6           0        3.865573    0.529193   -0.409170
      3          6           0        4.433402    1.044522   -1.731970
      4          1           0        3.164388   -1.355233   -1.186428
      5          1           0        1.955938   -0.074451   -1.205634
      6          1           0        4.671077    0.088788    0.192347
      7          1           0        3.462957    1.368493    0.172287
      8          1           0        3.645936    1.508818   -2.334405
      9          1           0        4.860920    0.221843   -2.314231
     10          1           0        5.219074    1.788803   -1.568799
     11          6           0        2.186774   -1.038176    0.708566
     12          6           0        1.085587   -2.080830    0.512998
     13          6           0        0.517759   -2.596159    1.835798
     14          1           0        2.995222   -1.477186    1.309462
     15          1           0        1.786772   -0.196404    1.290256
     16          1           0        1.488203   -2.920130   -0.068459
     17          1           0        0.280083   -1.640425   -0.088519
     18          1           0        0.090240   -1.773480    2.418059
     19          1           0        1.305225   -3.060455    2.438233
     20          1           0       -0.267913   -3.340440    1.672627
     21          6           0       -2.232998    1.498356   -0.001657
     22          6           0       -1.264114    1.733446    1.157645
     23          6           0       -0.787685    3.183676    1.245075
     24          1           0       -1.743773    1.782489   -0.943396
     25          1           0       -3.099837    2.163745    0.113417
     26          1           0       -0.400016    1.066828    1.041162
     27          1           0       -1.755636    1.448540    2.096714
     28          1           0       -1.636820    3.860325    1.385484
     29          1           0       -0.273497    3.476445    0.323936
     30          1           0       -0.096023    3.329340    2.080686
     31          6           0       -2.718162    0.053281   -0.102171
     32          6           0       -3.687047   -0.181810   -1.261472
     33          6           0       -4.163475   -1.632039   -1.348903
     34          1           0       -1.851323   -0.612108   -0.217245
     35          1           0       -3.207388   -0.230853    0.839568
     36          1           0       -3.195525    0.103097   -2.200541
     37          1           0       -4.551145    0.484809   -1.144990
     38          1           0       -4.677663   -1.924808   -0.427764
     39          1           0       -3.314340   -2.308689   -1.489312
     40          1           0       -4.855138   -1.777704   -2.184513
 ---------------------------------------------------------------------

 SCF Done:  E(RHF) =  -470.733035753     A.U. after   11 cycles
 E2 =    -0.1584398771D+01 EUMP2 =    -0.47231743452455D+03

 The electronic state is 1-A.
 Alpha  occ. eigenvalues --  -11.21669 -11.21628 -11.21627 -11.21621 -11.21449
 Alpha  occ. eigenvalues --  -11.21442 -11.21380 -11.21379 -11.21140 -11.21096
 Alpha  occ. eigenvalues --  -11.21086 -11.21056  -1.08513  -1.08434  -1.03579
 Alpha  occ. eigenvalues --   -1.03551  -0.96032  -0.95990  -0.87040  -0.87014
 Alpha  occ. eigenvalues --   -0.79679  -0.79588  -0.78318  -0.78264  -0.65408
 Alpha  occ. eigenvalues --   -0.64843  -0.60999  -0.60934  -0.59416  -0.59343
 Alpha  occ. eigenvalues --   -0.57649  -0.57600  -0.55390  -0.55214  -0.52716
 Alpha  occ. eigenvalues --   -0.52688  -0.52453  -0.52418  -0.49979  -0.49953
 Alpha  occ. eigenvalues --   -0.47991  -0.47963  -0.46861  -0.46575  -0.46087
 Alpha  occ. eigenvalues --   -0.45804  -0.45663  -0.45356  -0.43829  -0.43805
 Alpha virt. eigenvalues --    0.19334   0.22958   0.23763   0.24427   0.25809
 Alpha virt. eigenvalues --    0.26547   0.26894   0.28056   0.28261   0.29566
 Alpha virt. eigenvalues --    0.30739   0.31528   0.31811   0.31888   0.32223

 Mulliken charges:
               1
     1  C   -0.298435
     2  C   -0.299814
     3  C   -0.475680
     4  H    0.149978
     5  H    0.148613
     6  H    0.152135
     7  H    0.152267
     8  H    0.154968
     9  H    0.155225
    10  H    0.160469
    11  C   -0.302348
    12  C   -0.306927
    13  C   -0.476216
    14  H    0.150287
    15  H    0.153074
    16  H    0.152362
    17  H    0.157054
    18  H    0.156800
    19  H    0.155079
    20  H    0.160422
    21  C   -0.297415
    22  C   -0.307751
    23  C   -0.475597
    24  H    0.149064
    25  H    0.149996
    26  H    0.158635
    27  H    0.152262
    28  H    0.155783
    29  H    0.155015
    30  H    0.160229
    31  C   -0.307658
    32  C   -0.299063
    33  C   -0.475794
    34  H    0.158217
    35  H    0.150075
    36  H    0.151735
    37  H    0.152065
    38  H    0.155334
    39  H    0.155191
    40  H    0.160363
 Sum of Mulliken charges =  -0.00000

 Dipole moment (field-independent basis, Debye):
    X=             -0.0052    Y=             -0.0028    Z=              0.0142  Tot=              0.0153
 Quadrupole moment (field-independent basis, Debye-Ang):
   XX=            -84.0458   YY=            -85.4068   ZZ=            -85.1938
   XY=             -1.3765   XZ=             -0.1272   YZ=              0.3421

 Normal termination of Gaussian 16 at Wed May  5 16:43:33 2021.
