 Gaussian 16, Revision A.03,
 Gaussian 16:  EM64L-G16RevA.03 25-Dec-2016

 -------------
 #p 6-31g* mp2
 -------------

 ------------------------------------------------------
 Input file generated by CHIRIPA (05-May-2021 14:55:19)
 ------------------------------------------------------
 Symbolic Z-matrix:
 Charge =  0 Multiplicity = 1

                         Standard orientation:
 ---------------------------------------------------------------------
 Center     Atomic      Atomic             Coordinates (Angstroms)
 Number     Number       Type             X           Y           Z
 ---------------------------------------------------------------------
      1          6           0       -3.182659    1.447701   -1.190606
      2          6           0       -2.605614    0.367096   -1.865760
      3          6           0       -1.951502   -0.645259   -1.157365
      4          6           0       -1.892923   -0.544700    0.231788
      5          6           0       -2.458003    0.519296    0.933134
      6          6           0       -3.107145    1.520225    0.204227
      7          1           0       -3.688859    2.229684   -1.748871
      8          1           0       -2.662719    0.308155   -2.948954
      9          1           0       -1.496088   -1.492978   -1.654746
     10          1           0       -2.384845    0.550469    2.013455
     11          1           0       -3.554375    2.358268    0.731212
     12          7           0       -1.203074   -1.610387    0.992592
     13          8           0       -1.165171   -1.498508    2.215982
     14          8           0       -0.713337   -2.537371    0.351114
     15          6           0        2.852499    1.157428    0.046831
     16          6           0        1.779120    2.232848    0.218040
     17          6           0        2.362912    3.597766    0.584075
     18          1           0        3.429868    1.073185    0.977687
     19          1           0        3.559522    1.475611   -0.731806
     20          1           0        1.073547    1.912100    0.995153
     21          1           0        1.204116    2.314407   -0.713267
     22          1           0        3.051661    3.943285   -0.193642
     23          1           0        2.920350    3.538691    1.524486
     24          1           0        1.578195    4.351598    0.701618
     25          6           0        2.284443   -0.212628   -0.319211
     26          6           0        3.357822   -1.288049   -0.490422
     27          6           0        2.774030   -2.652966   -0.856455
     28          1           0        1.577420   -0.530811    0.459424
     29          1           0        1.707074   -0.128385   -1.250068
     30          1           0        3.932826   -1.369608    0.440887
     31          1           0        4.063395   -0.967300   -1.267535
     32          1           0        2.216592   -2.593893   -1.796867
     33          1           0        2.085281   -2.998485   -0.078740
     34          1           0        3.558747   -3.406799   -0.973999
 ---------------------------------------------------------------------

 SCF Done:  E(RHF) =  -669.536128885     A.U. after   15 cycles
 E2 =    -0.2093560441D+01 EUMP2 =    -0.67162968932594D+03

 The electronic state is 1-A.
 Alpha  occ. eigenvalues --  -20.60950 -20.60931 -15.85952 -11.31256 -11.27824
 Alpha  occ. eigenvalues --  -11.27812 -11.27555 -11.26826 -11.26816 -11.21451
 Alpha  occ. eigenvalues --  -11.21053 -11.21017 -11.20919 -11.20859 -11.19949
 Alpha  occ. eigenvalues --   -1.60004  -1.39558  -1.19421  -1.08834  -1.08007
 Alpha  occ. eigenvalues --   -1.04817  -1.03042  -0.95686  -0.95473  -0.86494
 Alpha  occ. eigenvalues --   -0.86217  -0.82520  -0.79143  -0.77841  -0.77551
 Alpha  occ. eigenvalues --   -0.72191  -0.71319  -0.70535  -0.65082  -0.64826
 Alpha  occ. eigenvalues --   -0.64629  -0.62167  -0.60435  -0.58910  -0.57084
 Alpha  occ. eigenvalues --   -0.55327  -0.54748  -0.53146  -0.52912  -0.52182
 Alpha  occ. eigenvalues --   -0.51891  -0.49423  -0.48955  -0.48943  -0.47441
 Alpha  occ. eigenvalues --   -0.46196  -0.45505  -0.45279  -0.44671  -0.43320
 Alpha  occ. eigenvalues --   -0.37384  -0.36402
 Alpha virt. eigenvalues --    0.04918   0.11191   0.16406   0.21261   0.23180
 Alpha virt. eigenvalues --    0.24702   0.26694   0.27141   0.27519   0.28086
 Alpha virt. eigenvalues --    0.28928   0.31007   0.31780   0.32025   0.32365

 Mulliken charges:
               1
     1  C   -0.170354
     2  C   -0.219032
     3  C   -0.169836
     4  C    0.158462
     5  C   -0.170804
     6  C   -0.218053
     7  H    0.225862
     8  H    0.223619
     9  H    0.276154
    10  H    0.275535
    11  H    0.223709
    12  N    0.488780
    13  O   -0.459951
    14  O   -0.458370
    15  C   -0.297757
    16  C   -0.299457
    17  C   -0.475160
    18  H    0.151358
    19  H    0.147559
    20  H    0.151131
    21  H    0.148953
    22  H    0.154624
    23  H    0.156556
    24  H    0.156343
    25  C   -0.299621
    26  C   -0.299220
    27  C   -0.481239
    28  H    0.155008
    29  H    0.143083
    30  H    0.152208
    31  H    0.146753
    32  H    0.147041
    33  H    0.181593
    34  H    0.154524
 Sum of Mulliken charges =  -0.00000

 Dipole moment (field-independent basis, Debye):
    X=             -2.5869    Y=              3.6137    Z=             -2.5704  Tot=              5.1340
 Quadrupole moment (field-independent basis, Debye-Ang):
   XX=            -86.5050   YY=            -99.3633   ZZ=            -91.7393
   XY=             -6.9073   XZ=              3.8515   YZ=              3.9390

 Normal termination of Gaussian 16 at Thu May  6 12:24:12 2021.
