 Gaussian 16, Revision A.03,
 Gaussian 16:  EM64L-G16RevA.03 25-Dec-2016

 -------------
 #p 6-31g* mp2
 -------------

 ------------------------------------------------------
 Input file generated by CHIRIPA (05-May-2021 14:55:22)
 ------------------------------------------------------
 Symbolic Z-matrix:
 Charge =  0 Multiplicity = 1

                         Standard orientation:
 ---------------------------------------------------------------------
 Center     Atomic      Atomic             Coordinates (Angstroms)
 Number     Number       Type             X           Y           Z
 ---------------------------------------------------------------------
      1          6           0        5.002498   -0.587835   -0.752034
      2          6           0        4.291284    0.503658   -1.261285
      3          6           0        3.018493    0.812398   -0.772171
      4          6           0        2.484777    0.004771    0.230912
      5          6           0        3.168520   -1.089413    0.758686
      6          6           0        4.439838   -1.379492    0.254551
      7          1           0        5.990661   -0.820423   -1.137824
      8          1           0        4.725767    1.120215   -2.043031
      9          1           0        2.445961    1.651481   -1.148421
     10          1           0        2.709213   -1.685629    1.537777
     11          1           0        4.989878   -2.227780    0.651928
     12          7           0        1.138109    0.321742    0.756666
     13          8           0        0.690017   -0.405311    1.640547
     14          8           0        0.556183    1.291235    0.274917
     15          6           0       -2.934718    0.593479   -0.047320
     16          6           0       -3.473160    2.021740   -0.137524
     17          6           0       -2.401242    3.076220    0.139710
     18          1           0       -2.508796    0.431426    0.952316
     19          1           0       -2.108637    0.474656   -0.762072
     20          1           0       -4.298887    2.137427    0.576202
     21          1           0       -3.898021    2.180351   -1.137001
     22          1           0       -1.580444    2.989545   -0.579580
     23          1           0       -1.983589    2.946378    1.143356
     24          1           0       -2.807818    4.089972    0.069976
     25          6           0       -3.994495   -0.471958   -0.321989
     26          6           0       -3.456053   -1.900218   -0.231786
     27          6           0       -4.527969   -2.954699   -0.509020
     28          1           0       -4.820575   -0.353136    0.392761
     29          1           0       -4.420415   -0.309904   -1.321627
     30          1           0       -3.031192   -2.058830    0.767689
     31          1           0       -2.630325   -2.015906   -0.945513
     32          1           0       -4.945624   -2.824856   -1.512667
     33          1           0       -5.348768   -2.868025    0.210269
     34          1           0       -4.121394   -3.968451   -0.439286
 ---------------------------------------------------------------------

 SCF Done:  E(RHF) =  -669.535751283     A.U. after   15 cycles
 E2 =    -0.2092515225D+01 EUMP2 =    -0.67162826650768D+03

 The electronic state is 1-A.
 Alpha  occ. eigenvalues --  -20.61010 -20.61002 -15.86019 -11.31336 -11.27898
 Alpha  occ. eigenvalues --  -11.27892 -11.27630 -11.26899 -11.26890 -11.20502
 Alpha  occ. eigenvalues --  -11.20239 -11.20083 -11.20056 -11.19542 -11.19226
 Alpha  occ. eigenvalues --   -1.60055  -1.39615  -1.19501  -1.08908  -1.06996
 Alpha  occ. eigenvalues --   -1.04896  -1.02158  -0.95753  -0.94591  -0.86297
 Alpha  occ. eigenvalues --   -0.85604  -0.82593  -0.78270  -0.77641  -0.76716
 Alpha  occ. eigenvalues --   -0.72239  -0.71360  -0.70610  -0.65159  -0.64897
 Alpha  occ. eigenvalues --   -0.63648  -0.62243  -0.59577  -0.58010  -0.56177
 Alpha  occ. eigenvalues --   -0.55399  -0.53882  -0.53228  -0.52987  -0.51365
 Alpha  occ. eigenvalues --   -0.50973  -0.49085  -0.49017  -0.48499  -0.46509
 Alpha  occ. eigenvalues --   -0.45338  -0.45093  -0.44140  -0.44085  -0.42390
 Alpha  occ. eigenvalues --   -0.37477  -0.36496
 Alpha virt. eigenvalues --    0.04867   0.11159   0.16359   0.21274   0.24170
 Alpha virt. eigenvalues --    0.25698   0.27205   0.27915   0.28191   0.28968
 Alpha virt. eigenvalues --    0.29349   0.30893   0.32266   0.32796   0.32927

 Mulliken charges:
               1
     1  C   -0.170543
     2  C   -0.218519
     3  C   -0.170791
     4  C    0.157890
     5  C   -0.170454
     6  C   -0.218574
     7  H    0.226153
     8  H    0.223970
     9  H    0.275468
    10  H    0.275944
    11  H    0.223974
    12  N    0.492954
    13  O   -0.459395
    14  O   -0.461431
    15  C   -0.296236
    16  C   -0.300714
    17  C   -0.469095
    18  H    0.164447
    19  H    0.151449
    20  H    0.145371
    21  H    0.143299
    22  H    0.161463
    23  H    0.162204
    24  H    0.146406
    25  C   -0.298255
    26  C   -0.298108
    27  C   -0.474683
    28  H    0.145377
    29  H    0.143396
    30  H    0.157092
    31  H    0.147860
    32  H    0.152170
    33  H    0.153700
    34  H    0.156212
 Sum of Mulliken charges =  -0.00000

 Dipole moment (field-independent basis, Debye):
    X=              5.2088    Y=             -1.1181    Z=             -1.7003  Tot=              5.5922
 Quadrupole moment (field-independent basis, Debye-Ang):
   XX=            -73.8853   YY=            -93.7959   ZZ=            -93.2340
   XY=             -3.5596   XZ=             -4.2997   YZ=             -3.3498

 Normal termination of Gaussian 16 at Wed May  5 22:16:08 2021.
