 Gaussian 16, Revision A.03,
 Gaussian 16:  EM64L-G16RevA.03 25-Dec-2016

 -------------
 #p 6-31g* mp2
 -------------

 ------------------------------------------------------
 Input file generated by CHIRIPA (05-May-2021 14:53:16)
 ------------------------------------------------------
 Symbolic Z-matrix:
 Charge =  0 Multiplicity = 1

                         Standard orientation:
 ---------------------------------------------------------------------
 Center     Atomic      Atomic             Coordinates (Angstroms)
 Number     Number       Type             X           Y           Z
 ---------------------------------------------------------------------
      1          6           0       -4.782235    0.201171   -0.001490
      2          6           0       -5.868563   -0.618900   -0.698168
      3          6           0       -6.974998    0.251467   -1.294871
      4          1           0       -5.241283    0.807691    0.791197
      5          1           0       -4.346400    0.906842   -0.722235
      6          1           0       -6.301265   -1.323771    0.023318
      7          1           0       -5.406847   -1.223682   -1.489163
      8          1           0       -6.562729    0.944878   -2.035017
      9          1           0       -7.462229    0.844221   -0.513943
     10          1           0       -7.740999   -0.355109   -1.787993
     11          6           0       -3.669124   -0.654861    0.600109
     12          6           0       -2.582796    0.165210    1.296787
     13          6           0       -1.476361   -0.705157    1.893490
     14          1           0       -4.104959   -1.360532    1.320853
     15          1           0       -3.210076   -1.261381   -0.192578
     16          1           0       -3.044512    0.769992    2.087781
     17          1           0       -2.150094    0.870081    0.575301
     18          1           0       -0.989130   -1.297911    1.112561
     19          1           0       -1.888630   -1.398568    2.633636
     20          1           0       -0.710360   -0.098581    2.386611
     21          6           0        1.320276    1.737022   -0.141925
     22          6           0        2.610936    2.231236    0.073647
     23          6           0        3.715941    1.376160    0.025110
     24          6           0        3.492831    0.026427   -0.242721
     25          6           0        2.219169   -0.496138   -0.461811
     26          6           0        1.128850    0.377310   -0.408497
     27          1           0        0.467585    2.408400   -0.102365
     28          1           0        2.762595    3.286746    0.280877
     29          1           0        4.725939    1.732146    0.188195
     30          1           0        2.099550   -1.553176   -0.666206
     31          1           0        0.127640   -0.009294   -0.576311
     32          7           0        4.654877   -0.888528   -0.296634
     33          8           0        4.431670   -2.073545   -0.534436
     34          8           0        5.766894   -0.403327   -0.100068
 ---------------------------------------------------------------------

 SCF Done:  E(RHF) =  -669.534685447     A.U. after   15 cycles
 E2 =    -0.2092304854D+01 EUMP2 =    -0.67162699030131D+03

 The electronic state is 1-A.
 Alpha  occ. eigenvalues --  -20.60737 -20.60731 -15.85789 -11.31157 -11.27712
 Alpha  occ. eigenvalues --  -11.27702 -11.27449 -11.26743 -11.26692 -11.22650
 Alpha  occ. eigenvalues --  -11.22235 -11.22184 -11.22088 -11.21938 -11.21565
 Alpha  occ. eigenvalues --   -1.59812  -1.39365  -1.19323  -1.09233  -1.08718
 Alpha  occ. eigenvalues --   -1.04739  -1.04294  -0.96726  -0.95553  -0.87741
 Alpha  occ. eigenvalues --   -0.86121  -0.82390  -0.80375  -0.79019  -0.77441
 Alpha  occ. eigenvalues --   -0.72008  -0.71134  -0.70432  -0.65964  -0.64975
 Alpha  occ. eigenvalues --   -0.64733  -0.62267  -0.61490  -0.60092  -0.58328
 Alpha  occ. eigenvalues --   -0.56048  -0.55209  -0.53448  -0.53159  -0.52982
 Alpha  occ. eigenvalues --   -0.52776  -0.50651  -0.48771  -0.48763  -0.48663
 Alpha  occ. eigenvalues --   -0.47449  -0.46553  -0.46483  -0.44771  -0.44538
 Alpha  occ. eigenvalues --   -0.37295  -0.36298
 Alpha virt. eigenvalues --    0.05086   0.11276   0.16543   0.19061   0.22647
 Alpha virt. eigenvalues --    0.23932   0.25237   0.25655   0.27132   0.28085
 Alpha virt. eigenvalues --    0.28608   0.30063   0.30921   0.31508   0.31936

 Mulliken charges:
               1
     1  C   -0.298324
     2  C   -0.300223
     3  C   -0.476100
     4  H    0.151318
     5  H    0.147197
     6  H    0.153760
     7  H    0.152497
     8  H    0.155034
     9  H    0.155955
    10  H    0.162359
    11  C   -0.298445
    12  C   -0.303456
    13  C   -0.476484
    14  H    0.154130
    15  H    0.147453
    16  H    0.157041
    17  H    0.140303
    18  H    0.148381
    19  H    0.161004
    20  H    0.165459
    21  C   -0.174222
    22  C   -0.218438
    23  C   -0.171386
    24  C    0.158723
    25  C   -0.172784
    26  C   -0.215095
    27  H    0.225922
    28  H    0.223264
    29  H    0.275414
    30  H    0.275152
    31  H    0.227483
    32  N    0.488054
    33  O   -0.460414
    34  O   -0.460532
 Sum of Mulliken charges =  -0.00000

 Dipole moment (field-independent basis, Debye):
    X=             -4.2714    Y=              3.1848    Z=              0.2843  Tot=              5.3356
 Quadrupole moment (field-independent basis, Debye-Ang):
   XX=           -121.6563   YY=            -92.1820   ZZ=            -94.6994
   XY=             14.5414   XZ=              1.3245   YZ=              0.2515

 Normal termination of Gaussian 16 at Thu May  6 05:56:39 2021.
