 Gaussian 16, Revision A.03,
 Gaussian 16:  EM64L-G16RevA.03 25-Dec-2016

 -------------
 #p 6-31g* mp2
 -------------

 ------------------------------------------------------
 Input file generated by CHIRIPA (05-May-2021 14:51:14)
 ------------------------------------------------------
 Symbolic Z-matrix:
 Charge =  0 Multiplicity = 1

                         Standard orientation:
 ---------------------------------------------------------------------
 Center     Atomic      Atomic             Coordinates (Angstroms)
 Number     Number       Type             X           Y           Z
 ---------------------------------------------------------------------
      1          6           0       -4.442229    0.633469   -0.123150
      2          6           0       -5.900402    0.441384    0.294964
      3          6           0       -6.705654    1.740185    0.245175
      4          1           0       -3.975091    1.381530    0.531931
      5          1           0       -4.411260    1.046389   -1.140958
      6          1           0       -5.928589    0.027654    1.311158
      7          1           0       -6.364069   -0.306447   -0.361067
      8          1           0       -6.707309    2.153811   -0.768488
      9          1           0       -6.269355    2.489810    0.913237
     10          1           0       -7.745142    1.579927    0.547897
     11          6           0       -3.624312   -0.656007   -0.078521
     12          6           0       -2.166139   -0.463922   -0.496636
     13          6           0       -1.360887   -1.762724   -0.446846
     14          1           0       -3.655280   -1.068927    0.939287
     15          1           0       -4.091450   -1.404068   -0.733603
     16          1           0       -1.702472    0.283909    0.159395
     17          1           0       -2.137952   -0.050192   -1.512829
     18          1           0       -1.797186   -2.512348   -1.114908
     19          1           0       -1.359231   -2.176349    0.566817
     20          1           0       -0.321398   -1.602465   -0.749568
     21          6           0        4.503789    0.495250   -0.256665
     22          6           0        4.606452    1.858412    0.428341
     23          6           0        5.551440    2.815647   -0.298634
     24          1           0        5.504922    0.047211   -0.319423
     25          1           0        4.159498    0.637172   -1.290452
     26          1           0        4.949121    1.713844    1.460956
     27          1           0        3.604930    2.303173    0.489647
     28          1           0        5.209881    2.989302   -1.324199
     29          1           0        6.561709    2.396625   -0.347370
     30          1           0        5.609875    3.784010    0.208039
     31          6           0        3.562751   -0.472711    0.458337
     32          6           0        3.460089   -1.835873   -0.226670
     33          6           0        2.515101   -2.793109    0.500305
     34          1           0        3.907043   -0.614635    1.492124
     35          1           0        2.561618   -0.024673    0.521094
     36          1           0        4.461611   -2.280635   -0.287976
     37          1           0        3.117419   -1.691306   -1.259285
     38          1           0        1.504832   -2.374086    0.549042
     39          1           0        2.856660   -2.966764    1.525869
     40          1           0        2.456666   -3.761473   -0.006367
 ---------------------------------------------------------------------

 SCF Done:  E(RHF) =  -470.733066278     A.U. after   11 cycles
 E2 =    -0.1582463743D+01 EUMP2 =    -0.47231553002079D+03

 The electronic state is 1-A.
 Alpha  occ. eigenvalues --  -11.21650 -11.21620 -11.21592 -11.21563 -11.21434
 Alpha  occ. eigenvalues --  -11.21388 -11.21374 -11.21328 -11.21115 -11.21086
 Alpha  occ. eigenvalues --  -11.21063 -11.20934  -1.08463  -1.08406  -1.03574
 Alpha  occ. eigenvalues --   -1.03488  -0.96042  -0.95918  -0.87078  -0.86917
 Alpha  occ. eigenvalues --   -0.79661  -0.79528  -0.78274  -0.78220  -0.65099
 Alpha  occ. eigenvalues --   -0.65040  -0.61015  -0.60895  -0.59396  -0.59298
 Alpha  occ. eigenvalues --   -0.57652  -0.57531  -0.55377  -0.55178  -0.52780
 Alpha  occ. eigenvalues --   -0.52625  -0.52441  -0.52299  -0.50027  -0.49784
 Alpha  occ. eigenvalues --   -0.47959  -0.47855  -0.46695  -0.46549  -0.45817
 Alpha  occ. eigenvalues --   -0.45763  -0.45733  -0.45686  -0.43779  -0.43752
 Alpha virt. eigenvalues --    0.21374   0.23020   0.23660   0.24972   0.26411
 Alpha virt. eigenvalues --    0.26673   0.27206   0.27429   0.27859   0.28893
 Alpha virt. eigenvalues --    0.30920   0.31152   0.31662   0.31782   0.32066

 Mulliken charges:
               1
     1  C   -0.298320
     2  C   -0.299678
     3  C   -0.475724
     4  H    0.149677
     5  H    0.149525
     6  H    0.152023
     7  H    0.151995
     8  H    0.155186
     9  H    0.155208
    10  H    0.160337
    11  C   -0.298612
    12  C   -0.299664
    13  C   -0.479949
    14  H    0.149799
    15  H    0.149823
    16  H    0.151734
    17  H    0.151907
    18  H    0.155876
    19  H    0.156206
    20  H    0.163970
    21  C   -0.298227
    22  C   -0.299636
    23  C   -0.475691
    24  H    0.149688
    25  H    0.149427
    26  H    0.151885
    27  H    0.151880
    28  H    0.155176
    29  H    0.155175
    30  H    0.160196
    31  C   -0.298403
    32  C   -0.299976
    33  C   -0.482445
    34  H    0.149582
    35  H    0.149230
    36  H    0.151906
    37  H    0.151233
    38  H    0.163434
    39  H    0.154340
    40  H    0.159906
 Sum of Mulliken charges =  -0.00000

 Dipole moment (field-independent basis, Debye):
    X=             -0.0445    Y=             -0.0049    Z=             -0.0016  Tot=              0.0448
 Quadrupole moment (field-independent basis, Debye-Ang):
   XX=            -85.1099   YY=            -86.0493   ZZ=            -83.6802
   XY=             -0.0521   XZ=              0.9802   YZ=              0.3316

 Normal termination of Gaussian 16 at Wed May  5 23:16:47 2021.
