 Gaussian 16, Revision A.03,
 Gaussian 16:  EM64L-G16RevA.03 25-Dec-2016

 -------------
 #p 6-31g* mp2
 -------------

 ------------------------------------------------------
 Input file generated by CHIRIPA (05-May-2021 14:51:11)
 ------------------------------------------------------
 Symbolic Z-matrix:
 Charge =  0 Multiplicity = 1

                         Standard orientation:
 ---------------------------------------------------------------------
 Center     Atomic      Atomic             Coordinates (Angstroms)
 Number     Number       Type             X           Y           Z
 ---------------------------------------------------------------------
      1          6           0        3.390909   -0.054654   -0.249149
      2          6           0        4.888389   -0.332360   -0.113435
      3          6           0        5.727144    0.436449   -1.134816
      4          1           0        3.066209   -0.318064   -1.265087
      5          1           0        3.213105    1.023535   -0.133868
      6          1           0        5.063158   -1.409879   -0.227560
      7          1           0        5.209524   -0.068438    0.902357
      8          1           0        5.582206    1.515358   -1.018417
      9          1           0        5.435008    0.166295   -2.154755
     10          1           0        6.794457    0.223168   -1.019865
     11          6           0        2.539213   -0.816024    0.765078
     12          6           0        1.041733   -0.538318    0.629363
     13          6           0        0.202979   -1.307126    1.650744
     14          1           0        2.717018   -1.894213    0.649796
     15          1           0        2.863914   -0.552614    1.781015
     16          1           0        0.720598   -0.802240   -0.386429
     17          1           0        0.866964    0.539201    0.743488
     18          1           0        0.495114   -1.036973    2.670683
     19          1           0        0.347916   -2.386036    1.534345
     20          1           0       -0.864335   -1.093846    1.535793
     21          6           0       -2.941928   -0.226842   -0.637980
     22          6           0       -3.977482   -1.241412   -0.151910
     23          6           0       -3.918784   -2.561100   -0.921825
     24          1           0       -3.099406   -0.035859   -1.708341
     25          1           0       -1.938159   -0.663627   -0.542778
     26          1           0       -4.978897   -0.802325   -0.246708
     27          1           0       -3.817641   -1.429857    0.917461
     28          1           0       -2.932315   -3.024366   -0.817594
     29          1           0       -4.100169   -2.393268   -1.988377
     30          1           0       -4.667469   -3.271748   -0.558079
     31          6           0       -2.988194    1.097520    0.122053
     32          6           0       -1.952641    2.112089   -0.364018
     33          6           0       -2.011339    3.431779    0.405897
     34          1           0       -3.991963    1.534304    0.026850
     35          1           0       -2.830717    0.906537    1.192413
     36          1           0       -2.112481    2.300535   -1.433389
     37          1           0       -0.951226    1.673003   -0.269221
     38          1           0       -1.829954    3.263946    1.472449
     39          1           0       -2.997809    3.895044    0.301666
     40          1           0       -1.262653    4.142425    0.042150
 ---------------------------------------------------------------------

 SCF Done:  E(RHF) =  -470.732168052     A.U. after   11 cycles
 E2 =    -0.1584893416D+01 EUMP2 =    -0.47231706146813D+03

 The electronic state is 1-A.
 Alpha  occ. eigenvalues --  -11.21704 -11.21637 -11.21585 -11.21499 -11.21468
 Alpha  occ. eigenvalues --  -11.21404 -11.21356 -11.21286 -11.21159 -11.21096
 Alpha  occ. eigenvalues --  -11.21055 -11.21041  -1.08525  -1.08378  -1.03610
 Alpha  occ. eigenvalues --   -1.03494  -0.96075  -0.95930  -0.87078  -0.86956
 Alpha  occ. eigenvalues --   -0.79736  -0.79520  -0.78406  -0.78114  -0.65155
 Alpha  occ. eigenvalues --   -0.65124  -0.61143  -0.60777  -0.59419  -0.59298
 Alpha  occ. eigenvalues --   -0.57701  -0.57530  -0.55349  -0.55221  -0.52739
 Alpha  occ. eigenvalues --   -0.52642  -0.52506  -0.52325  -0.50007  -0.49891
 Alpha  occ. eigenvalues --   -0.48154  -0.47795  -0.46862  -0.46446  -0.46038
 Alpha  occ. eigenvalues --   -0.45737  -0.45723  -0.45352  -0.43842  -0.43744
 Alpha virt. eigenvalues --    0.20095   0.23057   0.23647   0.24653   0.26092
 Alpha virt. eigenvalues --    0.26342   0.26533   0.27670   0.27987   0.29804
 Alpha virt. eigenvalues --    0.30368   0.31159   0.31672   0.32018   0.32049

 Mulliken charges:
               1
     1  C   -0.298532
     2  C   -0.299711
     3  C   -0.475761
     4  H    0.149956
     5  H    0.149550
     6  H    0.152038
     7  H    0.152024
     8  H    0.155283
     9  H    0.155300
    10  H    0.160388
    11  C   -0.297414
    12  C   -0.305909
    13  C   -0.482811
    14  H    0.149791
    15  H    0.149899
    16  H    0.153254
    17  H    0.156081
    18  H    0.155867
    19  H    0.155668
    20  H    0.166502
    21  C   -0.307264
    22  C   -0.300334
    23  C   -0.475633
    24  H    0.150110
    25  H    0.158093
    26  H    0.152153
    27  H    0.151904
    28  H    0.155183
    29  H    0.155067
    30  H    0.160241
    31  C   -0.298885
    32  C   -0.307923
    33  C   -0.475610
    34  H    0.149722
    35  H    0.149389
    36  H    0.151546
    37  H    0.161225
    38  H    0.154634
    39  H    0.155168
    40  H    0.159752
 Sum of Mulliken charges =  -0.00000

 Dipole moment (field-independent basis, Debye):
    X=              0.0547    Y=             -0.0183    Z=             -0.0020  Tot=              0.0577
 Quadrupole moment (field-independent basis, Debye-Ang):
   XX=            -84.9611   YY=            -85.3797   ZZ=            -84.5724
   XY=             -0.5698   XZ=              0.9703   YZ=              0.1354

 Normal termination of Gaussian 16 at Thu May  6 05:26:51 2021.
