 Gaussian 16, Revision A.03,
 Gaussian 16:  EM64L-G16RevA.03 25-Dec-2016

 -------------
 #p 6-31g* mp2
 -------------

 ------------------------------------------------------
 Input file generated by CHIRIPA (05-May-2021 14:57:22)
 ------------------------------------------------------
 Symbolic Z-matrix:
 Charge =  0 Multiplicity = 1

                         Standard orientation:
 ---------------------------------------------------------------------
 Center     Atomic      Atomic             Coordinates (Angstroms)
 Number     Number       Type             X           Y           Z
 ---------------------------------------------------------------------
      1          6           0       -2.525196    2.576120   -0.036854
      2          6           0       -2.035941    1.704010   -1.014901
      3          6           0       -2.385690    0.350514   -0.998390
      4          6           0       -3.230534   -0.098964    0.015265
      5          6           0       -3.734308    0.745111    1.003718
      6          6           0       -3.371326    2.094736    0.967564
      7          1           0       -2.248362    3.626044   -0.057310
      8          1           0       -1.378656    2.075072   -1.796140
      9          1           0       -2.021322   -0.346552   -1.743208
     10          1           0       -4.387744    0.345848    1.769896
     11          1           0       -3.752797    2.769731    1.728423
     12          7           0       -3.607802   -1.529800    0.043143
     13          8           0       -4.353612   -1.900994    0.946813
     14          8           0       -3.150552   -2.253001   -0.839206
     15          6           0        5.581533   -0.037874    0.719192
     16          6           0        4.569510   -0.211602    1.669007
     17          6           0        3.229010   -0.267895    1.276019
     18          6           0        2.935058   -0.146425   -0.081231
     19          6           0        3.920827    0.027535   -1.051432
     20          6           0        5.254538    0.080931   -0.635607
     21          1           0        6.620229    0.004729    1.033344
     22          1           0        4.820513   -0.304154    2.721849
     23          1           0        2.425650   -0.401619    1.990266
     24          1           0        3.639582    0.116773   -2.093716
     25          1           0        6.038406    0.215929   -1.375454
     26          7           0        1.519525   -0.204485   -0.509358
     27          8           0        1.286753   -0.094918   -1.711210
     28          8           0        0.669604   -0.358461    0.365036
 ---------------------------------------------------------------------

 SCF Done:  E(RHF) =  -868.339291579     A.U. after   16 cycles
 E2 =    -0.2600312016D+01 EUMP2 =    -0.87093960359493D+03

 The electronic state is 1-A.
 Alpha  occ. eigenvalues --  -20.61400 -20.61351 -20.59418 -20.59388 -15.86379
 Alpha  occ. eigenvalues --  -15.84452 -11.31574 -11.29561 -11.28129 -11.28103
 Alpha  occ. eigenvalues --  -11.27831 -11.27099 -11.27081 -11.26296 -11.26046
 Alpha  occ. eigenvalues --  -11.26034 -11.25302 -11.25061  -1.60426  -1.58480
 Alpha  occ. eigenvalues --   -1.39984  -1.38041  -1.19729  -1.17776  -1.09159
 Alpha  occ. eigenvalues --   -1.07255  -1.05103  -1.03151  -0.96024  -0.94113
 Alpha  occ. eigenvalues --   -0.86510  -0.84599  -0.82860  -0.80952  -0.77927
 Alpha  occ. eigenvalues --   -0.75992  -0.72614  -0.71722  -0.70834  -0.70696
 Alpha  occ. eigenvalues --   -0.69781  -0.68987  -0.65384  -0.65106  -0.63467
 Alpha  occ. eigenvalues --   -0.63215  -0.62451  -0.60518  -0.55617  -0.53794
 Alpha  occ. eigenvalues --   -0.53445  -0.53193  -0.51591  -0.51286  -0.49387
 Alpha  occ. eigenvalues --   -0.49261  -0.47451  -0.47424  -0.45416  -0.43502
 Alpha  occ. eigenvalues --   -0.37702  -0.36698  -0.35817  -0.34635
 Alpha virt. eigenvalues --    0.04583   0.06554   0.10959   0.12930   0.16118
 Alpha virt. eigenvalues --    0.18027   0.21121   0.22820   0.27042   0.27993
 Alpha virt. eigenvalues --    0.28777   0.29693   0.30711   0.32207   0.32302

 Mulliken charges:
               1
     1  C   -0.171882
     2  C   -0.218781
     3  C   -0.146566
     4  C    0.156990
     5  C   -0.172185
     6  C   -0.220514
     7  H    0.217769
     8  H    0.223877
     9  H    0.281733
    10  H    0.269586
    11  H    0.215557
    12  N    0.488646
    13  O   -0.468006
    14  O   -0.460254
    15  C   -0.170137
    16  C   -0.218638
    17  C   -0.170392
    18  C    0.158350
    19  C   -0.170912
    20  C   -0.218601
    21  H    0.226968
    22  H    0.225006
    23  H    0.277231
    24  H    0.275026
    25  H    0.224414
    26  N    0.489323
    27  O   -0.468959
    28  O   -0.454648
 Sum of Mulliken charges =  -0.00000

 Dipole moment (field-independent basis, Debye):
    X=              6.8176    Y=              5.0622    Z=              1.3057  Tot=              8.5913
 Quadrupole moment (field-independent basis, Debye-Ang):
   XX=            -84.3572   YY=           -108.0048   ZZ=            -97.5696
   XY=            -16.5683   XZ=              1.0802   YZ=             -0.1755

 Normal termination of Gaussian 16 at Thu May  6 11:13:49 2021.
