 Gaussian 16, Revision A.03,
 Gaussian 16:  EM64L-G16RevA.03 25-Dec-2016

 -------------
 #p 6-31g* mp2
 -------------

 ------------------------------------------------------
 Input file generated by CHIRIPA (05-May-2021 14:55:25)
 ------------------------------------------------------
 Symbolic Z-matrix:
 Charge =  0 Multiplicity = 1

                         Standard orientation:
 ---------------------------------------------------------------------
 Center     Atomic      Atomic             Coordinates (Angstroms)
 Number     Number       Type             X           Y           Z
 ---------------------------------------------------------------------
      1          6           0       -3.220258   -1.662052   -1.297946
      2          6           0       -2.666045   -2.145194   -0.108012
      3          6           0       -2.026944   -1.276510    0.781644
      4          6           0       -1.959928    0.075392    0.448236
      5          6           0       -2.502353    0.587142   -0.729549
      6          6           0       -3.136790   -0.299828   -1.604376
      7          1           0       -3.714916   -2.343968   -1.983292
      8          1           0       -2.729374   -3.202623    0.132566
      9          1           0       -1.589287   -1.623732    1.709712
     10          1           0       -2.423489    1.646421   -0.941980
     11          1           0       -3.566297    0.078197   -2.527776
     12          7           0       -1.285809    1.004707    1.382225
     13          8           0       -1.240053    2.191360    1.065369
     14          8           0       -0.815955    0.528855    2.413457
     15          6           0        2.700364   -0.641599   -0.554726
     16          6           0        3.481150   -1.461309    0.473103
     17          6           0        3.571399   -2.942084    0.103030
     18          1           0        1.688792   -1.058341   -0.654691
     19          1           0        3.180081   -0.746246   -1.537740
     20          1           0        3.000905   -1.354036    1.454160
     21          1           0        4.490919   -1.042450    0.570773
     22          1           0        4.070075   -3.067928   -0.863453
     23          1           0        2.571595   -3.381285    0.024954
     24          1           0        4.133659   -3.509361    0.851308
     25          6           0        2.601476    0.840692   -0.198690
     26          6           0        1.820690    1.660403   -1.226519
     27          6           0        1.730442    3.141178   -0.856446
     28          1           0        2.121759    0.945339    0.784323
     29          1           0        3.613049    1.257435   -0.098726
     30          1           0        0.810921    1.241543   -1.324189
     31          1           0        2.300934    1.553129   -2.207577
     32          1           0        2.730245    3.580379   -0.778370
     33          1           0        1.231766    3.267021    0.110036
     34          1           0        1.168181    3.708454   -1.604724
 ---------------------------------------------------------------------

 SCF Done:  E(RHF) =  -669.536665176     A.U. after   15 cycles
 E2 =    -0.2093316808D+01 EUMP2 =    -0.67162998198420D+03

 The electronic state is 1-A.
 Alpha  occ. eigenvalues --  -20.61066 -20.61055 -15.86073 -11.31375 -11.27922
 Alpha  occ. eigenvalues --  -11.27912 -11.27639 -11.26917 -11.26905 -11.21215
 Alpha  occ. eigenvalues --  -11.20965 -11.20938 -11.20886 -11.20674 -11.19986
 Alpha  occ. eigenvalues --   -1.60112  -1.39668  -1.19528  -1.08936  -1.07888
 Alpha  occ. eigenvalues --   -1.04914  -1.02962  -0.95785  -0.95393  -0.86414
 Alpha  occ. eigenvalues --   -0.86312  -0.82615  -0.79049  -0.77689  -0.77668
 Alpha  occ. eigenvalues --   -0.72298  -0.71445  -0.70626  -0.65183  -0.64911
 Alpha  occ. eigenvalues --   -0.64502  -0.62260  -0.60342  -0.58808  -0.57014
 Alpha  occ. eigenvalues --   -0.55415  -0.54674  -0.53250  -0.53001  -0.52104
 Alpha  occ. eigenvalues --   -0.51820  -0.49339  -0.49059  -0.49044  -0.47364
 Alpha  occ. eigenvalues --   -0.46079  -0.45278  -0.45105  -0.44975  -0.43224
 Alpha  occ. eigenvalues --   -0.37483  -0.36503
 Alpha virt. eigenvalues --    0.04814   0.11059   0.16285   0.21213   0.23075
 Alpha virt. eigenvalues --    0.24700   0.26843   0.27194   0.27968   0.28134
 Alpha virt. eigenvalues --    0.28801   0.30927   0.31597   0.32220   0.32682

 Mulliken charges:
               1
     1  C   -0.170310
     2  C   -0.218446
     3  C   -0.171351
     4  C    0.158806
     5  C   -0.171037
     6  C   -0.218438
     7  H    0.226479
     8  H    0.224299
     9  H    0.276003
    10  H    0.276890
    11  H    0.224465
    12  N    0.489044
    13  O   -0.458620
    14  O   -0.459516
    15  C   -0.296985
    16  C   -0.300657
    17  C   -0.474674
    18  H    0.144616
    19  H    0.146781
    20  H    0.156910
    21  H    0.152149
    22  H    0.153959
    23  H    0.150635
    24  H    0.159661
    25  C   -0.304817
    26  C   -0.298553
    27  C   -0.481697
    28  H    0.162322
    29  H    0.148879
    30  H    0.143728
    31  H    0.146557
    32  H    0.149670
    33  H    0.180354
    34  H    0.152891
 Sum of Mulliken charges =  -0.00000

 Dipole moment (field-independent basis, Debye):
    X=             -2.5753    Y=             -3.2034    Z=             -3.0872  Tot=              5.1404
 Quadrupole moment (field-independent basis, Debye-Ang):
   XX=            -85.3339   YY=            -93.8664   ZZ=            -96.1579
   XY=              5.9792   XZ=              6.3039   YZ=             -4.2810

 Normal termination of Gaussian 16 at Thu May  6 06:26:41 2021.
