 Gaussian 16, Revision A.03,
 Gaussian 16:  EM64L-G16RevA.03 25-Dec-2016

 -------------
 #p 6-31g* mp2
 -------------

 ------------------------------------------------------
 Input file generated by CHIRIPA (05-May-2021 14:55:20)
 ------------------------------------------------------
 Symbolic Z-matrix:
 Charge =  0 Multiplicity = 1

                         Standard orientation:
 ---------------------------------------------------------------------
 Center     Atomic      Atomic             Coordinates (Angstroms)
 Number     Number       Type             X           Y           Z
 ---------------------------------------------------------------------
      1          6           0        4.832104    1.326823    0.827489
      2          6           0        3.657110    1.997640    0.472643
      3          6           0        2.624776    1.322052   -0.184940
      4          6           0        2.801821   -0.030227   -0.473531
      5          6           0        3.960622   -0.726297   -0.133006
      6          6           0        4.979849   -0.030611    0.524067
      7          1           0        5.628955    1.859442    1.338117
      8          1           0        3.539610    3.051825    0.707016
      9          1           0        1.704657    1.816918   -0.471135
     10          1           0        4.048668   -1.777323   -0.380007
     11          1           0        5.891266   -0.554140    0.798441
     12          7           0        1.715872   -0.756080   -1.169414
     13          8           0        1.896403   -1.947304   -1.412378
     14          8           0        0.704737   -0.120036   -1.458707
     15          6           0       -3.451260   -0.404845    1.064693
     16          6           0       -2.006332   -0.807191    0.767566
     17          6           0       -1.291012   -1.386463    1.988449
     18          1           0       -3.459890    0.331400    1.880055
     19          1           0       -4.001191   -1.282950    1.430621
     20          1           0       -1.459652    0.071092    0.400996
     21          1           0       -2.001128   -1.542420   -0.047312
     22          1           0       -1.811156   -2.278395    2.352464
     23          1           0       -1.266602   -0.655715    2.803319
     24          1           0       -0.259593   -1.667356    1.753640
     25          6           0       -4.179582    0.175976   -0.146061
     26          6           0       -5.624511    0.578323    0.151066
     27          6           0       -6.339831    1.157594   -1.069816
     28          1           0       -3.629653    1.054081   -0.511988
     29          1           0       -4.170953   -0.560269   -0.961422
     30          1           0       -5.629713    1.313551    0.965945
     31          1           0       -6.171191   -0.299961    0.517637
     32          1           0       -6.364241    0.426846   -1.884687
     33          1           0       -5.819687    2.049527   -1.433831
     34          1           0       -7.371250    1.438486   -0.835007
 ---------------------------------------------------------------------

 SCF Done:  E(RHF) =  -669.535851344     A.U. after   15 cycles
 E2 =    -0.2091604843D+01 EUMP2 =    -0.67162745618707D+03

 The electronic state is 1-A.
 Alpha  occ. eigenvalues --  -20.60923 -20.60896 -15.85937 -11.31275 -11.27841
 Alpha  occ. eigenvalues --  -11.27834 -11.27576 -11.26848 -11.26838 -11.20993
 Alpha  occ. eigenvalues --  -11.20591 -11.20543 -11.20516 -11.20367 -11.20280
 Alpha  occ. eigenvalues --   -1.59969  -1.39526  -1.19443  -1.08845  -1.07604
 Alpha  occ. eigenvalues --   -1.04841  -1.02730  -0.95685  -0.95238  -0.86258
 Alpha  occ. eigenvalues --   -0.86240  -0.82521  -0.78779  -0.77585  -0.77350
 Alpha  occ. eigenvalues --   -0.72158  -0.71284  -0.70552  -0.65099  -0.64845
 Alpha  occ. eigenvalues --   -0.64245  -0.62190  -0.60134  -0.58595  -0.56817
 Alpha  occ. eigenvalues --   -0.55344  -0.54548  -0.53171  -0.52934  -0.51951
 Alpha  occ. eigenvalues --   -0.51650  -0.49199  -0.48928  -0.48917  -0.47119
 Alpha  occ. eigenvalues --   -0.45838  -0.45203  -0.44861  -0.44516  -0.42986
 Alpha  occ. eigenvalues --   -0.37419  -0.36442
 Alpha virt. eigenvalues --    0.04936   0.11208   0.16405   0.21291   0.23592
 Alpha virt. eigenvalues --    0.24884   0.27075   0.27491   0.27923   0.28545
 Alpha virt. eigenvalues --    0.28712   0.30791   0.31885   0.32288   0.32335

 Mulliken charges:
               1
     1  C   -0.170588
     2  C   -0.218438
     3  C   -0.170680
     4  C    0.158252
     5  C   -0.170928
     6  C   -0.218462
     7  H    0.225944
     8  H    0.223707
     9  H    0.275288
    10  H    0.275840
    11  H    0.223799
    12  N    0.488550
    13  O   -0.459766
    14  O   -0.458423
    15  C   -0.298970
    16  C   -0.300543
    17  C   -0.475399
    18  H    0.143850
    19  H    0.146378
    20  H    0.160586
    21  H    0.162247
    22  H    0.153205
    23  H    0.148361
    24  H    0.157038
    25  C   -0.297124
    26  C   -0.299010
    27  C   -0.475097
    28  H    0.149833
    29  H    0.152843
    30  H    0.149112
    31  H    0.150668
    32  H    0.155909
    33  H    0.154288
    34  H    0.157728
 Sum of Mulliken charges =  -0.00000

 Dipole moment (field-independent basis, Debye):
    X=              4.0321    Y=              2.5311    Z=              2.2744  Tot=              5.2760
 Quadrupole moment (field-independent basis, Debye-Ang):
   XX=            -73.3242   YY=            -90.9054   ZZ=            -98.8960
   XY=              5.3433   XZ=              5.2828   YZ=             -0.5699

 Normal termination of Gaussian 16 at Thu May  6 02:59:22 2021.
