 Gaussian 16, Revision A.03,
 Gaussian 16:  EM64L-G16RevA.03 25-Dec-2016

 -------------
 #p 6-31g* mp2
 -------------

 ------------------------------------------------------
 Input file generated by CHIRIPA (05-May-2021 14:53:12)
 ------------------------------------------------------
 Symbolic Z-matrix:
 Charge =  0 Multiplicity = 1

                         Standard orientation:
 ---------------------------------------------------------------------
 Center     Atomic      Atomic             Coordinates (Angstroms)
 Number     Number       Type             X           Y           Z
 ---------------------------------------------------------------------
      1          6           0        4.560247   -0.381769   -0.135464
      2          6           0        5.946975   -0.469404   -0.773658
      3          6           0        6.421774   -1.910754   -0.960388
      4          1           0        4.578287   -0.892300    0.837150
      5          1           0        3.840932   -0.927535   -0.761659
      6          1           0        6.663202    0.077535   -0.147166
      7          1           0        5.925682    0.041562   -1.744779
      8          1           0        5.729700   -2.464087   -1.603395
      9          1           0        6.471411   -2.427909    0.003296
     10          1           0        7.415163   -1.950097   -1.418089
     11          6           0        4.071818    1.052751    0.057713
     12          6           0        2.685090    1.140385    0.695907
     13          6           0        2.210291    2.581736    0.882637
     14          1           0        4.791133    1.598517    0.683907
     15          1           0        4.053779    1.563282   -0.914901
     16          1           0        2.706383    0.629420    1.667028
     17          1           0        1.968863    0.593446    0.069414
     18          1           0        2.160655    3.098891   -0.081047
     19          1           0        2.902365    3.135069    1.525644
     20          1           0        1.216902    2.621079    1.340338
     21          6           0       -1.236894   -0.909519    1.208727
     22          6           0       -1.282627    0.252222    0.431047
     23          6           0       -2.460186    0.620679   -0.226328
     24          6           0       -3.578305   -0.199513   -0.083548
     25          6           0       -3.564221   -1.363032    0.684121
     26          6           0       -2.375828   -1.712023    1.332564
     27          1           0       -0.317930   -1.188185    1.715922
     28          1           0       -0.399654    0.877366    0.333080
     29          1           0       -2.523368    1.514724   -0.834694
     30          1           0       -4.460619   -1.966095    0.762874
     31          1           0       -2.343224   -2.614807    1.935858
     32          7           0       -4.830668    0.180253   -0.774753
     33          8           0       -5.802050   -0.559315   -0.633000
     34          8           0       -4.817175    1.210290   -1.445185
 ---------------------------------------------------------------------

 SCF Done:  E(RHF) =  -669.535422085     A.U. after   15 cycles
 E2 =    -0.2091577633D+01 EUMP2 =    -0.67162699971803D+03

 The electronic state is 1-A.
 Alpha  occ. eigenvalues --  -20.60717 -20.60712 -15.85770 -11.31122 -11.27696
 Alpha  occ. eigenvalues --  -11.27680 -11.27415 -11.26704 -11.26634 -11.22836
 Alpha  occ. eigenvalues --  -11.22289 -11.22213 -11.22212 -11.22131 -11.21588
 Alpha  occ. eigenvalues --   -1.59793  -1.39347  -1.19291  -1.09309  -1.08686
 Alpha  occ. eigenvalues --   -1.04700  -1.04409  -0.96835  -0.95524  -0.87845
 Alpha  occ. eigenvalues --   -0.86094  -0.82357  -0.80513  -0.79091  -0.77410
 Alpha  occ. eigenvalues --   -0.71989  -0.71116  -0.70394  -0.65966  -0.64940
 Alpha  occ. eigenvalues --   -0.64733  -0.62179  -0.61707  -0.60194  -0.58434
 Alpha  occ. eigenvalues --   -0.56096  -0.55178  -0.53558  -0.53285  -0.53020
 Alpha  occ. eigenvalues --   -0.52709  -0.50761  -0.48819  -0.48745  -0.48739
 Alpha  occ. eigenvalues --   -0.47528  -0.46626  -0.46519  -0.44755  -0.44649
 Alpha  occ. eigenvalues --   -0.37269  -0.36295
 Alpha virt. eigenvalues --    0.05124   0.11278   0.16608   0.19630   0.22438
 Alpha virt. eigenvalues --    0.23783   0.25637   0.26014   0.26319   0.28292
 Alpha virt. eigenvalues --    0.29037   0.30370   0.30555   0.31284   0.31615

 Mulliken charges:
               1
     1  C   -0.299347
     2  C   -0.300357
     3  C   -0.476245
     4  H    0.148903
     5  H    0.149852
     6  H    0.153230
     7  H    0.153699
     8  H    0.155879
     9  H    0.155177
    10  H    0.162495
    11  C   -0.297602
    12  C   -0.307257
    13  C   -0.481116
    14  H    0.152937
    15  H    0.152884
    16  H    0.151572
    17  H    0.146685
    18  H    0.159465
    19  H    0.162615
    20  H    0.156955
    21  C   -0.173864
    22  C   -0.228479
    23  C   -0.172772
    24  C    0.158951
    25  C   -0.171283
    26  C   -0.218550
    27  H    0.226594
    28  H    0.238018
    29  H    0.275792
    30  H    0.275337
    31  H    0.223094
    32  N    0.487991
    33  O   -0.460684
    34  O   -0.460565
 Sum of Mulliken charges =  -0.00000

 Dipole moment (field-independent basis, Debye):
    X=              4.6877    Y=             -1.2889    Z=              2.4164  Tot=              5.4291
 Quadrupole moment (field-independent basis, Debye-Ang):
   XX=           -124.9647   YY=            -91.9025   ZZ=            -94.3259
   XY=              6.7551   XZ=             -9.6824   YZ=             -2.3131

 Normal termination of Gaussian 16 at Wed May  5 21:44:15 2021.
