 Gaussian 16, Revision A.03,
 Gaussian 16:  EM64L-G16RevA.03 25-Dec-2016

 -------------
 #p 6-31g* mp2
 -------------

 ------------------------------------------------------
 Input file generated by CHIRIPA (05-May-2021 14:55:23)
 ------------------------------------------------------
 Symbolic Z-matrix:
 Charge =  0 Multiplicity = 1

                         Standard orientation:
 ---------------------------------------------------------------------
 Center     Atomic      Atomic             Coordinates (Angstroms)
 Number     Number       Type             X           Y           Z
 ---------------------------------------------------------------------
      1          6           0        1.836744    1.697349   -1.766787
      2          6           0        3.179204    1.553130   -1.401378
      3          6           0        3.576424    0.516014   -0.552171
      4          6           0        2.600405   -0.362764   -0.084810
      5          6           0        1.255112   -0.245361   -0.430779
      6          6           0        0.880668    0.799226   -1.281178
      7          1           0        1.537020    2.505908   -2.426934
      8          1           0        3.923874    2.249140   -1.776986
      9          1           0        4.608859    0.381171   -0.253316
     10          1           0        0.535649   -0.954814   -0.040310
     11          1           0       -0.162622    0.908797   -1.563285
     12          7           0        3.008868   -1.464667    0.814838
     13          8           0        2.129693   -2.225670    1.213038
     14          8           0        4.200463   -1.546471    1.104748
     15          6           0       -3.872537   -0.183352    0.180542
     16          6           0       -3.701136   -1.252660   -0.898895
     17          6           0       -4.970434   -2.075101   -1.123100
     18          1           0       -4.169550   -0.665858    1.121773
     19          1           0       -4.698013    0.484401   -0.102464
     20          1           0       -2.875326   -1.917369   -0.614612
     21          1           0       -3.404310   -0.767571   -1.837617
     22          1           0       -5.798862   -1.428864   -1.430812
     23          1           0       -5.266872   -2.585195   -0.200858
     24          1           0       -4.825600   -2.833528   -1.898774
     25          6           0       -2.612161    0.647113    0.416149
     26          6           0       -2.783562    1.716421    1.495587
     27          6           0       -1.514264    2.538862    1.719791
     28          1           0       -1.786685   -0.020639    0.699155
     29          1           0       -2.315148    1.129619   -0.525082
     30          1           0       -3.080389    1.231333    2.434309
     31          1           0       -3.609372    2.381130    1.211304
     32          1           0       -1.217826    3.048957    0.797550
     33          1           0       -0.685837    1.892625    2.027504
     34          1           0       -1.659098    3.297290    2.495466
 ---------------------------------------------------------------------

 SCF Done:  E(RHF) =  -669.535169453     A.U. after   15 cycles
 E2 =    -0.2092846978D+01 EUMP2 =    -0.67162801643128D+03

 The electronic state is 1-A.
 Alpha  occ. eigenvalues --  -20.60735 -20.60729 -15.85786 -11.31121 -11.27681
 Alpha  occ. eigenvalues --  -11.27659 -11.27408 -11.26703 -11.26628 -11.22257
 Alpha  occ. eigenvalues --  -11.22188 -11.22149 -11.21962 -11.21523 -11.21469
 Alpha  occ. eigenvalues --   -1.59810  -1.39365  -1.19284  -1.09081  -1.08685
 Alpha  occ. eigenvalues --   -1.04679  -1.04062  -0.96517  -0.95529  -0.87529
 Alpha  occ. eigenvalues --   -0.86083  -0.82370  -0.80143  -0.78983  -0.77376
 Alpha  occ. eigenvalues --   -0.72005  -0.71132  -0.70402  -0.65746  -0.64933
 Alpha  occ. eigenvalues --   -0.64655  -0.62053  -0.61447  -0.59880  -0.58134
 Alpha  occ. eigenvalues --   -0.55806  -0.55193  -0.53173  -0.53030  -0.52966
 Alpha  occ. eigenvalues --   -0.52743  -0.50444  -0.48765  -0.48763  -0.48439
 Alpha  occ. eigenvalues --   -0.47169  -0.46424  -0.46370  -0.44776  -0.44361
 Alpha  occ. eigenvalues --   -0.37265  -0.36249
 Alpha virt. eigenvalues --    0.05092   0.11307   0.16551   0.19785   0.22861
 Alpha virt. eigenvalues --    0.23766   0.24076   0.25012   0.27391   0.28582
 Alpha virt. eigenvalues --    0.30542   0.30685   0.31070   0.31400   0.31718

 Mulliken charges:
               1
     1  C   -0.172509
     2  C   -0.218190
     3  C   -0.171251
     4  C    0.159232
     5  C   -0.176795
     6  C   -0.218474
     7  H    0.225163
     8  H    0.223068
     9  H    0.275220
    10  H    0.276963
    11  H    0.229982
    12  N    0.488199
    13  O   -0.461181
    14  O   -0.460488
    15  C   -0.297660
    16  C   -0.301487
    17  C   -0.475915
    18  H    0.154728
    19  H    0.151162
    20  H    0.152945
    21  H    0.147275
    22  H    0.155716
    23  H    0.158288
    24  H    0.162316
    25  C   -0.305129
    26  C   -0.299564
    27  C   -0.476562
    28  H    0.150783
    29  H    0.141437
    30  H    0.156840
    31  H    0.152931
    32  H    0.150168
    33  H    0.159954
    34  H    0.162834
 Sum of Mulliken charges =  -0.00000

 Dipole moment (field-independent basis, Debye):
    X=             -1.6094    Y=              3.8629    Z=             -3.0609  Tot=              5.1848
 Quadrupole moment (field-independent basis, Debye-Ang):
   XX=            -97.7773   YY=            -97.6845   ZZ=            -94.3864
   XY=             11.8915   XZ=             -8.7551   YZ=              0.1378

 Normal termination of Gaussian 16 at Wed May  5 19:03:16 2021.
