 Gaussian 16, Revision A.03,
 Gaussian 16:  EM64L-G16RevA.03 25-Dec-2016

 -------------
 #p 6-31g* mp2
 -------------

 ------------------------------------------------------
 Input file generated by CHIRIPA (05-May-2021 14:53:17)
 ------------------------------------------------------
 Symbolic Z-matrix:
 Charge =  0 Multiplicity = 1

                         Standard orientation:
 ---------------------------------------------------------------------
 Center     Atomic      Atomic             Coordinates (Angstroms)
 Number     Number       Type             X           Y           Z
 ---------------------------------------------------------------------
      1          6           0       -3.747156    1.140551    0.409567
      2          6           0       -2.444406    1.818749   -0.015727
      3          6           0       -2.213624    3.153259    0.693931
      4          1           0       -4.588715    1.816522    0.205145
      5          1           0       -3.731388    0.980921    1.496611
      6          1           0       -2.462039    1.975799   -1.101840
      7          1           0       -1.605869    1.141009    0.189554
      8          1           0       -2.169607    3.010293    1.778470
      9          1           0       -3.030641    3.849827    0.479738
     10          1           0       -1.276818    3.620786    0.375068
     11          6           0       -3.991917   -0.194618   -0.291249
     12          6           0       -5.294667   -0.872815    0.134045
     13          6           0       -5.525449   -2.207325   -0.575613
     14          1           0       -4.007685   -0.034987   -1.378293
     15          1           0       -3.150358   -0.870588   -0.086827
     16          1           0       -6.133204   -0.195075   -0.071236
     17          1           0       -5.277034   -1.029866    1.220158
     18          1           0       -4.708432   -2.903893   -0.361420
     19          1           0       -5.569467   -2.064359   -1.660152
     20          1           0       -6.462255   -2.674852   -0.256750
     21          6           0        0.644619   -1.201225    0.084582
     22          6           0        0.953949   -0.085817   -0.700720
     23          6           0        2.268343    0.383794   -0.780617
     24          6           0        3.253015   -0.289098   -0.058863
     25          6           0        2.976382   -1.403054    0.732254
     26          6           0        1.655040   -1.855130    0.797307
     27          1           0       -0.379133   -1.559218    0.140882
     28          1           0        0.171281    0.423993   -1.255309
     29          1           0        2.535665    1.244969   -1.380894
     30          1           0        3.778060   -1.890412    1.273744
     31          1           0        1.417729   -2.721615    1.407988
     32          7           0        4.648184    0.198776   -0.135589
     33          8           0        5.497550   -0.411640    0.509861
     34          8           0        4.865931    1.182350   -0.839724
 ---------------------------------------------------------------------

 SCF Done:  E(RHF) =  -669.535185443     A.U. after   15 cycles
 E2 =    -0.2092362281D+01 EUMP2 =    -0.67162754772398D+03

 The electronic state is 1-A.
 Alpha  occ. eigenvalues --  -20.60753 -20.60748 -15.85805 -11.31177 -11.27741
 Alpha  occ. eigenvalues --  -11.27723 -11.27477 -11.26762 -11.26693 -11.22576
 Alpha  occ. eigenvalues --  -11.22464 -11.22403 -11.22271 -11.21831 -11.21793
 Alpha  occ. eigenvalues --   -1.59828  -1.39381  -1.19345  -1.09367  -1.08739
 Alpha  occ. eigenvalues --   -1.04748  -1.04384  -0.96812  -0.95576  -0.87826
 Alpha  occ. eigenvalues --   -0.86149  -0.82404  -0.80480  -0.79222  -0.77444
 Alpha  occ. eigenvalues --   -0.72024  -0.71151  -0.70459  -0.66016  -0.64992
 Alpha  occ. eigenvalues --   -0.64745  -0.62141  -0.61736  -0.60176  -0.58441
 Alpha  occ. eigenvalues --   -0.56103  -0.55239  -0.53486  -0.53242  -0.53076
 Alpha  occ. eigenvalues --   -0.52832  -0.50745  -0.48853  -0.48779  -0.48690
 Alpha  occ. eigenvalues --   -0.47500  -0.46726  -0.46653  -0.44786  -0.44656
 Alpha  occ. eigenvalues --   -0.37309  -0.36331
 Alpha virt. eigenvalues --    0.05068   0.11165   0.16546   0.19183   0.22530
 Alpha virt. eigenvalues --    0.23306   0.24585   0.25693   0.26815   0.27866
 Alpha virt. eigenvalues --    0.29755   0.30486   0.30664   0.31223   0.31732

 Mulliken charges:
               1
     1  C   -0.297970
     2  C   -0.308827
     3  C   -0.475097
     4  H    0.153823
     5  H    0.151870
     6  H    0.149892
     7  H    0.150594
     8  H    0.158244
     9  H    0.158080
    10  H    0.161926
    11  C   -0.299845
    12  C   -0.300211
    13  C   -0.475861
    14  H    0.151181
    15  H    0.140030
    16  H    0.155477
    17  H    0.153308
    18  H    0.152427
    19  H    0.156649
    20  H    0.163499
    21  C   -0.175337
    22  C   -0.220531
    23  C   -0.172767
    24  C    0.158526
    25  C   -0.170876
    26  C   -0.219107
    27  H    0.229445
    28  H    0.229610
    29  H    0.275624
    30  H    0.275511
    31  H    0.223472
    32  N    0.488064
    33  O   -0.460460
    34  O   -0.460364
 Sum of Mulliken charges =  -0.00000

 Dipole moment (field-independent basis, Debye):
    X=             -5.1031    Y=             -1.6344    Z=              0.3068  Tot=              5.3672
 Quadrupole moment (field-independent basis, Debye-Ang):
   XX=           -125.8393   YY=            -91.8784   ZZ=            -92.9916
   XY=             -6.1209   XZ=              2.3580   YZ=             -3.3236

 Normal termination of Gaussian 16 at Wed May  5 20:22:21 2021.
