 Gaussian 16, Revision A.03,
 Gaussian 16:  EM64L-G16RevA.03 25-Dec-2016

 -------------
 #p 6-31g* mp2
 -------------

 ------------------------------------------------------
 Input file generated by CHIRIPA (05-May-2021 14:55:25)
 ------------------------------------------------------
 Symbolic Z-matrix:
 Charge =  0 Multiplicity = 1

                         Standard orientation:
 ---------------------------------------------------------------------
 Center     Atomic      Atomic             Coordinates (Angstroms)
 Number     Number       Type             X           Y           Z
 ---------------------------------------------------------------------
      1          6           0       -0.458025   -0.602499    0.195736
      2          6           0       -1.017739   -0.212354   -1.025341
      3          6           0       -2.400991   -0.056038   -1.154670
      4          6           0       -3.198456   -0.299257   -0.037448
      5          6           0       -2.670768   -0.689110    1.192532
      6          6           0       -1.284869   -0.839215    1.298830
      7          1           0        0.617546   -0.721517    0.287257
      8          1           0       -0.378038   -0.027836   -1.883700
      9          1           0       -2.860746    0.244992   -2.088171
     10          1           0       -3.334124   -0.865861    2.030467
     11          1           0       -0.852959   -1.142312    2.248373
     12          7           0       -4.664244   -0.137060   -0.162172
     13          8           0       -5.345139   -0.357402    0.837062
     14          8           0       -5.104480    0.207342   -1.256803
     15          6           0        3.430098    1.027179   -0.270992
     16          6           0        2.601704    1.798132    0.757298
     17          6           0        1.898152    3.015579    0.156772
     18          1           0        4.175682    1.702547   -0.712499
     19          1           0        2.774939    0.705130   -1.092237
     20          1           0        3.257967    2.117440    1.577040
     21          1           0        1.858132    1.120803    1.196547
     22          1           0        1.220853    2.711164   -0.647715
     23          1           0        2.628642    3.713464   -0.265060
     24          1           0        1.311699    3.552023    0.909210
     25          6           0        4.139505   -0.192649    0.314235
     26          6           0        4.967899   -0.963601   -0.714055
     27          6           0        5.671451   -2.181049   -0.113529
     28          1           0        4.794664    0.129401    1.135481
     29          1           0        3.393920   -0.868015    0.755743
     30          1           0        5.711471   -0.286271   -1.153304
     31          1           0        4.311636   -1.282908   -1.533797
     32          1           0        4.940961   -2.878932    0.308303
     33          1           0        6.348750   -1.876632    0.690958
     34          1           0        6.257904   -2.717492   -0.865967
 ---------------------------------------------------------------------

 SCF Done:  E(RHF) =  -669.535176020     A.U. after   15 cycles
 E2 =    -0.2092590002D+01 EUMP2 =    -0.67162776602113D+03

 The electronic state is 1-A.
 Alpha  occ. eigenvalues --  -20.60776 -20.60771 -15.85830 -11.31210 -11.27786
 Alpha  occ. eigenvalues --  -11.27781 -11.27505 -11.26806 -11.26791 -11.22576
 Alpha  occ. eigenvalues --  -11.22525 -11.22483 -11.22439 -11.21829 -11.21823
 Alpha  occ. eigenvalues --   -1.59851  -1.39404  -1.19387  -1.09462  -1.08776
 Alpha  occ. eigenvalues --   -1.04791  -1.04425  -0.96865  -0.95613  -0.87874
 Alpha  occ. eigenvalues --   -0.86189  -0.82448  -0.80494  -0.79279  -0.77486
 Alpha  occ. eigenvalues --   -0.72048  -0.71174  -0.70561  -0.66111  -0.65038
 Alpha  occ. eigenvalues --   -0.64779  -0.62142  -0.61829  -0.60227  -0.58475
 Alpha  occ. eigenvalues --   -0.56179  -0.55286  -0.53503  -0.53286  -0.53096
 Alpha  occ. eigenvalues --   -0.52883  -0.50808  -0.48813  -0.48802  -0.48791
 Alpha  occ. eigenvalues --   -0.47547  -0.46784  -0.46760  -0.44807  -0.44715
 Alpha  occ. eigenvalues --   -0.37339  -0.36393
 Alpha virt. eigenvalues --    0.05018   0.11177   0.16399   0.18245   0.22834
 Alpha virt. eigenvalues --    0.23683   0.24713   0.25259   0.26876   0.27994
 Alpha virt. eigenvalues --    0.29690   0.30823   0.31074   0.31316   0.31710

 Mulliken charges:
               1
     1  C   -0.172504
     2  C   -0.221867
     3  C   -0.170546
     4  C    0.158496
     5  C   -0.170301
     6  C   -0.221091
     7  H    0.233331
     8  H    0.223672
     9  H    0.275797
    10  H    0.275774
    11  H    0.223832
    12  N    0.488038
    13  O   -0.460337
    14  O   -0.460316
    15  C   -0.300732
    16  C   -0.302387
    17  C   -0.474994
    18  H    0.156146
    19  H    0.141593
    20  H    0.156142
    21  H    0.145431
    22  H    0.153495
    23  H    0.157601
    24  H    0.164768
    25  C   -0.300102
    26  C   -0.299756
    27  C   -0.476151
    28  H    0.154612
    29  H    0.141681
    30  H    0.155406
    31  H    0.150331
    32  H    0.154413
    33  H    0.157198
    34  H    0.163327
 Sum of Mulliken charges =  -0.00000

 Dipole moment (field-independent basis, Debye):
    X=              5.3343    Y=             -0.4903    Z=              0.4544  Tot=              5.3760
 Quadrupole moment (field-independent basis, Debye-Ang):
   XX=           -126.9844   YY=            -95.0061   ZZ=            -90.2723
   XY=              1.5961   XZ=             -2.2077   YZ=             -1.1117

 Normal termination of Gaussian 16 at Wed May  5 22:27:51 2021.
