 Gaussian 16, Revision A.03,
 Gaussian 16:  EM64L-G16RevA.03 25-Dec-2016

 -------------
 #p 6-31g* mp2
 -------------

 ------------------------------------------------------
 Input file generated by CHIRIPA (05-May-2021 14:57:25)
 ------------------------------------------------------
 Symbolic Z-matrix:
 Charge =  0 Multiplicity = 1

                         Standard orientation:
 ---------------------------------------------------------------------
 Center     Atomic      Atomic             Coordinates (Angstroms)
 Number     Number       Type             X           Y           Z
 ---------------------------------------------------------------------
      1          6           0        2.711371   -1.975807    1.508007
      2          6           0        2.057319   -1.884173    0.274986
      3          6           0        2.311618   -0.812201   -0.585686
      4          6           0        3.230095    0.154673   -0.179674
      5          6           0        3.897739    0.091340    1.042426
      6          6           0        3.627878   -0.989498    1.887124
      7          1           0        2.507781   -2.811984    2.170393
      8          1           0        1.345054   -2.648691   -0.022057
      9          1           0        1.819388   -0.716585   -1.545887
     10          1           0        4.602558    0.868859    1.310965
     11          1           0        4.137302   -1.058076    2.844113
     12          7           0        3.507548    1.294214   -1.082373
     13          8           0        4.321119    2.133022   -0.701400
     14          8           0        2.906190    1.327002   -2.153788
     15          6           0       -3.702051    2.253355    1.111898
     16          6           0       -4.694721    1.573967    0.398064
     17          6           0       -4.419140    0.343149   -0.205003
     18          6           0       -3.134320   -0.181505   -0.073608
     19          6           0       -2.124029    0.471232    0.631045
     20          6           0       -2.422130    1.700793    1.225909
     21          1           0       -3.924876    3.208996    1.577189
     22          1           0       -5.689612    2.000701    0.307875
     23          1           0       -5.168865   -0.204123   -0.763415
     24          1           0       -1.141630    0.020625    0.703601
     25          1           0       -1.649242    2.226181    1.779676
     26          7           0       -2.830654   -1.483852   -0.707707
     27          8           0       -1.690824   -1.924782   -0.577301
     28          8           0       -3.738221   -2.039040   -1.323113
 ---------------------------------------------------------------------

 SCF Done:  E(RHF) =  -868.340266664     A.U. after   16 cycles
 E2 =    -0.2598959842D+01 EUMP2 =    -0.87093922650509D+03

 The electronic state is 1-A.
 Alpha  occ. eigenvalues --  -20.61329 -20.61262 -20.60655 -20.60641 -15.86346
 Alpha  occ. eigenvalues --  -15.85696 -11.31449 -11.30966 -11.27988 -11.27981
 Alpha  occ. eigenvalues --  -11.27685 -11.27545 -11.27399 -11.27180 -11.26952
 Alpha  occ. eigenvalues --  -11.26935 -11.26558 -11.26302  -1.60362  -1.59732
 Alpha  occ. eigenvalues --   -1.39928  -1.39285  -1.19598  -1.19113  -1.09041
 Alpha  occ. eigenvalues --   -1.08521  -1.04964  -1.04458  -0.95920  -0.95374
 Alpha  occ. eigenvalues --   -0.86376  -0.85856  -0.82773  -0.82175  -0.77848
 Alpha  occ. eigenvalues --   -0.77237  -0.72588  -0.71910  -0.71667  -0.71062
 Alpha  occ. eigenvalues --   -0.70707  -0.70192  -0.65262  -0.64965  -0.64733
 Alpha  occ. eigenvalues --   -0.64392  -0.62318  -0.61761  -0.55475  -0.54961
 Alpha  occ. eigenvalues --   -0.53305  -0.53080  -0.52824  -0.52487  -0.49335
 Alpha  occ. eigenvalues --   -0.49293  -0.48675  -0.48659  -0.45393  -0.44710
 Alpha  occ. eigenvalues --   -0.37563  -0.37112  -0.36554  -0.36073
 Alpha virt. eigenvalues --    0.04674   0.05219   0.11094   0.11579   0.16226
 Alpha virt. eigenvalues --    0.16704   0.21185   0.21902   0.27067   0.27524
 Alpha virt. eigenvalues --    0.28366   0.28695   0.30805   0.31442   0.32248

 Mulliken charges:
               1
     1  C   -0.174252
     2  C   -0.222563
     3  C   -0.177393
     4  C    0.156373
     5  C   -0.174046
     6  C   -0.219466
     7  H    0.226563
     8  H    0.244852
     9  H    0.280898
    10  H    0.273465
    11  H    0.221645
    12  N    0.487637
    13  O   -0.462685
    14  O   -0.459572
    15  C   -0.169681
    16  C   -0.218515
    17  C   -0.170375
    18  C    0.157917
    19  C   -0.171626
    20  C   -0.218194
    21  H    0.227310
    22  H    0.224557
    23  H    0.275776
    24  H    0.274175
    25  H    0.225683
    26  N    0.491919
    27  O   -0.473743
    28  O   -0.456659
 Sum of Mulliken charges =  -0.00000

 Dipole moment (field-independent basis, Debye):
    X=             -2.2944    Y=              0.5005    Z=              5.3589  Tot=              5.8509
 Quadrupole moment (field-independent basis, Debye-Ang):
   XX=            -98.5518   YY=           -107.8529   ZZ=           -104.6396
   XY=            -26.5053   XZ=              7.6827   YZ=              2.1926

 Normal termination of Gaussian 16 at Thu May  6 08:19:57 2021.
