 Gaussian 16, Revision A.03,
 Gaussian 16:  EM64L-G16RevA.03 25-Dec-2016

 -------------
 #p 6-31g* mp2
 -------------

 ------------------------------------------------------
 Input file generated by CHIRIPA (05-May-2021 14:53:16)
 ------------------------------------------------------
 Symbolic Z-matrix:
 Charge =  0 Multiplicity = 1

                         Standard orientation:
 ---------------------------------------------------------------------
 Center     Atomic      Atomic             Coordinates (Angstroms)
 Number     Number       Type             X           Y           Z
 ---------------------------------------------------------------------
      1          6           0        4.371808   -0.560676    0.026690
      2          6           0        5.111845    0.722997   -0.350822
      3          6           0        6.613608    0.642464   -0.075113
      4          1           0        4.539697   -0.773577    1.091317
      5          1           0        4.803541   -1.402437   -0.532273
      6          1           0        4.677931    1.562308    0.207651
      7          1           0        4.942017    0.932971   -1.414629
      8          1           0        7.066378   -0.176044   -0.644011
      9          1           0        6.800792    0.456869    0.987487
     10          1           0        7.123009    1.570664   -0.352269
     11          6           0        2.869575   -0.495594   -0.243102
     12          6           0        2.129538   -1.779267    0.134410
     13          6           0        0.627774   -1.698734   -0.141299
     14          1           0        2.437841    0.346167    0.315861
     15          1           0        2.701685   -0.282693   -1.307729
     16          1           0        2.299365   -1.989241    1.198217
     17          1           0        2.563451   -2.618578   -0.424063
     18          1           0        0.440591   -1.513139   -1.203899
     19          1           0        0.175004   -0.880226    0.427599
     20          1           0        0.118374   -2.626934    0.135857
     21          6           0       -4.033388   -1.786115   -0.198642
     22          6           0       -3.197195   -1.583044    0.904110
     23          6           0       -2.524702   -0.368798    1.071163
     24          6           0       -2.712197    0.625169    0.111913
     25          6           0       -3.538562    0.453146   -0.997510
     26          6           0       -4.201108   -0.769165   -1.144266
     27          1           0       -4.551933   -2.732504   -0.320530
     28          1           0       -3.065056   -2.371042    1.640075
     29          1           0       -1.871389   -0.184851    1.915416
     30          1           0       -3.650411    1.257416   -1.714488
     31          1           0       -4.849882   -0.924071   -2.001670
     32          7           0       -2.005524    1.914907    0.278021
     33          8           0       -2.187486    2.774759   -0.581154
     34          8           0       -1.283053    2.041529    1.264245
 ---------------------------------------------------------------------

 SCF Done:  E(RHF) =  -669.534877455     A.U. after   15 cycles
 E2 =    -0.2092570615D+01 EUMP2 =    -0.67162744806943D+03

 The electronic state is 1-A.
 Alpha  occ. eigenvalues --  -20.60817 -20.60809 -15.85855 -11.31158 -11.27752
 Alpha  occ. eigenvalues --  -11.27745 -11.27490 -11.26743 -11.26734 -11.21467
 Alpha  occ. eigenvalues --  -11.21251 -11.21103 -11.21033 -11.21028 -11.20780
 Alpha  occ. eigenvalues --   -1.59881  -1.39438  -1.19352  -1.08752  -1.08164
 Alpha  occ. eigenvalues --   -1.04758  -1.03315  -0.95787  -0.95586  -0.86807
 Alpha  occ. eigenvalues --   -0.86153  -0.82431  -0.79385  -0.77959  -0.77482
 Alpha  occ. eigenvalues --   -0.72078  -0.71200  -0.70480  -0.65008  -0.64825
 Alpha  occ. eigenvalues --   -0.64733  -0.62123  -0.60714  -0.59151  -0.57387
 Alpha  occ. eigenvalues --   -0.55291  -0.55070  -0.53244  -0.52854  -0.52415
 Alpha  occ. eigenvalues --   -0.52104  -0.49707  -0.48840  -0.48828  -0.47696
 Alpha  occ. eigenvalues --   -0.46411  -0.45516  -0.45419  -0.44820  -0.43561
 Alpha  occ. eigenvalues --   -0.37308  -0.36271
 Alpha virt. eigenvalues --    0.05049   0.11226   0.16534   0.21235   0.23125
 Alpha virt. eigenvalues --    0.24397   0.26753   0.27181   0.27664   0.28150
 Alpha virt. eigenvalues --    0.28775   0.30167   0.31584   0.31785   0.32136

 Mulliken charges:
               1
     1  C   -0.298087
     2  C   -0.300174
     3  C   -0.475649
     4  H    0.148967
     5  H    0.147452
     6  H    0.155797
     7  H    0.151986
     8  H    0.153710
     9  H    0.154719
    10  H    0.160473
    11  C   -0.300899
    12  C   -0.299120
    13  C   -0.477355
    14  H    0.158547
    15  H    0.149470
    16  H    0.150039
    17  H    0.149979
    18  H    0.155699
    19  H    0.158310
    20  H    0.152827
    21  C   -0.170714
    22  C   -0.216570
    23  C   -0.170119
    24  C    0.161271
    25  C   -0.170894
    26  C   -0.218689
    27  H    0.225506
    28  H    0.223284
    29  H    0.275004
    30  H    0.275403
    31  H    0.223204
    32  N    0.488654
    33  O   -0.459725
    34  O   -0.462305
 Sum of Mulliken charges =  -0.00000

 Dipole moment (field-independent basis, Debye):
    X=             -2.5517    Y=             -4.4536    Z=             -0.5857  Tot=              5.1661
 Quadrupole moment (field-independent basis, Debye-Ang):
   XX=            -82.3684   YY=           -100.6176   ZZ=            -90.6951
   XY=             10.3263   XZ=              3.1433   YZ=             -2.2092

 Normal termination of Gaussian 16 at Wed May  5 21:57:27 2021.
