 Gaussian 16, Revision A.03,
 Gaussian 16:  EM64L-G16RevA.03 25-Dec-2016

 -------------
 #p 6-31g* mp2
 -------------

 ------------------------------------------------------
 Input file generated by CHIRIPA (05-May-2021 14:51:08)
 ------------------------------------------------------
 Symbolic Z-matrix:
 Charge =  0 Multiplicity = 1

                         Standard orientation:
 ---------------------------------------------------------------------
 Center     Atomic      Atomic             Coordinates (Angstroms)
 Number     Number       Type             X           Y           Z
 ---------------------------------------------------------------------
      1          6           0        3.775711    0.408638    0.172400
      2          6           0        5.080781    0.094703   -0.559871
      3          6           0        6.008054    1.306200   -0.661028
      4          1           0        3.258051    1.225936   -0.348174
      5          1           0        4.008851    0.778295    1.180564
      6          1           0        4.845206   -0.275561   -1.565866
      7          1           0        5.595301   -0.722073   -0.037604
      8          1           0        6.272040    1.673583    0.335938
      9          1           0        5.517683    2.122632   -1.201007
     10          1           0        6.934970    1.059410   -1.188078
     11          6           0        2.838228   -0.792585    0.281570
     12          6           0        1.533158   -0.478650    1.013841
     13          6           0        0.605885   -1.690147    1.114998
     14          1           0        2.605088   -1.162242   -0.726594
     15          1           0        3.355888   -1.609883    0.802144
     16          1           0        1.018638    0.338125    0.491574
     17          1           0        1.768733   -0.108386    2.019836
     18          1           0        1.096256   -2.506579    1.654977
     19          1           0        0.341899   -2.057530    0.118032
     20          1           0       -0.321031   -1.443358    1.642048
     21          6           0       -3.671162    0.789431    0.079348
     22          6           0       -3.052092    2.135603   -0.298223
     23          6           0       -3.791747    3.321237    0.322240
     24          1           0       -4.722654    0.774530   -0.238595
     25          1           0       -3.674025    0.689062    1.173566
     26          1           0       -3.049132    2.232806   -1.391457
     27          1           0       -2.001898    2.147228    0.020483
     28          1           0       -3.783136    3.251651    1.414799
     29          1           0       -4.836321    3.337716   -0.005164
     30          1           0       -3.332472    4.273540    0.039315
     31          6           0       -2.942777   -0.405484   -0.533318
     32          6           0       -3.561847   -1.751656   -0.155746
     33          6           0       -2.822192   -2.937290   -0.776210
     34          1           0       -2.939914   -0.305116   -1.627536
     35          1           0       -1.891285   -0.390584   -0.215375
     36          1           0       -4.612041   -1.763281   -0.474453
     37          1           0       -3.564806   -1.848860    0.937487
     38          1           0       -1.777617   -2.953768   -0.448806
     39          1           0       -2.830803   -2.867704   -1.868769
     40          1           0       -3.281467   -3.889593   -0.493286
 ---------------------------------------------------------------------

 SCF Done:  E(RHF) =  -470.732705479     A.U. after   11 cycles
 E2 =    -0.1583659633D+01 EUMP2 =    -0.47231636511199D+03

 The electronic state is 1-A.
 Alpha  occ. eigenvalues --  -11.21698 -11.21629 -11.21594 -11.21538 -11.21457
 Alpha  occ. eigenvalues --  -11.21394 -11.21358 -11.21276 -11.21170 -11.21092
 Alpha  occ. eigenvalues --  -11.21063 -11.20943  -1.08492  -1.08382  -1.03609
 Alpha  occ. eigenvalues --   -1.03473  -0.96054  -0.95927  -0.87076  -0.86945
 Alpha  occ. eigenvalues --   -0.79697  -0.79520  -0.78296  -0.78201  -0.65202
 Alpha  occ. eigenvalues --   -0.64962  -0.61121  -0.60789  -0.59415  -0.59283
 Alpha  occ. eigenvalues --   -0.57711  -0.57508  -0.55389  -0.55186  -0.52751
 Alpha  occ. eigenvalues --   -0.52621  -0.52556  -0.52282  -0.50087  -0.49812
 Alpha  occ. eigenvalues --   -0.47996  -0.47831  -0.46794  -0.46449  -0.45886
 Alpha  occ. eigenvalues --   -0.45752  -0.45710  -0.45562  -0.43832  -0.43735
 Alpha virt. eigenvalues --    0.20481   0.23081   0.23693   0.24346   0.25952
 Alpha virt. eigenvalues --    0.26546   0.26771   0.27338   0.28212   0.29343
 Alpha virt. eigenvalues --    0.30541   0.30807   0.31733   0.32090   0.32435

 Mulliken charges:
               1
     1  C   -0.298415
     2  C   -0.299731
     3  C   -0.475755
     4  H    0.149881
     5  H    0.149585
     6  H    0.152105
     7  H    0.152000
     8  H    0.155203
     9  H    0.155282
    10  H    0.160378
    11  C   -0.298633
    12  C   -0.302176
    13  C   -0.481277
    14  H    0.150212
    15  H    0.149971
    16  H    0.153067
    17  H    0.152396
    18  H    0.156459
    19  H    0.159142
    20  H    0.161188
    21  C   -0.297863
    22  C   -0.299939
    23  C   -0.475632
    24  H    0.149630
    25  H    0.149020
    26  H    0.151785
    27  H    0.151653
    28  H    0.155211
    29  H    0.155237
    30  H    0.160126
    31  C   -0.306050
    32  C   -0.298582
    33  C   -0.482649
    34  H    0.148705
    35  H    0.158578
    36  H    0.151653
    37  H    0.151172
    38  H    0.163286
    39  H    0.154009
    40  H    0.159765
 Sum of Mulliken charges =  -0.00000

 Dipole moment (field-independent basis, Debye):
    X=              0.0674    Y=             -0.0098    Z=              0.0132  Tot=              0.0694
 Quadrupole moment (field-independent basis, Debye-Ang):
   XX=            -85.1463   YY=            -86.2892   ZZ=            -83.4968
   XY=             -0.4220   XZ=              1.1318   YZ=             -0.5584

 Normal termination of Gaussian 16 at Thu May  6 13:12:13 2021.
