 Gaussian 16, Revision A.03,
 Gaussian 16:  EM64L-G16RevA.03 25-Dec-2016

 -------------
 #p 6-31g* mp2
 -------------

 ------------------------------------------------------
 Input file generated by CHIRIPA (05-May-2021 14:55:25)
 ------------------------------------------------------
 Symbolic Z-matrix:
 Charge =  0 Multiplicity = 1

                         Standard orientation:
 ---------------------------------------------------------------------
 Center     Atomic      Atomic             Coordinates (Angstroms)
 Number     Number       Type             X           Y           Z
 ---------------------------------------------------------------------
      1          6           0        3.437457   -1.847623    0.228172
      2          6           0        3.792455   -0.998146   -0.824864
      3          6           0        3.273800    0.298127   -0.897131
      4          6           0        2.398789    0.714082    0.105179
      5          6           0        2.026032   -0.108692    1.166964
      6          6           0        2.556930   -1.400973    1.218978
      7          1           0        3.845116   -2.853049    0.276444
      8          1           0        4.476073   -1.342334   -1.595739
      9          1           0        3.531808    0.976572   -1.701222
     10          1           0        1.342347    0.262727    1.920649
     11          1           0        2.279470   -2.058507    2.037947
     12          7           0        1.843232    2.084274    0.039394
     13          8           0        1.074221    2.426825    0.934893
     14          8           0        2.187316    2.789735   -0.906422
     15          6           0       -3.699070   -0.237744    0.266147
     16          6           0       -4.886307    0.268361   -0.553799
     17          6           0       -5.900790    1.041104    0.289698
     18          1           0       -4.068870   -0.880083    1.077068
     19          1           0       -3.202851    0.617117    0.746122
     20          1           0       -5.379307   -0.587059   -1.033198
     21          1           0       -4.513622    0.909415   -1.362978
     22          1           0       -5.429799    1.912323    0.756332
     23          1           0       -6.300403    0.407346    1.087985
     24          1           0       -6.741177    1.393700   -0.316341
     25          6           0       -2.676231   -1.012195   -0.563162
     26          6           0       -1.488994   -1.518299    0.256782
     27          6           0       -0.474511   -2.291042   -0.586714
     28          1           0       -3.172450   -1.867055   -1.043137
     29          1           0       -2.306430   -0.369856   -1.374084
     30          1           0       -1.861678   -2.159353    1.065962
     31          1           0       -0.995993   -0.662879    0.736183
     32          1           0       -0.074898   -1.657284   -1.385000
     33          1           0       -0.945502   -3.162261   -1.053347
     34          1           0        0.365877   -2.643639    0.019326
 ---------------------------------------------------------------------

 SCF Done:  E(RHF) =  -669.534275519     A.U. after   15 cycles
 E2 =    -0.2094037391D+01 EUMP2 =    -0.67162831291072D+03

 The electronic state is 1-A.
 Alpha  occ. eigenvalues --  -20.60858 -20.60853 -15.85907 -11.31264 -11.27821
 Alpha  occ. eigenvalues --  -11.27800 -11.27543 -11.26833 -11.26809 -11.21632
 Alpha  occ. eigenvalues --  -11.21345 -11.21267 -11.21129 -11.21066 -11.20793
 Alpha  occ. eigenvalues --   -1.59931  -1.39485  -1.19434  -1.08831  -1.08283
 Alpha  occ. eigenvalues --   -1.04844  -1.03405  -0.95851  -0.95664  -0.86880
 Alpha  occ. eigenvalues --   -0.86231  -0.82498  -0.79492  -0.78092  -0.77546
 Alpha  occ. eigenvalues --   -0.72125  -0.71255  -0.70535  -0.65084  -0.64940
 Alpha  occ. eigenvalues --   -0.64816  -0.62194  -0.60818  -0.59305  -0.57512
 Alpha  occ. eigenvalues --   -0.55330  -0.55188  -0.53314  -0.52930  -0.52390
 Alpha  occ. eigenvalues --   -0.52155  -0.49767  -0.48883  -0.48881  -0.47811
 Alpha  occ. eigenvalues --   -0.46524  -0.45636  -0.45539  -0.44881  -0.43671
 Alpha  occ. eigenvalues --   -0.37358  -0.36341
 Alpha virt. eigenvalues --    0.04963   0.11082   0.16455   0.20999   0.23060
 Alpha virt. eigenvalues --    0.24420   0.26200   0.27000   0.27406   0.28378
 Alpha virt. eigenvalues --    0.28655   0.30376   0.31483   0.31746   0.32490

 Mulliken charges:
               1
     1  C   -0.168744
     2  C   -0.217447
     3  C   -0.171552
     4  C    0.158548
     5  C   -0.166715
     6  C   -0.220317
     7  H    0.226108
     8  H    0.223869
     9  H    0.275754
    10  H    0.275827
    11  H    0.224375
    12  N    0.488143
    13  O   -0.461203
    14  O   -0.459953
    15  C   -0.300035
    16  C   -0.299784
    17  C   -0.476115
    18  H    0.147182
    19  H    0.155868
    20  H    0.150051
    21  H    0.154172
    22  H    0.158072
    23  H    0.153610
    24  H    0.159820
    25  C   -0.297407
    26  C   -0.303749
    27  C   -0.475609
    28  H    0.148172
    29  H    0.152391
    30  H    0.148313
    31  H    0.152741
    32  H    0.156334
    33  H    0.152422
    34  H    0.156859
 Sum of Mulliken charges =  -0.00000

 Dipole moment (field-independent basis, Debye):
    X=              2.0539    Y=             -4.7286    Z=              0.2249  Tot=              5.1603
 Quadrupole moment (field-independent basis, Debye-Ang):
   XX=            -84.9628   YY=           -102.0476   ZZ=            -91.5928
   XY=             -9.3444   XZ=             -1.4417   YZ=             -1.6537

 Normal termination of Gaussian 16 at Thu May  6 09:34:31 2021.
