 Gaussian 16, Revision A.03,
 Gaussian 16:  EM64L-G16RevA.03 25-Dec-2016

 -------------
 #p 6-31g* mp2
 -------------

 ------------------------------------------------------
 Input file generated by CHIRIPA (05-May-2021 14:53:13)
 ------------------------------------------------------
 Symbolic Z-matrix:
 Charge =  0 Multiplicity = 1

                         Standard orientation:
 ---------------------------------------------------------------------
 Center     Atomic      Atomic             Coordinates (Angstroms)
 Number     Number       Type             X           Y           Z
 ---------------------------------------------------------------------
      1          6           0       -2.541655    0.918113   -0.082890
      2          6           0       -2.765559    2.094583   -1.033558
      3          6           0       -2.101124    3.382733   -0.546741
      4          1           0       -2.929439    1.179334    0.911258
      5          1           0       -1.461968    0.752446    0.036378
      6          1           0       -3.844520    2.257101   -1.152083
      7          1           0       -2.377369    1.830459   -2.025608
      8          1           0       -1.019801    3.244179   -0.446026
      9          1           0       -2.495288    3.673245    0.432463
     10          1           0       -2.273825    4.210803   -1.241244
     11          6           0       -3.199849   -0.376775   -0.555936
     12          6           0       -2.975945   -1.553246    0.394731
     13          6           0       -3.640380   -2.841396   -0.092086
     14          1           0       -4.279537   -0.211109   -0.675205
     15          1           0       -2.812065   -0.637996   -1.550085
     16          1           0       -3.364135   -1.289122    1.386781
     17          1           0       -1.896985   -1.715763    0.513256
     18          1           0       -3.246217   -3.131907   -1.071289
     19          1           0       -4.721703   -2.702842   -0.192801
     20          1           0       -3.467680   -3.669466    0.602417
     21          6           0        3.540963   -0.568388   -1.884289
     22          6           0        3.938983    0.421817   -0.980082
     23          6           0        3.227190    0.628418    0.205336
     24          6           0        2.117271   -0.176953    0.455832
     25          6           0        1.695787   -1.171605   -0.425251
     26          6           0        2.422606   -1.360543   -1.604482
     27          1           0        4.099737   -0.722020   -2.802746
     28          1           0        4.807113    1.038507   -1.194768
     29          1           0        3.513330    1.387869    0.922815
     30          1           0        0.826175   -1.770635   -0.183678
     31          1           0        2.111194   -2.130299   -2.304870
     32          7           0        1.355774    0.032416    1.707506
     33          8           0        0.381495   -0.690387    1.904923
     34          8           0        1.747611    0.915358    2.467450
 ---------------------------------------------------------------------

 SCF Done:  E(RHF) =  -669.535809968     A.U. after   15 cycles
 E2 =    -0.2092842366D+01 EUMP2 =    -0.67162865233406D+03

 The electronic state is 1-A.
 Alpha  occ. eigenvalues --  -20.60976 -20.60964 -15.85985 -11.31328 -11.27893
 Alpha  occ. eigenvalues --  -11.27878 -11.27617 -11.26894 -11.26884 -11.21148
 Alpha  occ. eigenvalues --  -11.20884 -11.20820 -11.20691 -11.20649 -11.20639
 Alpha  occ. eigenvalues --   -1.60025  -1.39583  -1.19493  -1.08893  -1.07857
 Alpha  occ. eigenvalues --   -1.04888  -1.03009  -0.95734  -0.95482  -0.86498
 Alpha  occ. eigenvalues --   -0.86289  -0.82570  -0.79044  -0.77766  -0.77488
 Alpha  occ. eigenvalues --   -0.72214  -0.71336  -0.70598  -0.65152  -0.64903
 Alpha  occ. eigenvalues --   -0.64492  -0.62238  -0.60422  -0.58838  -0.57070
 Alpha  occ. eigenvalues --   -0.55389  -0.54796  -0.53218  -0.52981  -0.52188
 Alpha  occ. eigenvalues --   -0.51893  -0.49446  -0.49005  -0.48968  -0.47350
 Alpha  occ. eigenvalues --   -0.46075  -0.45534  -0.45163  -0.44514  -0.43246
 Alpha  occ. eigenvalues --   -0.37468  -0.36487
 Alpha virt. eigenvalues --    0.04889   0.11108   0.16362   0.20656   0.23044
 Alpha virt. eigenvalues --    0.24423   0.26074   0.27479   0.27636   0.28409
 Alpha virt. eigenvalues --    0.28856   0.30704   0.31473   0.32112   0.32315

 Mulliken charges:
               1
     1  C   -0.296862
     2  C   -0.299578
     3  C   -0.474406
     4  H    0.154985
     5  H    0.150214
     6  H    0.150451
     7  H    0.147065
     8  H    0.153630
     9  H    0.158215
    10  H    0.157089
    11  C   -0.298514
    12  C   -0.306449
    13  C   -0.475683
    14  H    0.147450
    15  H    0.141546
    16  H    0.157265
    17  H    0.165758
    18  H    0.147774
    19  H    0.153916
    20  H    0.160361
    21  C   -0.170362
    22  C   -0.218557
    23  C   -0.170679
    24  C    0.156482
    25  C   -0.172434
    26  C   -0.219710
    27  H    0.226211
    28  H    0.224061
    29  H    0.276044
    30  H    0.279474
    31  H    0.224344
    32  N    0.490364
    33  O   -0.461257
    34  O   -0.458209
 Sum of Mulliken charges =  -0.00000

 Dipole moment (field-independent basis, Debye):
    X=              2.8558    Y=             -0.7146    Z=             -4.1891  Tot=              5.1200
 Quadrupole moment (field-independent basis, Debye-Ang):
   XX=            -81.4914   YY=            -93.5460   ZZ=            -98.8920
   XY=             -0.1650   XZ=             -8.5510   YZ=              1.5582

 Normal termination of Gaussian 16 at Wed May  5 23:24:15 2021.
