 Gaussian 16, Revision A.03,
 Gaussian 16:  EM64L-G16RevA.03 25-Dec-2016

 -------------
 #p 6-31g* mp2
 -------------

 ------------------------------------------------------
 Input file generated by CHIRIPA (05-May-2021 14:53:17)
 ------------------------------------------------------
 Symbolic Z-matrix:
 Charge =  0 Multiplicity = 1

                         Standard orientation:
 ---------------------------------------------------------------------
 Center     Atomic      Atomic             Coordinates (Angstroms)
 Number     Number       Type             X           Y           Z
 ---------------------------------------------------------------------
      1          6           0        3.918223   -0.033173    0.155970
      2          6           0        4.736461    1.154629   -0.351570
      3          6           0        5.824255    1.586639    0.632232
      4          1           0        3.459969    0.230187    1.119085
      5          1           0        4.593376   -0.877736    0.351611
      6          1           0        4.059791    1.996259   -0.547510
      7          1           0        5.192664    0.888478   -1.313681
      8          1           0        6.522284    0.764429    0.820188
      9          1           0        5.382973    1.878504    1.590713
     10          1           0        6.396994    2.437106    0.249433
     11          6           0        2.826788   -0.476720   -0.816534
     12          6           0        2.008549   -1.664522   -0.308994
     13          6           0        0.920755   -2.096532   -1.292796
     14          1           0        2.151634    0.367843   -1.012175
     15          1           0        3.285041   -0.740080   -1.779649
     16          1           0        1.552346   -1.398371    0.653117
     17          1           0        2.685220   -2.506152   -0.113054
     18          1           0        1.362037   -2.388397   -2.251277
     19          1           0        0.222727   -1.274322   -1.480752
     20          1           0        0.348016   -2.946999   -0.909997
     21          6           0       -1.806124   -2.029381    1.102307
     22          6           0       -1.274059   -0.843358    1.618812
     23          6           0       -1.725648    0.397078    1.158450
     24          6           0       -2.714880    0.414626    0.176412
     25          6           0       -3.264678   -0.749641   -0.357905
     26          6           0       -2.797987   -1.978826    0.117333
     27          1           0       -1.449452   -2.988612    1.465705
     28          1           0       -0.503670   -0.879584    2.383819
     29          1           0       -1.331112    1.330607    1.540919
     30          1           0       -4.031650   -0.681544   -1.119833
     31          1           0       -3.213017   -2.898298   -0.285614
     32          7           0       -3.200951    1.721864   -0.318827
     33          8           0       -4.073301    1.710319   -1.184570
     34          8           0       -2.700380    2.733271    0.168124
 ---------------------------------------------------------------------

 SCF Done:  E(RHF) =  -669.534689321     A.U. after   15 cycles
 E2 =    -0.2093607901D+01 EUMP2 =    -0.67162829722261D+03

 The electronic state is 1-A.
 Alpha  occ. eigenvalues --  -20.60818 -20.60813 -15.85874 -11.31255 -11.27831
 Alpha  occ. eigenvalues --  -11.27816 -11.27550 -11.26826 -11.26808 -11.22030
 Alpha  occ. eigenvalues --  -11.21804 -11.21716 -11.21658 -11.21395 -11.21251
 Alpha  occ. eigenvalues --   -1.59895  -1.39447  -1.19431  -1.08844  -1.08718
 Alpha  occ. eigenvalues --   -1.04833  -1.03824  -0.96272  -0.95646  -0.87284
 Alpha  occ. eigenvalues --   -0.86230  -0.82482  -0.79901  -0.78558  -0.77527
 Alpha  occ. eigenvalues --   -0.72090  -0.71220  -0.70537  -0.65399  -0.65078
 Alpha  occ. eigenvalues --   -0.64825  -0.62186  -0.61241  -0.59671  -0.57898
 Alpha  occ. eigenvalues --   -0.55627  -0.55332  -0.53252  -0.52931  -0.52751
 Alpha  occ. eigenvalues --   -0.52688  -0.50166  -0.48852  -0.48844  -0.48213
 Alpha  occ. eigenvalues --   -0.46936  -0.46101  -0.46014  -0.44850  -0.44098
 Alpha  occ. eigenvalues --   -0.37329  -0.36406
 Alpha virt. eigenvalues --    0.04989   0.11117   0.16427   0.20510   0.22788
 Alpha virt. eigenvalues --    0.24177   0.25529   0.26765   0.27006   0.28145
 Alpha virt. eigenvalues --    0.28570   0.30292   0.31258   0.31793   0.32260

 Mulliken charges:
               1
     1  C   -0.297545
     2  C   -0.300321
     3  C   -0.475797
     4  H    0.145593
     5  H    0.149228
     6  H    0.154356
     7  H    0.152975
     8  H    0.154775
     9  H    0.154548
    10  H    0.161909
    11  C   -0.299173
    12  C   -0.300592
    13  C   -0.472290
    14  H    0.152557
    15  H    0.151488
    16  H    0.144588
    17  H    0.150327
    18  H    0.155233
    19  H    0.161435
    20  H    0.150633
    21  C   -0.166640
    22  C   -0.216495
    23  C   -0.172948
    24  C    0.157920
    25  C   -0.171132
    26  C   -0.217244
    27  H    0.226044
    28  H    0.223620
    29  H    0.275636
    30  H    0.275984
    31  H    0.223830
    32  N    0.488086
    33  O   -0.460095
    34  O   -0.460494
 Sum of Mulliken charges =  -0.00000

 Dipole moment (field-independent basis, Debye):
    X=              1.6718    Y=             -4.5632    Z=              1.6986  Tot=              5.1481
 Quadrupole moment (field-independent basis, Debye-Ang):
   XX=           -102.6625   YY=            -97.9181   ZZ=            -92.8729
   XY=             14.5702   XZ=             -3.1579   YZ=              1.5277

 Normal termination of Gaussian 16 at Thu May  6 15:37:01 2021.
