 Gaussian 16, Revision A.03,
 Gaussian 16:  EM64L-G16RevA.03 25-Dec-2016

 -------------
 #p 6-31g* mp2
 -------------

 ------------------------------------------------------
 Input file generated by CHIRIPA (05-May-2021 14:57:22)
 ------------------------------------------------------
 Symbolic Z-matrix:
 Charge =  0 Multiplicity = 1

                         Standard orientation:
 ---------------------------------------------------------------------
 Center     Atomic      Atomic             Coordinates (Angstroms)
 Number     Number       Type             X           Y           Z
 ---------------------------------------------------------------------
      1          6           0       -0.254647   -2.334097    1.302124
      2          6           0       -0.475134   -2.387516   -0.078112
      3          6           0       -1.339922   -1.478383   -0.694690
      4          6           0       -1.970472   -0.524665    0.102880
      5          6           0       -1.771325   -0.445909    1.480351
      6          6           0       -0.902305   -1.365172    2.075588
      7          1           0        0.418784   -3.044269    1.772807
      8          1           0        0.026483   -3.138919   -0.681286
      9          1           0       -1.528729   -1.497208   -1.761186
     10          1           0       -2.285714    0.314476    2.055362
     11          1           0       -0.732971   -1.321325    3.147711
     12          7           0       -2.888225    0.443156   -0.538566
     13          8           0       -3.431624    1.273801    0.186267
     14          8           0       -3.046782    0.352763   -1.754019
     15          6           0        0.945370    2.897830    0.629280
     16          6           0        0.668600    2.485698   -0.678415
     17          6           0        1.147640    1.261145   -1.153325
     18          6           0        1.903696    0.470165   -0.289601
     19          6           0        2.196347    0.853097    1.018454
     20          6           0        1.707017    2.081654    1.472055
     21          1           0        0.569243    3.850647    0.989925
     22          1           0        0.077353    3.117499   -1.335149
     23          1           0        0.948286    0.917657   -2.161141
     24          1           0        2.788452    0.201655    1.649684
     25          1           0        1.923523    2.399160    2.488106
     26          7           0        2.416281   -0.828333   -0.781088
     27          8           0        3.080069   -1.506925   -0.000360
     28          8           0        2.144551   -1.142917   -1.937736
 ---------------------------------------------------------------------

 SCF Done:  E(RHF) =  -868.340040347     A.U. after   16 cycles
 E2 =    -0.2606259114D+01 EUMP2 =    -0.87094629946059D+03

 The electronic state is 1-A.
 Alpha  occ. eigenvalues --  -20.61314 -20.61309 -20.60918 -20.60912 -15.86295
 Alpha  occ. eigenvalues --  -15.85953 -11.31327 -11.31053 -11.27944 -11.27835
 Alpha  occ. eigenvalues --  -11.27657 -11.27539 -11.27512 -11.27192 -11.26859
 Alpha  occ. eigenvalues --  -11.26717 -11.26607 -11.26321  -1.60364  -1.59999
 Alpha  occ. eigenvalues --   -1.39935  -1.39559  -1.19512  -1.19185  -1.08936
 Alpha  occ. eigenvalues --   -1.08630  -1.04858  -1.04550  -0.95834  -0.95507
 Alpha  occ. eigenvalues --   -0.86258  -0.85954  -0.82693  -0.82339  -0.77784
 Alpha  occ. eigenvalues --   -0.77435  -0.72568  -0.72180  -0.71726  -0.71306
 Alpha  occ. eigenvalues --   -0.70596  -0.70243  -0.65147  -0.64843  -0.64829
 Alpha  occ. eigenvalues --   -0.64498  -0.62210  -0.61876  -0.55348  -0.54993
 Alpha  occ. eigenvalues --   -0.53860  -0.52930  -0.52598  -0.52220  -0.49342
 Alpha  occ. eigenvalues --   -0.49289  -0.48950  -0.48908  -0.45458  -0.45025
 Alpha  occ. eigenvalues --   -0.37598  -0.37484  -0.36426  -0.35628
 Alpha virt. eigenvalues --    0.04668   0.05049   0.11114   0.11611   0.16194
 Alpha virt. eigenvalues --    0.16691   0.21216   0.21989   0.27000   0.27756
 Alpha virt. eigenvalues --    0.28367   0.28688   0.30946   0.31458   0.32219

 Mulliken charges:
               1
     1  C   -0.170660
     2  C   -0.229225
     3  C   -0.174343
     4  C    0.160649
     5  C   -0.169741
     6  C   -0.219813
     7  H    0.232910
     8  H    0.240297
     9  H    0.277296
    10  H    0.271246
    11  H    0.220068
    12  N    0.487357
    13  O   -0.464308
    14  O   -0.462785
    15  C   -0.168822
    16  C   -0.221945
    17  C   -0.172898
    18  C    0.162488
    19  C   -0.168952
    20  C   -0.221223
    21  H    0.229083
    22  H    0.232465
    23  H    0.277057
    24  H    0.270589
    25  H    0.221431
    26  N    0.490477
    27  O   -0.465640
    28  O   -0.463057
 Sum of Mulliken charges =  -0.00000

 Dipole moment (field-independent basis, Debye):
    X=              1.4859    Y=              1.1219    Z=              3.8863  Tot=              4.3093
 Quadrupole moment (field-independent basis, Debye-Ang):
   XX=           -125.6616   YY=            -96.0723   ZZ=            -97.8619
   XY=             12.1498   XZ=              1.0480   YZ=             -0.8174

 Normal termination of Gaussian 16 at Thu May  6 06:34:45 2021.
