 Gaussian 16, Revision A.03,
 Gaussian 16:  EM64L-G16RevA.03 25-Dec-2016

 -------------
 #p 6-31g* mp2
 -------------

 ------------------------------------------------------
 Input file generated by CHIRIPA (05-May-2021 14:57:23)
 ------------------------------------------------------
 Symbolic Z-matrix:
 Charge =  0 Multiplicity = 1

                         Standard orientation:
 ---------------------------------------------------------------------
 Center     Atomic      Atomic             Coordinates (Angstroms)
 Number     Number       Type             X           Y           Z
 ---------------------------------------------------------------------
      1          6           0       -0.843343   -2.373317    0.208781
      2          6           0       -1.405797   -1.986739   -1.012171
      3          6           0       -2.350133   -0.957160   -1.064567
      4          6           0       -2.710659   -0.332976    0.128624
      5          6           0       -2.168232   -0.695411    1.360575
      6          6           0       -1.225681   -1.727558    1.389176
      7          1           0       -0.110453   -3.174116    0.240242
      8          1           0       -1.110755   -2.486469   -1.930466
      9          1           0       -2.801414   -0.637835   -1.996122
     10          1           0       -2.482233   -0.178542    2.259279
     11          1           0       -0.790533   -2.025678    2.338816
     12          7           0       -3.709440    0.758353    0.085749
     13          8           0       -4.010273    1.292462    1.151050
     14          8           0       -4.172540    1.058963   -1.012344
     15          6           0        3.708298   -1.721665    0.012916
     16          6           0        2.504717   -1.604039   -0.689992
     17          6           0        1.852001   -0.370911   -0.778888
     18          6           0        2.433686    0.728864   -0.150056
     19          6           0        3.631717    0.643669    0.557582
     20          6           0        4.266972   -0.599414    0.633366
     21          1           0        4.208562   -2.683456    0.076879
     22          1           0        2.068527   -2.473896   -1.172828
     23          1           0        0.919236   -0.251613   -1.316602
     24          1           0        4.042107    1.528672    1.028505
     25          1           0        5.201585   -0.687805    1.179929
     26          7           0        1.751927    2.039591   -0.237226
     27          8           0        2.285014    2.993393    0.325549
     28          8           0        0.697386    2.088318   -0.866675
 ---------------------------------------------------------------------

 SCF Done:  E(RHF) =  -868.334827176     A.U. after   16 cycles
 E2 =    -0.2604138348D+01 EUMP2 =    -0.87093896552410D+03

 The electronic state is 1-A.
 Alpha  occ. eigenvalues --  -20.60962 -20.60957 -20.60541 -20.60535 -15.86024
 Alpha  occ. eigenvalues --  -15.85612 -11.31519 -11.31260 -11.28157 -11.28107
 Alpha  occ. eigenvalues --  -11.28007 -11.27957 -11.27895 -11.27810 -11.27284
 Alpha  occ. eigenvalues --  -11.27178 -11.27057 -11.26949  -1.60035  -1.59601
 Alpha  occ. eigenvalues --   -1.39584  -1.39152  -1.19775  -1.19511  -1.09143
 Alpha  occ. eigenvalues --   -1.08881  -1.05212  -1.04969  -0.95937  -0.95647
 Alpha  occ. eigenvalues --   -0.86601  -0.86369  -0.82789  -0.82471  -0.77796
 Alpha  occ. eigenvalues --   -0.77440  -0.72240  -0.71840  -0.71368  -0.70919
 Alpha  occ. eigenvalues --   -0.70873  -0.70693  -0.65430  -0.65280  -0.65162
 Alpha  occ. eigenvalues --   -0.64981  -0.62586  -0.62290  -0.55752  -0.55551
 Alpha  occ. eigenvalues --   -0.53820  -0.53352  -0.53074  -0.52864  -0.49007
 Alpha  occ. eigenvalues --   -0.48981  -0.48615  -0.48564  -0.44957  -0.44500
 Alpha  occ. eigenvalues --   -0.37968  -0.37793  -0.36596  -0.36282
 Alpha virt. eigenvalues --    0.04551   0.05319   0.10762   0.10944   0.15893
 Alpha virt. eigenvalues --    0.16774   0.19451   0.22017   0.25601   0.27071
 Alpha virt. eigenvalues --    0.28160   0.28923   0.30483   0.31027   0.32128

 Mulliken charges:
               1
     1  C   -0.166486
     2  C   -0.235708
     3  C   -0.164782
     4  C    0.165182
     5  C   -0.167543
     6  C   -0.218462
     7  H    0.219314
     8  H    0.219321
     9  H    0.278901
    10  H    0.278531
    11  H    0.223798
    12  N    0.489729
    13  O   -0.458669
    14  O   -0.458053
    15  C   -0.172005
    16  C   -0.225466
    17  C   -0.163971
    18  C    0.155696
    19  C   -0.169899
    20  C   -0.219974
    21  H    0.224422
    22  H    0.212812
    23  H    0.280899
    24  H    0.277253
    25  H    0.224277
    26  N    0.487902
    27  O   -0.458916
    28  O   -0.458101
 Sum of Mulliken charges =  -0.00000

 Dipole moment (field-independent basis, Debye):
    X=              5.6674    Y=             -8.1101    Z=              0.5798  Tot=              9.9111
 Quadrupole moment (field-independent basis, Debye-Ang):
   XX=           -110.1171   YY=           -109.9119   ZZ=            -99.0281
   XY=              1.5290   XZ=              3.2399   YZ=              2.0594

 Normal termination of Gaussian 16 at Thu May  6 11:17:50 2021.
