 Gaussian 16, Revision A.03,
 Gaussian 16:  EM64L-G16RevA.03 25-Dec-2016

 -------------
 #p 6-31g* mp2
 -------------

 ------------------------------------------------------
 Input file generated by CHIRIPA (05-May-2021 14:53:17)
 ------------------------------------------------------
 Symbolic Z-matrix:
 Charge =  0 Multiplicity = 1

                         Standard orientation:
 ---------------------------------------------------------------------
 Center     Atomic      Atomic             Coordinates (Angstroms)
 Number     Number       Type             X           Y           Z
 ---------------------------------------------------------------------
      1          6           0       -2.009904    1.127928   -0.009759
      2          6           0       -1.892239    2.620557   -0.319916
      3          6           0       -0.502017    3.179711   -0.015904
      4          1           0       -1.768934    0.959777    1.048827
      5          1           0       -1.257373    0.578987   -0.592644
      6          1           0       -2.645686    3.166374    0.262336
      7          1           0       -2.133704    2.785198   -1.377840
      8          1           0        0.259544    2.661222   -0.607340
      9          1           0       -0.255348    3.044564    1.042156
     10          1           0       -0.440141    4.248165   -0.244898
     11          6           0       -3.393926    0.554365   -0.308486
     12          6           0       -3.511591   -0.938265    0.001671
     13          6           0       -4.901814   -1.497418   -0.302341
     14          1           0       -4.146458    1.103306    0.274398
     15          1           0       -3.634896    0.722515   -1.367072
     16          1           0       -3.270126   -1.102905    1.059595
     17          1           0       -2.758144   -1.484081   -0.580581
     18          1           0       -5.148483   -1.362272   -1.360401
     19          1           0       -5.663374   -0.978930    0.289095
     20          1           0       -4.963689   -2.565872   -0.073347
     21          6           0        4.031192    0.929398   -0.277142
     22          6           0        3.026794    1.263286    0.637310
     23          6           0        1.958098    0.391876    0.867708
     24          6           0        1.925222   -0.810527    0.163126
     25          6           0        2.910700   -1.171578   -0.754351
     26          6           0        3.970049   -0.284827   -0.968834
     27          1           0        4.857750    1.612289   -0.449939
     28          1           0        3.071686    2.205588    1.175915
     29          1           0        1.167088    0.625310    1.570012
     30          1           0        2.838620   -2.118085   -1.276220
     31          1           0        4.748669   -0.546755   -1.679600
     32          7           0        0.798790   -1.741170    0.398615
     33          8           0        0.792898   -2.794432   -0.234822
     34          8           0       -0.056888   -1.399723    1.212167
 ---------------------------------------------------------------------

 SCF Done:  E(RHF) =  -669.535115346     A.U. after   15 cycles
 E2 =    -0.2094687318D+01 EUMP2 =    -0.67162980266402D+03

 The electronic state is 1-A.
 Alpha  occ. eigenvalues --  -20.60917 -20.60871 -15.85909 -11.31230 -11.27805
 Alpha  occ. eigenvalues --  -11.27780 -11.27537 -11.26802 -11.26775 -11.21318
 Alpha  occ. eigenvalues --  -11.21187 -11.20675 -11.20554 -11.20291 -11.20073
 Alpha  occ. eigenvalues --   -1.59953  -1.39510  -1.19408  -1.08810  -1.07729
 Alpha  occ. eigenvalues --   -1.04799  -1.02886  -0.95654  -0.95403  -0.86442
 Alpha  occ. eigenvalues --   -0.86196  -0.82489  -0.78994  -0.77690  -0.77260
 Alpha  occ. eigenvalues --   -0.72136  -0.71259  -0.70513  -0.65060  -0.64796
 Alpha  occ. eigenvalues --   -0.64373  -0.62151  -0.60297  -0.58824  -0.56968
 Alpha  occ. eigenvalues --   -0.55304  -0.54728  -0.53158  -0.52883  -0.52128
 Alpha  occ. eigenvalues --   -0.51817  -0.49400  -0.48929  -0.48899  -0.47243
 Alpha  occ. eigenvalues --   -0.45999  -0.45519  -0.44845  -0.44283  -0.43102
 Alpha  occ. eigenvalues --   -0.37389  -0.36345
 Alpha virt. eigenvalues --    0.04959   0.11202   0.16392   0.20709   0.23323
 Alpha virt. eigenvalues --    0.24525   0.26037   0.27337   0.27640   0.28536
 Alpha virt. eigenvalues --    0.29530   0.30671   0.31580   0.32123   0.32572

 Mulliken charges:
               1
     1  C   -0.294632
     2  C   -0.298977
     3  C   -0.479109
     4  H    0.157447
     5  H    0.144564
     6  H    0.151041
     7  H    0.150968
     8  H    0.157003
     9  H    0.145244
    10  H    0.158567
    11  C   -0.300102
    12  C   -0.297608
    13  C   -0.476393
    14  H    0.145368
    15  H    0.145107
    16  H    0.162101
    17  H    0.159959
    18  H    0.150605
    19  H    0.150439
    20  H    0.161465
    21  C   -0.170949
    22  C   -0.218939
    23  C   -0.167426
    24  C    0.155503
    25  C   -0.171149
    26  C   -0.218957
    27  H    0.225964
    28  H    0.225046
    29  H    0.277788
    30  H    0.275512
    31  H    0.223524
    32  N    0.488621
    33  O   -0.460387
    34  O   -0.457207
 Sum of Mulliken charges =  -0.00000

 Dipole moment (field-independent basis, Debye):
    X=              4.0884    Y=              3.0624    Z=             -0.7267  Tot=              5.1596
 Quadrupole moment (field-independent basis, Debye-Ang):
   XX=            -80.7106   YY=            -99.2334   ZZ=            -92.4512
   XY=              1.5226   XZ=             -3.2392   YZ=              3.7212

 Normal termination of Gaussian 16 at Wed May  5 18:48:13 2021.
