 Gaussian 16, Revision A.03,
 Gaussian 16:  EM64L-G16RevA.03 25-Dec-2016

 -------------
 #p 6-31g* mp2
 -------------

 ------------------------------------------------------
 Input file generated by CHIRIPA (05-May-2021 14:55:19)
 ------------------------------------------------------
 Symbolic Z-matrix:
 Charge =  0 Multiplicity = 1

                         Standard orientation:
 ---------------------------------------------------------------------
 Center     Atomic      Atomic             Coordinates (Angstroms)
 Number     Number       Type             X           Y           Z
 ---------------------------------------------------------------------
      1          6           0        1.474755    1.535110    0.756671
      2          6           0        1.523475    0.993096   -0.531882
      3          6           0        2.549973    0.116140   -0.894924
      4          6           0        3.515628   -0.198581    0.059933
      5          6           0        3.494406    0.325035    1.351702
      6          6           0        2.458642    1.199941    1.692700
      7          1           0        0.673748    2.215554    1.030129
      8          1           0        0.760728    1.251616   -1.260874
      9          1           0        2.611796   -0.317946   -1.885461
     10          1           0        4.268994    0.048602    2.056696
     11          1           0        2.423332    1.619359    2.694142
     12          7           0        4.607240   -1.125890   -0.312735
     13          8           0        5.445958   -1.387348    0.546817
     14          8           0        4.603459   -1.573697   -1.457327
     15          6           0       -4.597699   -0.624846   -0.249237
     16          6           0       -5.778321   -0.865319    0.692193
     17          6           0       -6.423995   -2.236790    0.492285
     18          1           0       -4.939909   -0.722602   -1.288602
     19          1           0       -3.846454   -1.411215   -0.092237
     20          1           0       -6.526497   -0.077941    0.534440
     21          1           0       -5.433303   -0.766790    1.729434
     22          1           0       -5.695853   -3.034908    0.669538
     23          1           0       -6.795260   -2.342146   -0.532246
     24          1           0       -7.265730   -2.387650    1.175353
     25          6           0       -3.941737    0.741964   -0.061428
     26          6           0       -2.761115    0.982437   -1.002857
     27          6           0       -2.115440    2.353909   -0.802950
     28          1           0       -4.692982    1.528334   -0.218427
     29          1           0       -3.599526    0.839721    0.977938
     30          1           0       -3.106133    0.883908   -2.040099
     31          1           0       -2.012938    0.195060   -0.845104
     32          1           0       -1.744175    2.459265    0.221581
     33          1           0       -2.843583    3.152027   -0.980203
     34          1           0       -1.273705    2.504768   -1.486018
 ---------------------------------------------------------------------

 SCF Done:  E(RHF) =  -669.535169473     A.U. after   15 cycles
 E2 =    -0.2091787851D+01 EUMP2 =    -0.67162695732384D+03

 The electronic state is 1-A.
 Alpha  occ. eigenvalues --  -20.60725 -20.60720 -15.85778 -11.31131 -11.27704
 Alpha  occ. eigenvalues --  -11.27691 -11.27408 -11.26710 -11.26659 -11.22633
 Alpha  occ. eigenvalues --  -11.22471 -11.22188 -11.22089 -11.21965 -11.21449
 Alpha  occ. eigenvalues --   -1.59801  -1.39355  -1.19300  -1.09188  -1.08693
 Alpha  occ. eigenvalues --   -1.04707  -1.04333  -0.96810  -0.95530  -0.87830
 Alpha  occ. eigenvalues --   -0.86094  -0.82368  -0.80410  -0.78936  -0.77421
 Alpha  occ. eigenvalues --   -0.71997  -0.71125  -0.70417  -0.65831  -0.64949
 Alpha  occ. eigenvalues --   -0.64747  -0.62145  -0.61674  -0.60178  -0.58388
 Alpha  occ. eigenvalues --   -0.56123  -0.55171  -0.53561  -0.53255  -0.53029
 Alpha  occ. eigenvalues --   -0.52677  -0.50723  -0.48779  -0.48752  -0.48689
 Alpha  occ. eigenvalues --   -0.47419  -0.46492  -0.46375  -0.44763  -0.44565
 Alpha  occ. eigenvalues --   -0.37274  -0.36307
 Alpha virt. eigenvalues --    0.05113   0.11276   0.16591   0.19418   0.22571
 Alpha virt. eigenvalues --    0.23940   0.24967   0.25904   0.26366   0.27456
 Alpha virt. eigenvalues --    0.29120   0.29907   0.31227   0.31560   0.32268

 Mulliken charges:
               1
     1  C   -0.175126
     2  C   -0.224134
     3  C   -0.172056
     4  C    0.158644
     5  C   -0.171062
     6  C   -0.219039
     7  H    0.229609
     8  H    0.231109
     9  H    0.275700
    10  H    0.275304
    11  H    0.223204
    12  N    0.488000
    13  O   -0.460650
    14  O   -0.460567
    15  C   -0.299289
    16  C   -0.300209
    17  C   -0.476215
    18  H    0.151144
    19  H    0.151404
    20  H    0.152490
    21  H    0.152176
    22  H    0.156404
    23  H    0.156038
    24  H    0.161658
    25  C   -0.298490
    26  C   -0.303161
    27  C   -0.482067
    28  H    0.151496
    29  H    0.149334
    30  H    0.156151
    31  H    0.153460
    32  H    0.150598
    33  H    0.163633
    34  H    0.154509
 Sum of Mulliken charges =  -0.00000

 Dipole moment (field-independent basis, Debye):
    X=             -4.1045    Y=              3.2335    Z=              1.2994  Tot=              5.3843
 Quadrupole moment (field-independent basis, Debye-Ang):
   XX=           -120.8315   YY=            -97.5126   ZZ=            -89.9882
   XY=             11.7315   XZ=              6.9974   YZ=              0.0880

 Normal termination of Gaussian 16 at Wed May  5 17:19:39 2021.
