 Gaussian 16, Revision A.03,
 Gaussian 16:  EM64L-G16RevA.03 25-Dec-2016

 -------------
 #p 6-31g* mp2
 -------------

 ------------------------------------------------------
 Input file generated by CHIRIPA (05-May-2021 14:51:07)
 ------------------------------------------------------
 Symbolic Z-matrix:
 Charge =  0 Multiplicity = 1

                         Standard orientation:
 ---------------------------------------------------------------------
 Center     Atomic      Atomic             Coordinates (Angstroms)
 Number     Number       Type             X           Y           Z
 ---------------------------------------------------------------------
      1          6           0       -2.980245   -0.598310   -0.340935
      2          6           0       -2.434838   -1.646941    0.629060
      3          6           0       -1.767538   -2.822622   -0.085280
      4          1           0       -3.701867   -1.074939   -1.018454
      5          1           0       -2.158657   -0.228037   -0.969652
      6          1           0       -3.256948   -2.014123    1.256697
      7          1           0       -1.714573   -1.167720    1.304472
      8          1           0       -0.929145   -2.475566   -0.697856
      9          1           0       -2.480284   -3.326777   -0.745903
     10          1           0       -1.384813   -3.560254    0.626956
     11          6           0       -3.650286    0.583226    0.358167
     12          6           0       -4.195693    1.631857   -0.611828
     13          6           0       -4.862992    2.807538    0.102512
     14          1           0       -4.471874    0.212953    0.986885
     15          1           0       -2.928663    1.059855    1.035686
     16          1           0       -4.915958    1.152636   -1.287240
     17          1           0       -3.373582    1.999039   -1.239465
     18          1           0       -4.150247    3.311693    0.763135
     19          1           0       -5.701385    2.460482    0.715088
     20          1           0       -5.245718    3.545170   -0.609724
     21          6           0        3.196208   -0.675101   -0.329951
     22          6           0        2.137412   -1.508914    0.392332
     23          6           0        1.910446   -2.871876   -0.262353
     24          1           0        2.892281   -0.534803   -1.376320
     25          1           0        4.141669   -1.234601   -0.351413
     26          1           0        1.194602   -0.947424    0.413640
     27          1           0        2.443802   -1.647081    1.437154
     28          1           0        2.837208   -3.454673   -0.270042
     29          1           0        1.580910   -2.751041   -1.299371
     30          1           0        1.149721   -3.451291    0.270035
     31          6           0        3.434322    0.690185    0.312718
     32          6           0        4.493118    1.523997   -0.409564
     33          6           0        4.720085    2.886960    0.245120
     34          1           0        2.488861    1.249685    0.334180
     35          1           0        3.738250    0.549887    1.359088
     36          1           0        4.186728    1.662165   -1.454386
     37          1           0        5.435928    0.962508   -0.430872
     38          1           0        5.049620    2.766125    1.282139
     39          1           0        3.793322    3.469757    0.252810
     40          1           0        5.480809    3.466375   -0.287267
 ---------------------------------------------------------------------

 SCF Done:  E(RHF) =  -470.732129747     A.U. after   11 cycles
 E2 =    -0.1583501192D+01 EUMP2 =    -0.47231563093895D+03

 The electronic state is 1-A.
 Alpha  occ. eigenvalues --  -11.21621 -11.21617 -11.21614 -11.21587 -11.21425
 Alpha  occ. eigenvalues --  -11.21419 -11.21365 -11.21360 -11.21089 -11.21083
 Alpha  occ. eigenvalues --  -11.20979 -11.20973  -1.08463  -1.08421  -1.03601
 Alpha  occ. eigenvalues --   -1.03467  -0.96095  -0.95870  -0.87134  -0.86865
 Alpha  occ. eigenvalues --   -0.79679  -0.79515  -0.78268  -0.78242  -0.65192
 Alpha  occ. eigenvalues --   -0.64982  -0.61229  -0.60713  -0.59536  -0.59179
 Alpha  occ. eigenvalues --   -0.57662  -0.57525  -0.55539  -0.54978  -0.52937
 Alpha  occ. eigenvalues --   -0.52519  -0.52381  -0.52283  -0.50107  -0.49681
 Alpha  occ. eigenvalues --   -0.47979  -0.47834  -0.46732  -0.46505  -0.45843
 Alpha  occ. eigenvalues --   -0.45763  -0.45731  -0.45685  -0.43924  -0.43621
 Alpha virt. eigenvalues --    0.20623   0.23198   0.23521   0.25223   0.26014
 Alpha virt. eigenvalues --    0.26778   0.27000   0.27374   0.28040   0.28739
 Alpha virt. eigenvalues --    0.29633   0.31036   0.31313   0.32147   0.32571

 Mulliken charges:
               1
     1  C   -0.298575
     2  C   -0.301261
     3  C   -0.480010
     4  H    0.149884
     5  H    0.148744
     6  H    0.151818
     7  H    0.152912
     8  H    0.163756
     9  H    0.154463
    10  H    0.159149
    11  C   -0.298268
    12  C   -0.299618
    13  C   -0.475711
    14  H    0.149715
    15  H    0.149544
    16  H    0.152015
    17  H    0.151661
    18  H    0.155176
    19  H    0.155270
    20  H    0.160273
    21  C   -0.298022
    22  C   -0.302978
    23  C   -0.479678
    24  H    0.149353
    25  H    0.149923
    26  H    0.153229
    27  H    0.152093
    28  H    0.154976
    29  H    0.153569
    30  H    0.166845
    31  C   -0.298172
    32  C   -0.299656
    33  C   -0.475700
    34  H    0.148933
    35  H    0.149739
    36  H    0.151909
    37  H    0.152073
    38  H    0.155228
    39  H    0.155053
    40  H    0.160346
 Sum of Mulliken charges =  -0.00000

 Dipole moment (field-independent basis, Debye):
    X=              0.0002    Y=             -0.0231    Z=              0.0010  Tot=              0.0231
 Quadrupole moment (field-independent basis, Debye-Ang):
   XX=            -83.8625   YY=            -86.2080   ZZ=            -84.7118
   XY=              0.3351   XZ=              0.5839   YZ=             -0.9378

 Normal termination of Gaussian 16 at Wed May  5 15:00:51 2021.
