 Gaussian 16, Revision A.03,
 Gaussian 16:  EM64L-G16RevA.03 25-Dec-2016

 -------------
 #p 6-31g* mp2
 -------------

 ------------------------------------------------------
 Input file generated by CHIRIPA (05-May-2021 14:53:13)
 ------------------------------------------------------
 Symbolic Z-matrix:
 Charge =  0 Multiplicity = 1

                         Standard orientation:
 ---------------------------------------------------------------------
 Center     Atomic      Atomic             Coordinates (Angstroms)
 Number     Number       Type             X           Y           Z
 ---------------------------------------------------------------------
      1          6           0       -3.623717    0.776099    0.221872
      2          6           0       -2.812100    1.855931   -0.494525
      3          6           0       -3.250854    3.271728   -0.119280
      4          1           0       -4.687961    0.907169   -0.017191
      5          1           0       -3.527847    0.915012    1.307647
      6          1           0       -2.908354    1.714185   -1.578619
      7          1           0       -1.749645    1.722158   -0.253881
      8          1           0       -3.138298    3.437370    0.957054
      9          1           0       -4.303591    3.429352   -0.375211
     10          1           0       -2.657549    4.027902   -0.642778
     11          6           0       -3.196847   -0.644611   -0.142949
     12          6           0       -4.008464   -1.724443    0.573447
     13          6           0       -3.569711   -3.140240    0.198203
     14          1           0       -3.292718   -0.783523   -1.228724
     15          1           0       -2.132604   -0.775681    0.096114
     16          1           0       -5.070920   -1.590670    0.332804
     17          1           0       -3.912210   -1.582697    1.657541
     18          1           0       -2.516974   -3.297864    0.454133
     19          1           0       -3.682267   -3.305882   -0.878131
     20          1           0       -4.163016   -3.896414    0.721700
     21          6           0        2.633889    2.456881    0.240678
     22          6           0        1.478672    1.783114   -0.169240
     23          6           0        1.483982    0.393553   -0.322994
     24          6           0        2.667221   -0.293850   -0.057078
     25          6           0        3.834342    0.348879    0.352820
     26          6           0        3.805971    1.738879    0.499943
     27          1           0        2.620806    3.536495    0.357542
     28          1           0        0.566987    2.338138   -0.371293
     29          1           0        0.603902   -0.153256   -0.639027
     30          1           0        4.728083   -0.231645    0.546825
     31          1           0        4.704622    2.259494    0.818428
     32          7           0        2.685050   -1.765149   -0.216339
     33          8           0        3.740210   -2.347746    0.024190
     34          8           0        1.643527   -2.307895   -0.578683
 ---------------------------------------------------------------------

 SCF Done:  E(RHF) =  -669.535562006     A.U. after   15 cycles
 E2 =    -0.2091870468D+01 EUMP2 =    -0.67162743247418D+03

 The electronic state is 1-A.
 Alpha  occ. eigenvalues --  -20.60762 -20.60757 -15.85814 -11.31170 -11.27742
 Alpha  occ. eigenvalues --  -11.27723 -11.27477 -11.26756 -11.26715 -11.22413
 Alpha  occ. eigenvalues --  -11.21833 -11.21807 -11.21648 -11.21587 -11.20793
 Alpha  occ. eigenvalues --   -1.59837  -1.39391  -1.19341  -1.08809  -1.08737
 Alpha  occ. eigenvalues --   -1.04744  -1.03857  -0.96271  -0.95575  -0.87289
 Alpha  occ. eigenvalues --   -0.86141  -0.82413  -0.79987  -0.78573  -0.77447
 Alpha  occ. eigenvalues --   -0.72033  -0.71160  -0.70451  -0.65469  -0.64989
 Alpha  occ. eigenvalues --   -0.64753  -0.62122  -0.61220  -0.59706  -0.57878
 Alpha  occ. eigenvalues --   -0.55537  -0.55246  -0.53075  -0.52988  -0.52865
 Alpha  occ. eigenvalues --   -0.52655  -0.50204  -0.48795  -0.48788  -0.48253
 Alpha  occ. eigenvalues --   -0.47018  -0.46098  -0.45986  -0.44798  -0.44109
 Alpha  occ. eigenvalues --   -0.37323  -0.36343
 Alpha virt. eigenvalues --    0.05061   0.11290   0.16518   0.19376   0.22961
 Alpha virt. eigenvalues --    0.23449   0.24534   0.26599   0.26735   0.28463
 Alpha virt. eigenvalues --    0.29423   0.30715   0.31185   0.31513   0.32193

 Mulliken charges:
               1
     1  C   -0.297798
     2  C   -0.305368
     3  C   -0.476400
     4  H    0.152462
     5  H    0.150939
     6  H    0.155218
     7  H    0.142634
     8  H    0.156625
     9  H    0.160157
    10  H    0.156682
    11  C   -0.302193
    12  C   -0.299995
    13  C   -0.477760
    14  H    0.151280
    15  H    0.150977
    16  H    0.151386
    17  H    0.152034
    18  H    0.164275
    19  H    0.155892
    20  H    0.160082
    21  C   -0.170943
    22  C   -0.224759
    23  C   -0.176542
    24  C    0.158335
    25  C   -0.170714
    26  C   -0.218648
    27  H    0.225875
    28  H    0.230447
    29  H    0.280339
    30  H    0.275501
    31  H    0.223343
    32  N    0.487888
    33  O   -0.460424
    34  O   -0.460827
 Sum of Mulliken charges =  -0.00000

 Dipole moment (field-independent basis, Debye):
    X=             -0.1989    Y=              5.0909    Z=              0.5757  Tot=              5.1272
 Quadrupole moment (field-independent basis, Debye-Ang):
   XX=            -89.5087   YY=            -99.3834   ZZ=            -94.7071
   XY=             14.2016   XZ=              3.6415   YZ=             -0.6374

 Normal termination of Gaussian 16 at Wed May  5 15:31:44 2021.
