 Gaussian 16, Revision A.03,
 Gaussian 16:  EM64L-G16RevA.03 25-Dec-2016

 -------------
 #p 6-31g* mp2
 -------------

 ------------------------------------------------------
 Input file generated by CHIRIPA (05-May-2021 14:51:09)
 ------------------------------------------------------
 Symbolic Z-matrix:
 Charge =  0 Multiplicity = 1

                         Standard orientation:
 ---------------------------------------------------------------------
 Center     Atomic      Atomic             Coordinates (Angstroms)
 Number     Number       Type             X           Y           Z
 ---------------------------------------------------------------------
      1          6           0        2.971802    1.292354    0.036536
      2          6           0        1.454373    1.121887    0.116119
      3          6           0        0.713665    2.456249    0.208994
      4          1           0        3.319091    1.845423    0.919967
      5          1           0        3.218912    1.911526   -0.836938
      6          1           0        1.210288    0.502070    0.988395
      7          1           0        1.110680    0.568993   -0.767509
      8          1           0        0.928018    3.077601   -0.666548
      9          1           0        1.028192    3.010298    1.099332
     10          1           0       -0.369681    2.311009    0.264914
     11          6           0        3.726220   -0.032741   -0.056763
     12          6           0        5.243649    0.137725   -0.136346
     13          6           0        5.984357   -1.196636   -0.229221
     14          1           0        3.479110   -0.651914    0.816711
     15          1           0        3.378931   -0.585810   -0.940194
     16          1           0        5.587342    0.690620    0.747283
     17          1           0        5.487734    0.757542   -1.008622
     18          1           0        5.669830   -1.750686   -1.119559
     19          1           0        5.770004   -1.817989    0.646322
     20          1           0        7.067703   -1.051397   -0.285140
     21          6           0       -3.749999    0.020134    0.024890
     22          6           0       -5.242766   -0.182271   -0.237149
     23          6           0       -6.031582    1.127113   -0.204352
     24          1           0       -3.618147    0.504916    1.001900
     25          1           0       -3.343804    0.712866   -0.725125
     26          1           0       -5.645729   -0.875496    0.512301
     27          1           0       -5.371069   -0.666801   -1.213563
     28          1           0       -5.657005    1.821625   -0.963263
     29          1           0       -5.933226    1.611745    0.772408
     30          1           0       -7.096321    0.959227   -0.394100
     31          6           0       -2.948023   -1.279747   -0.004664
     32          6           0       -1.455256   -1.077342    0.257376
     33          6           0       -0.666440   -2.386725    0.224579
     34          1           0       -3.354218   -1.972479    0.745352
     35          1           0       -3.079873   -1.764528   -0.981673
     36          1           0       -1.326952   -0.592811    1.233790
     37          1           0       -1.052292   -0.384117   -0.492074
     38          1           0       -0.764796   -2.871357   -0.752181
     39          1           0       -1.041017   -3.081237    0.983490
     40          1           0        0.398300   -2.218840    0.414326
 ---------------------------------------------------------------------

 SCF Done:  E(RHF) =  -470.732435218     A.U. after   11 cycles
 E2 =    -0.1584112169D+01 EUMP2 =    -0.47231654738674D+03

 The electronic state is 1-A.
 Alpha  occ. eigenvalues --  -11.21604 -11.21596 -11.21536 -11.21495 -11.21399
 Alpha  occ. eigenvalues --  -11.21386 -11.21329 -11.21312 -11.21069 -11.21065
 Alpha  occ. eigenvalues --  -11.21029 -11.21006  -1.08456  -1.08368  -1.03593
 Alpha  occ. eigenvalues --   -1.03421  -0.95985  -0.95930  -0.86984  -0.86958
 Alpha  occ. eigenvalues --   -0.79775  -0.79416  -0.78385  -0.78047  -0.65130
 Alpha  occ. eigenvalues --   -0.64969  -0.61056  -0.60771  -0.59591  -0.59106
 Alpha  occ. eigenvalues --   -0.57724  -0.57383  -0.55278  -0.55216  -0.52724
 Alpha  occ. eigenvalues --   -0.52572  -0.52442  -0.52314  -0.49946  -0.49862
 Alpha  occ. eigenvalues --   -0.48041  -0.47730  -0.46860  -0.46415  -0.45929
 Alpha  occ. eigenvalues --   -0.45805  -0.45598  -0.45411  -0.43773  -0.43739
 Alpha virt. eigenvalues --    0.21288   0.23061   0.23669   0.24304   0.25632
 Alpha virt. eigenvalues --    0.26347   0.26440   0.27006   0.28668   0.29211
 Alpha virt. eigenvalues --    0.30293   0.31255   0.31558   0.31783   0.32476

 Mulliken charges:
               1
     1  C   -0.297703
     2  C   -0.301864
     3  C   -0.478803
     4  H    0.149309
     5  H    0.149173
     6  H    0.155353
     7  H    0.152883
     8  H    0.154592
     9  H    0.155000
    10  H    0.162916
    11  C   -0.298950
    12  C   -0.299558
    13  C   -0.475730
    14  H    0.149181
    15  H    0.149769
    16  H    0.151995
    17  H    0.152004
    18  H    0.155235
    19  H    0.155197
    20  H    0.160261
    21  C   -0.298889
    22  C   -0.299514
    23  C   -0.475731
    24  H    0.149438
    25  H    0.149299
    26  H    0.152023
    27  H    0.151947
    28  H    0.155184
    29  H    0.155177
    30  H    0.160239
    31  C   -0.297780
    32  C   -0.302623
    33  C   -0.478648
    34  H    0.149064
    35  H    0.149173
    36  H    0.151271
    37  H    0.158058
    38  H    0.154476
    39  H    0.154715
    40  H    0.162861
 Sum of Mulliken charges =  -0.00000

 Dipole moment (field-independent basis, Debye):
    X=              0.0107    Y=              0.0064    Z=             -0.0010  Tot=              0.0125
 Quadrupole moment (field-independent basis, Debye-Ang):
   XX=            -85.8760   YY=            -86.4085   ZZ=            -82.6951
   XY=              1.1627   XZ=             -0.0494   YZ=             -0.2061

 Normal termination of Gaussian 16 at Thu May  6 05:21:16 2021.
