 Gaussian 16, Revision A.03,
 Gaussian 16:  EM64L-G16RevA.03 25-Dec-2016

 -------------
 #p 6-31g* mp2
 -------------

 ------------------------------------------------------
 Input file generated by CHIRIPA (05-May-2021 14:53:17)
 ------------------------------------------------------
 Symbolic Z-matrix:
 Charge =  0 Multiplicity = 1

                         Standard orientation:
 ---------------------------------------------------------------------
 Center     Atomic      Atomic             Coordinates (Angstroms)
 Number     Number       Type             X           Y           Z
 ---------------------------------------------------------------------
      1          6           0       -3.163580    0.133462    0.551506
      2          6           0       -3.565081   -1.326535    0.338927
      3          6           0       -4.124977   -1.975992    1.604833
      4          1           0       -2.416164    0.188329    1.354814
      5          1           0       -4.038406    0.700138    0.899289
      6          1           0       -2.690097   -1.890002   -0.009676
      7          1           0       -4.311487   -1.377952   -0.464099
      8          1           0       -5.013554   -1.439197    1.952516
      9          1           0       -3.382952   -1.954156    2.409520
     10          1           0       -4.405580   -3.019384    1.430323
     11          6           0       -2.602040    0.796454   -0.705014
     12          6           0       -2.200539    2.256451   -0.492435
     13          6           0       -1.640643    2.905908   -1.758340
     14          1           0       -1.727214    0.229778   -1.052796
     15          1           0       -3.349456    0.741587   -1.508322
     16          1           0       -1.454133    2.307869    0.310591
     17          1           0       -3.075523    2.819918   -0.143832
     18          1           0       -2.382668    2.884072   -2.563028
     19          1           0       -0.752066    2.369114   -2.106024
     20          1           0       -1.360039    3.949301   -1.583831
     21          6           0        3.236399    1.390024    1.584201
     22          6           0        4.070440    0.644455    0.744546
     23          6           0        3.536079   -0.329576   -0.104141
     24          6           0        2.157046   -0.532749   -0.087394
     25          6           0        1.299941    0.193848    0.737663
     26          6           0        1.856244    1.162743    1.578090
     27          1           0        3.660026    2.144680    2.240273
     28          1           0        5.142652    0.818812    0.747180
     29          1           0        4.158710   -0.921095   -0.764331
     30          1           0        0.234958   -0.002643    0.712784
     31          1           0        1.206100    1.740260    2.229113
     32          7           0        1.579727   -1.561192   -0.981489
     33          8           0        0.361547   -1.721038   -0.947945
     34          8           0        2.356336   -2.187968   -1.698893
 ---------------------------------------------------------------------

 SCF Done:  E(RHF) =  -669.536130310     A.U. after   15 cycles
 E2 =    -0.2093441355D+01 EUMP2 =    -0.67162957166488D+03

 The electronic state is 1-A.
 Alpha  occ. eigenvalues --  -20.61021 -20.61002 -15.86040 -11.31312 -11.27874
 Alpha  occ. eigenvalues --  -11.27856 -11.27600 -11.26873 -11.26861 -11.21656
 Alpha  occ. eigenvalues --  -11.21250 -11.21041 -11.21025 -11.20994 -11.20695
 Alpha  occ. eigenvalues --   -1.60070  -1.39629  -1.19480  -1.08891  -1.08209
 Alpha  occ. eigenvalues --   -1.04869  -1.03300  -0.95782  -0.95720  -0.86780
 Alpha  occ. eigenvalues --   -0.86272  -0.82581  -0.79364  -0.77999  -0.77630
 Alpha  occ. eigenvalues --   -0.72272  -0.71379  -0.70597  -0.65156  -0.65090
 Alpha  occ. eigenvalues --   -0.64657  -0.62178  -0.60699  -0.59132  -0.57355
 Alpha  occ. eigenvalues --   -0.55390  -0.55046  -0.53198  -0.52945  -0.52465
 Alpha  occ. eigenvalues --   -0.52170  -0.49729  -0.49048  -0.49009  -0.47681
 Alpha  occ. eigenvalues --   -0.46408  -0.45586  -0.45446  -0.44894  -0.43551
 Alpha  occ. eigenvalues --   -0.37455  -0.36459
 Alpha virt. eigenvalues --    0.04833   0.11148   0.16306   0.19211   0.23045
 Alpha virt. eigenvalues --    0.24368   0.25541   0.27092   0.27760   0.28171
 Alpha virt. eigenvalues --    0.29862   0.31165   0.31763   0.31991   0.32323

 Mulliken charges:
               1
     1  C   -0.296430
     2  C   -0.307070
     3  C   -0.475122
     4  H    0.135784
     5  H    0.148278
     6  H    0.173034
     7  H    0.151851
     8  H    0.152066
     9  H    0.151720
    10  H    0.161851
    11  C   -0.314954
    12  C   -0.297807
    13  C   -0.474979
    14  H    0.172005
    15  H    0.152385
    16  H    0.137930
    17  H    0.151723
    18  H    0.157698
    19  H    0.157113
    20  H    0.157340
    21  C   -0.170171
    22  C   -0.218852
    23  C   -0.169979
    24  C    0.156309
    25  C   -0.176105
    26  C   -0.221496
    27  H    0.226290
    28  H    0.223991
    29  H    0.275832
    30  H    0.286876
    31  H    0.224868
    32  N    0.491292
    33  O   -0.465266
    34  O   -0.458004
 Sum of Mulliken charges =  -0.00000

 Dipole moment (field-independent basis, Debye):
    X=              2.1614    Y=              3.4385    Z=              2.9594  Tot=              5.0252
 Quadrupole moment (field-independent basis, Debye-Ang):
   XX=            -81.0943   YY=            -99.5079   ZZ=            -96.0382
   XY=              5.5158   XZ=              6.0718   YZ=             -0.9714

 Normal termination of Gaussian 16 at Thu May  6 13:56:00 2021.
