 Gaussian 16, Revision A.03,
 Gaussian 16:  EM64L-G16RevA.03 25-Dec-2016

 -------------
 #p 6-31g* mp2
 -------------

 ------------------------------------------------------
 Input file generated by CHIRIPA (05-May-2021 14:57:27)
 ------------------------------------------------------
 Symbolic Z-matrix:
 Charge =  0 Multiplicity = 1

                         Standard orientation:
 ---------------------------------------------------------------------
 Center     Atomic      Atomic             Coordinates (Angstroms)
 Number     Number       Type             X           Y           Z
 ---------------------------------------------------------------------
      1          6           0       -0.868212   -1.638409    0.480762
      2          6           0       -1.145626   -0.542007    1.303845
      3          6           0       -2.334828    0.177150    1.151668
      4          6           0       -3.228217   -0.229526    0.161839
      5          6           0       -2.980411   -1.317476   -0.673773
      6          6           0       -1.784874   -2.021968   -0.503684
      7          1           0        0.058050   -2.191371    0.605934
      8          1           0       -0.435575   -0.241862    2.069211
      9          1           0       -2.574818    1.029850    1.775147
     10          1           0       -3.707623   -1.592773   -1.427956
     11          1           0       -1.572075   -2.873039   -1.144340
     12          7           0       -4.490526    0.524051   -0.008745
     13          8           0       -5.261226    0.145589   -0.888191
     14          8           0       -4.685322    1.478898    0.740227
     15          6           0        4.176825   -1.856896    0.185866
     16          6           0        2.926094   -1.818637   -0.439218
     17          6           0        2.275997   -0.599463   -0.652615
     18          6           0        2.908352    0.567439   -0.226286
     19          6           0        4.154086    0.562039    0.399342
     20          6           0        4.785755   -0.668531    0.602417
     21          1           0        4.674678   -2.808405    0.347630
     22          1           0        2.450817   -2.739955   -0.763761
     23          1           0        1.307370   -0.540975   -1.134028
     24          1           0        4.602855    1.497115    0.711841
     25          1           0        5.757052   -0.695217    1.088128
     26          7           0        2.229878    1.864155   -0.446737
     27          8           0        2.808100    2.878131   -0.061835
     28          8           0        1.132716    1.841992   -1.000253
 ---------------------------------------------------------------------

 SCF Done:  E(RHF) =  -868.335902979     A.U. after   16 cycles
 E2 =    -0.2602608973D+01 EUMP2 =    -0.87093851195218D+03

 The electronic state is 1-A.
 Alpha  occ. eigenvalues --  -20.61350 -20.61329 -20.60556 -20.60539 -15.86400
 Alpha  occ. eigenvalues --  -15.85608 -11.31944 -11.31078 -11.28547 -11.28538
 Alpha  occ. eigenvalues --  -11.28353 -11.27715 -11.27668 -11.27625 -11.27543
 Alpha  occ. eigenvalues --  -11.27514 -11.26836 -11.26712  -1.60420  -1.59620
 Alpha  occ. eigenvalues --   -1.39963  -1.39171  -1.20173  -1.19287  -1.09519
 Alpha  occ. eigenvalues --   -1.08707  -1.05611  -1.04704  -0.96320  -0.95506
 Alpha  occ. eigenvalues --   -0.86978  -0.86124  -0.83168  -0.82322  -0.78171
 Alpha  occ. eigenvalues --   -0.77325  -0.72611  -0.71834  -0.71763  -0.71291
 Alpha  occ. eigenvalues --   -0.70934  -0.70449  -0.65807  -0.65605  -0.64963
 Alpha  occ. eigenvalues --   -0.64750  -0.62933  -0.62052  -0.56080  -0.55365
 Alpha  occ. eigenvalues --   -0.53885  -0.53745  -0.52914  -0.52823  -0.49387
 Alpha  occ. eigenvalues --   -0.49352  -0.48600  -0.48574  -0.45328  -0.44553
 Alpha  occ. eigenvalues --   -0.38182  -0.37635  -0.36868  -0.36254
 Alpha virt. eigenvalues --    0.04290   0.05240   0.10269   0.11414   0.15574
 Alpha virt. eigenvalues --    0.16674   0.20037   0.21791   0.25819   0.27322
 Alpha virt. eigenvalues --    0.27726   0.28668   0.30259   0.31408   0.32328

 Mulliken charges:
               1
     1  C   -0.181510
     2  C   -0.213925
     3  C   -0.163967
     4  C    0.160448
     5  C   -0.168422
     6  C   -0.221640
     7  H    0.222455
     8  H    0.224229
     9  H    0.278657
    10  H    0.275798
    11  H    0.218720
    12  N    0.488260
    13  O   -0.461072
    14  O   -0.458010
    15  C   -0.170349
    16  C   -0.227054
    17  C   -0.174806
    18  C    0.155447
    19  C   -0.169898
    20  C   -0.219251
    21  H    0.227718
    22  H    0.218967
    23  H    0.282499
    24  H    0.278380
    25  H    0.226348
    26  N    0.486874
    27  O   -0.458776
    28  O   -0.456121
 Sum of Mulliken charges =  -0.00000

 Dipole moment (field-independent basis, Debye):
    X=              6.8301    Y=             -6.9041    Z=              1.4341  Tot=              9.8170
 Quadrupole moment (field-independent basis, Debye-Ang):
   XX=           -116.2110   YY=           -107.1279   ZZ=           -102.2517
   XY=             -1.5821   XZ=              3.5246   YZ=              4.7222

 Normal termination of Gaussian 16 at Wed May  5 19:38:59 2021.
