 Gaussian 16, Revision A.03,
 Gaussian 16:  EM64L-G16RevA.03 25-Dec-2016

 -------------
 #p 6-31g* mp2
 -------------

 ------------------------------------------------------
 Input file generated by CHIRIPA (05-May-2021 14:55:20)
 ------------------------------------------------------
 Symbolic Z-matrix:
 Charge =  0 Multiplicity = 1

                         Standard orientation:
 ---------------------------------------------------------------------
 Center     Atomic      Atomic             Coordinates (Angstroms)
 Number     Number       Type             X           Y           Z
 ---------------------------------------------------------------------
      1          6           0       -1.286223   -2.187069    1.733183
      2          6           0       -1.196772   -2.543008    0.383433
      3          6           0       -1.450499   -1.600688   -0.617668
      4          6           0       -1.792681   -0.305660   -0.231527
      5          6           0       -1.889963    0.079600    1.104661
      6          6           0       -1.631924   -0.879207    2.088863
      7          1           0       -1.087447   -2.925490    2.504299
      8          1           0       -0.928504   -3.557969    0.104269
      9          1           0       -1.388448   -1.849217   -1.670189
     10          1           0       -2.159576    1.099187    1.351985
     11          1           0       -1.702147   -0.599947    3.136301
     12          7           0       -2.063574    0.700659   -1.282403
     13          8           0       -2.363188    1.834974   -0.916074
     14          8           0       -1.971155    0.336042   -2.452510
     15          6           0        2.651352    0.194223   -0.419916
     16          6           0        2.756843   -1.284265   -0.044508
     17          6           0        3.587872   -2.089994   -1.043501
     18          1           0        2.208543    0.280943   -1.421587
     19          1           0        3.661541    0.621370   -0.486691
     20          1           0        1.746699   -1.708154    0.022893
     21          1           0        3.199275   -1.367467    0.956464
     22          1           0        4.606748   -1.694106   -1.104845
     23          1           0        3.145919   -2.036729   -2.043721
     24          1           0        3.650242   -3.144143   -0.755855
     25          6           0        1.823618    1.012853    0.569242
     26          6           0        1.718127    2.491340    0.193835
     27          6           0        0.887098    3.297070    1.192827
     28          1           0        0.813429    0.585706    0.636017
     29          1           0        2.266427    0.926133    1.570913
     30          1           0        1.275695    2.574542   -0.807139
     31          1           0        2.728271    2.915230    0.126433
     32          1           0        1.329051    3.243805    2.193047
     33          1           0       -0.131778    2.901181    1.254172
     34          1           0        0.824728    4.351218    0.905180
 ---------------------------------------------------------------------

 SCF Done:  E(RHF) =  -669.534389930     A.U. after   15 cycles
 E2 =    -0.2096513218D+01 EUMP2 =    -0.67163090314798D+03

 The electronic state is 1-A.
 Alpha  occ. eigenvalues --  -20.60966 -20.60951 -15.85999 -11.31347 -11.27955
 Alpha  occ. eigenvalues --  -11.27911 -11.27682 -11.26969 -11.26931 -11.21567
 Alpha  occ. eigenvalues --  -11.21250 -11.21234 -11.21165 -11.21078 -11.20783
 Alpha  occ. eigenvalues --   -1.60027  -1.39580  -1.19572  -1.08944  -1.08268
 Alpha  occ. eigenvalues --   -1.04969  -1.03383  -0.95846  -0.95777  -0.86868
 Alpha  occ. eigenvalues --   -0.86352  -0.82604  -0.79457  -0.78091  -0.77653
 Alpha  occ. eigenvalues --   -0.72217  -0.71367  -0.70650  -0.65209  -0.64962
 Alpha  occ. eigenvalues --   -0.64918  -0.62315  -0.60781  -0.59226  -0.57461
 Alpha  occ. eigenvalues --   -0.55449  -0.55187  -0.53410  -0.53040  -0.52522
 Alpha  occ. eigenvalues --   -0.52259  -0.49815  -0.48976  -0.48973  -0.47801
 Alpha  occ. eigenvalues --   -0.46521  -0.45588  -0.45406  -0.44943  -0.43620
 Alpha  occ. eigenvalues --   -0.37487  -0.36469
 Alpha virt. eigenvalues --    0.04831   0.10978   0.16328   0.20914   0.22954
 Alpha virt. eigenvalues --    0.23979   0.26353   0.26852   0.27661   0.27699
 Alpha virt. eigenvalues --    0.28809   0.30219   0.31376   0.31898   0.32034

 Mulliken charges:
               1
     1  C   -0.169964
     2  C   -0.217235
     3  C   -0.171801
     4  C    0.161534
     5  C   -0.178624
     6  C   -0.213199
     7  H    0.227099
     8  H    0.225270
     9  H    0.276544
    10  H    0.277730
    11  H    0.225082
    12  N    0.488786
    13  O   -0.460433
    14  O   -0.459843
    15  C   -0.298212
    16  C   -0.304900
    17  C   -0.475622
    18  H    0.152549
    19  H    0.149400
    20  H    0.152870
    21  H    0.148612
    22  H    0.156528
    23  H    0.155812
    24  H    0.155783
    25  C   -0.307468
    26  C   -0.301108
    27  C   -0.476224
    28  H    0.157565
    29  H    0.144831
    30  H    0.160164
    31  H    0.150549
    32  H    0.149259
    33  H    0.154821
    34  H    0.163845
 Sum of Mulliken charges =  -0.00000

 Dipole moment (field-independent basis, Debye):
    X=              0.7369    Y=             -3.5483    Z=              3.6562  Tot=              5.1479
 Quadrupole moment (field-independent basis, Debye-Ang):
   XX=            -98.8009   YY=            -90.9077   ZZ=            -94.3917
   XY=              6.2169   XZ=             -7.0695   YZ=              1.7431

 Normal termination of Gaussian 16 at Wed May  5 18:56:17 2021.
