 Gaussian 16, Revision A.03,
 Gaussian 16:  EM64L-G16RevA.03 25-Dec-2016

 -------------
 #p 6-31g* mp2
 -------------

 ------------------------------------------------------
 Input file generated by CHIRIPA (05-May-2021 14:51:10)
 ------------------------------------------------------
 Symbolic Z-matrix:
 Charge =  0 Multiplicity = 1

                         Standard orientation:
 ---------------------------------------------------------------------
 Center     Atomic      Atomic             Coordinates (Angstroms)
 Number     Number       Type             X           Y           Z
 ---------------------------------------------------------------------
      1          6           0        4.155508    0.088763   -0.336560
      2          6           0        4.683616   -1.086411    0.486880
      3          6           0        5.798047   -1.853722   -0.225210
      4          1           0        3.786790   -0.284449   -1.301809
      5          1           0        4.986031    0.771926   -0.562204
      6          1           0        3.852080   -1.766447    0.712080
      7          1           0        5.050944   -0.710383    1.450358
      8          1           0        6.646049   -1.194127   -0.435989
      9          1           0        5.440374   -2.256192   -1.178462
     10          1           0        6.160858   -2.689503    0.381170
     11          6           0        3.040975    0.865636    0.362019
     12          6           0        2.512867    2.040809   -0.461421
     13          6           0        1.398437    2.808120    0.250669
     14          1           0        2.210452    0.182473    0.587662
     15          1           0        3.409693    1.238847    1.327268
     16          1           0        2.145539    1.664782   -1.424899
     17          1           0        3.344403    2.720845   -0.686621
     18          1           0        1.756109    3.210590    1.203921
     19          1           0        0.550434    2.148526    0.461448
     20          1           0        1.035626    3.643902   -0.355711
     21          6           0       -4.324390   -0.713113    0.009284
     22          6           0       -5.336058    0.431645   -0.054302
     23          6           0       -6.784418   -0.056229   -0.009287
     24          1           0       -4.506870   -1.402103   -0.826742
     25          1           0       -4.489924   -1.288711    0.930522
     26          1           0       -5.167769    1.005742   -0.974468
     27          1           0       -5.151027    1.118092    0.781862
     28          1           0       -6.975428   -0.611227    0.914885
     29          1           0       -6.992265   -0.724216   -0.851425
     30          1           0       -7.490834    0.778432   -0.055945
     31          6           0       -2.872093   -0.241286   -0.034742
     32          6           0       -1.860424   -1.386043    0.028843
     33          6           0       -0.412066   -0.898169   -0.016172
     34          1           0       -2.706560    0.334313   -0.955981
     35          1           0       -2.689613    0.447704    0.801284
     36          1           0       -2.045456   -2.072490   -0.807321
     37          1           0       -2.028715   -1.960141    0.949009
     38          1           0       -0.204219   -0.230183    0.825966
     39          1           0       -0.221056   -0.343171   -0.940344
     40          1           0        0.294351   -1.732830    0.030486
 ---------------------------------------------------------------------

 SCF Done:  E(RHF) =  -470.732532685     A.U. after   11 cycles
 E2 =    -0.1583754027D+01 EUMP2 =    -0.47231628671264D+03

 The electronic state is 1-A.
 Alpha  occ. eigenvalues --  -11.21687 -11.21630 -11.21537 -11.21486 -11.21464
 Alpha  occ. eigenvalues --  -11.21401 -11.21279 -11.21214 -11.21160 -11.21093
 Alpha  occ. eigenvalues --  -11.21024 -11.20940  -1.08496  -1.08314  -1.03616
 Alpha  occ. eigenvalues --   -1.03427  -0.96067  -0.95880  -0.87099  -0.86896
 Alpha  occ. eigenvalues --   -0.79722  -0.79475  -0.78324  -0.78098  -0.65125
 Alpha  occ. eigenvalues --   -0.64954  -0.61012  -0.60856  -0.59440  -0.59256
 Alpha  occ. eigenvalues --   -0.57677  -0.57474  -0.55357  -0.55176  -0.52791
 Alpha  occ. eigenvalues --   -0.52589  -0.52490  -0.52290  -0.50031  -0.49821
 Alpha  occ. eigenvalues --   -0.48124  -0.47724  -0.46785  -0.46466  -0.45951
 Alpha  occ. eigenvalues --   -0.45770  -0.45651  -0.45338  -0.43819  -0.43675
 Alpha virt. eigenvalues --    0.21164   0.22907   0.23673   0.24682   0.25833
 Alpha virt. eigenvalues --    0.26263   0.27014   0.27384   0.28143   0.29438
 Alpha virt. eigenvalues --    0.30326   0.30847   0.31828   0.31968   0.32408

 Mulliken charges:
               1
     1  C   -0.297577
     2  C   -0.299642
     3  C   -0.475612
     4  H    0.149172
     5  H    0.148901
     6  H    0.151427
     7  H    0.151764
     8  H    0.155127
     9  H    0.154988
    10  H    0.159908
    11  C   -0.308082
    12  C   -0.298520
    13  C   -0.480445
    14  H    0.163180
    15  H    0.148162
    16  H    0.151082
    17  H    0.151274
    18  H    0.154235
    19  H    0.159888
    20  H    0.159453
    21  C   -0.298313
    22  C   -0.299714
    23  C   -0.475760
    24  H    0.149779
    25  H    0.149673
    26  H    0.152071
    27  H    0.152194
    28  H    0.155232
    29  H    0.155190
    30  H    0.160425
    31  C   -0.298939
    32  C   -0.300404
    33  C   -0.480912
    34  H    0.149828
    35  H    0.149919
    36  H    0.152182
    37  H    0.152394
    38  H    0.158789
    39  H    0.157354
    40  H    0.160326
 Sum of Mulliken charges =  -0.00000

 Dipole moment (field-independent basis, Debye):
    X=             -0.0824    Y=             -0.0406    Z=              0.0075  Tot=              0.0922
 Quadrupole moment (field-independent basis, Debye-Ang):
   XX=            -86.3839   YY=            -85.0431   ZZ=            -83.6991
   XY=              0.6769   XZ=              0.6553   YZ=              0.0844

 Normal termination of Gaussian 16 at Thu May  6 00:36:56 2021.
