 Gaussian 16, Revision A.03,
 Gaussian 16:  EM64L-G16RevA.03 25-Dec-2016

 -------------
 #p 6-31g* mp2
 -------------

 ------------------------------------------------------
 Input file generated by CHIRIPA (05-May-2021 14:57:26)
 ------------------------------------------------------
 Symbolic Z-matrix:
 Charge =  0 Multiplicity = 1

                         Standard orientation:
 ---------------------------------------------------------------------
 Center     Atomic      Atomic             Coordinates (Angstroms)
 Number     Number       Type             X           Y           Z
 ---------------------------------------------------------------------
      1          6           0        5.104514    0.318850   -1.906136
      2          6           0        5.326463   -0.764438   -1.049547
      3          6           0        4.505428   -0.969476    0.063291
      4          6           0        3.466996   -0.067644    0.290554
      5          6           0        3.220397    1.021080   -0.544406
      6          6           0        4.054041    1.206587   -1.651281
      7          1           0        5.747211    0.470542   -2.768299
      8          1           0        6.141517   -1.455472   -1.245005
      9          1           0        4.654783   -1.799813    0.742741
     10          1           0        2.399937    1.693020   -0.323586
     11          1           0        3.879317    2.048754   -2.314810
     12          7           0        2.591129   -0.274370    1.465510
     13          8           0        1.683001    0.534428    1.643797
     14          8           0        2.829337   -1.241285    2.185905
     15          6           0       -2.963581    2.374798    0.584989
     16          6           0       -4.071139    2.168309   -0.243985
     17          6           0       -4.439252    0.875461   -0.628154
     18          6           0       -3.673974   -0.192768   -0.162831
     19          6           0       -2.565181   -0.019435    0.664105
     20          6           0       -2.215456    1.282194    1.035595
     21          1           0       -2.684764    3.382523    0.878496
     22          1           0       -4.653983    3.014957   -0.595445
     23          1           0       -5.292005    0.687017   -1.269029
     24          1           0       -2.003569   -0.883257    0.998501
     25          1           0       -1.354821    1.439560    1.679480
     26          7           0       -4.053946   -1.566096   -0.562822
     27          8           0       -3.363358   -2.490455   -0.139399
     28          8           0       -5.035159   -1.692147   -1.292183
 ---------------------------------------------------------------------

 SCF Done:  E(RHF) =  -868.339779205     A.U. after   16 cycles
 E2 =    -0.2598389009D+01 EUMP2 =    -0.87093816821454D+03

 The electronic state is 1-A.
 Alpha  occ. eigenvalues --  -20.61475 -20.61405 -20.60218 -20.60203 -15.86484
 Alpha  occ. eigenvalues --  -15.85257 -11.31620 -11.30505 -11.28191 -11.28138
 Alpha  occ. eigenvalues --  -11.27860 -11.27140 -11.27107 -11.27103 -11.26928
 Alpha  occ. eigenvalues --  -11.26774 -11.26136 -11.25844  -1.60503  -1.59291
 Alpha  occ. eigenvalues --   -1.40067  -1.38846  -1.19770  -1.18655  -1.09205
 Alpha  occ. eigenvalues --   -1.08084  -1.05142  -1.04006  -0.96081  -0.94938
 Alpha  occ. eigenvalues --   -0.86551  -0.85420  -0.82928  -0.81745  -0.78000
 Alpha  occ. eigenvalues --   -0.76802  -0.72723  -0.71806  -0.71478  -0.70880
 Alpha  occ. eigenvalues --   -0.70614  -0.69779  -0.65432  -0.65145  -0.64293
 Alpha  occ. eigenvalues --   -0.63970  -0.62497  -0.61323  -0.55649  -0.54554
 Alpha  occ. eigenvalues --   -0.53477  -0.53235  -0.52393  -0.52059  -0.49483
 Alpha  occ. eigenvalues --   -0.49433  -0.48240  -0.48224  -0.45521  -0.44277
 Alpha  occ. eigenvalues --   -0.37732  -0.36732  -0.36672  -0.35613
 Alpha virt. eigenvalues --    0.04521   0.05679   0.10926   0.12021   0.16052
 Alpha virt. eigenvalues --    0.17201   0.21032   0.22241   0.26971   0.27624
 Alpha virt. eigenvalues --    0.28483   0.29003   0.30629   0.31657   0.32287

 Mulliken charges:
               1
     1  C   -0.169792
     2  C   -0.218292
     3  C   -0.169795
     4  C    0.158322
     5  C   -0.169877
     6  C   -0.218145
     7  H    0.227377
     8  H    0.225496
     9  H    0.277139
    10  H    0.272194
    11  H    0.224072
    12  N    0.491903
    13  O   -0.474041
    14  O   -0.454933
    15  C   -0.173621
    16  C   -0.218935
    17  C   -0.173286
    18  C    0.157790
    19  C   -0.173813
    20  C   -0.225035
    21  H    0.223046
    22  H    0.219793
    23  H    0.272630
    24  H    0.280889
    25  H    0.244426
    26  N    0.487862
    27  O   -0.459805
    28  O   -0.463570
 Sum of Mulliken charges =  -0.00000

 Dipole moment (field-independent basis, Debye):
    X=              4.8725    Y=              5.4622    Z=             -2.6553  Tot=              7.7864
 Quadrupole moment (field-independent basis, Debye-Ang):
   XX=            -89.9965   YY=           -103.7960   ZZ=           -107.0477
   XY=            -20.0012   XZ=            -16.5980   YZ=             -2.9528

 Normal termination of Gaussian 16 at Thu May  6 11:29:59 2021.
