 Gaussian 16, Revision A.03,
 Gaussian 16:  EM64L-G16RevA.03 25-Dec-2016

 -------------
 #p 6-31g* mp2
 -------------

 ------------------------------------------------------
 Input file generated by CHIRIPA (05-May-2021 14:51:10)
 ------------------------------------------------------
 Symbolic Z-matrix:
 Charge =  0 Multiplicity = 1

                         Standard orientation:
 ---------------------------------------------------------------------
 Center     Atomic      Atomic             Coordinates (Angstroms)
 Number     Number       Type             X           Y           Z
 ---------------------------------------------------------------------
      1          6           0        4.380460    0.179098   -0.287095
      2          6           0        5.666756   -0.386961    0.315402
      3          6           0        6.919010    0.055452   -0.442177
      4          1           0        4.305670   -0.135161   -1.337139
      5          1           0        4.438300    1.276377   -0.292585
      6          1           0        5.605927   -1.482810    0.321024
      7          1           0        5.738397   -0.071477    1.364188
      8          1           0        7.007229    1.146684   -0.436596
      9          1           0        6.874006   -0.272668   -1.485687
     10          1           0        7.826975   -0.360611    0.005429
     11          6           0        3.119987   -0.254283    0.459308
     12          6           0        1.833691    0.311776   -0.143189
     13          6           0        0.581437   -0.130637    0.614390
     14          1           0        3.062147   -1.351562    0.464798
     15          1           0        3.194777    0.059976    1.509352
     16          1           0        1.762051   -0.003708   -1.191975
     17          1           0        1.894520    1.407625   -0.148812
     18          1           0        0.626441    0.197483    1.657900
     19          1           0        0.493218   -1.221869    0.608809
     20          1           0       -0.326528    0.285426    0.166784
     21          6           0       -3.517652   -0.641509   -0.347187
     22          6           0       -4.291794   -1.817753    0.248748
     23          6           0       -3.814997   -3.169567   -0.283283
     24          1           0       -3.616622   -0.662206   -1.441134
     25          1           0       -2.448265   -0.766489   -0.127670
     26          1           0       -5.359565   -1.689880    0.029363
     27          1           0       -4.191127   -1.794143    1.341416
     28          1           0       -2.756124   -3.323117   -0.051307
     29          1           0       -3.931201   -3.218262   -1.370815
     30          1           0       -4.381876   -3.996417    0.155840
     31          6           0       -3.982796    0.716694    0.174974
     32          6           0       -3.208653    1.892938   -0.420960
     33          6           0       -3.685450    3.244752    0.111070
     34          1           0       -5.052182    0.841674   -0.044543
     35          1           0       -3.883825    0.737391    1.268922
     36          1           0       -3.309319    1.869328   -1.513629
     37          1           0       -2.140883    1.765064   -0.201576
     38          1           0       -3.569247    3.293446    1.198602
     39          1           0       -4.744322    3.398302   -0.120906
     40          1           0       -3.118572    4.071602   -0.328052
 ---------------------------------------------------------------------

 SCF Done:  E(RHF) =  -470.732679170     A.U. after   11 cycles
 E2 =    -0.1583334324D+01 EUMP2 =    -0.47231601349394D+03

 The electronic state is 1-A.
 Alpha  occ. eigenvalues --  -11.21647 -11.21618 -11.21589 -11.21549 -11.21432
 Alpha  occ. eigenvalues --  -11.21372 -11.21351 -11.21267 -11.21122 -11.21083
 Alpha  occ. eigenvalues --  -11.21062 -11.21035  -1.08464  -1.08390  -1.03568
 Alpha  occ. eigenvalues --   -1.03499  -0.96031  -0.95939  -0.87048  -0.86963
 Alpha  occ. eigenvalues --   -0.79643  -0.79568  -0.78280  -0.78198  -0.65093
 Alpha  occ. eigenvalues --   -0.65056  -0.60987  -0.60889  -0.59441  -0.59278
 Alpha  occ. eigenvalues --   -0.57651  -0.57542  -0.55325  -0.55219  -0.52825
 Alpha  occ. eigenvalues --   -0.52601  -0.52442  -0.52367  -0.49991  -0.49862
 Alpha  occ. eigenvalues --   -0.48008  -0.47851  -0.46689  -0.46570  -0.45813
 Alpha  occ. eigenvalues --   -0.45760  -0.45728  -0.45657  -0.43771  -0.43655
 Alpha virt. eigenvalues --    0.21495   0.23057   0.23881   0.24315   0.26087
 Alpha virt. eigenvalues --    0.26619   0.27071   0.27423   0.27830   0.29282
 Alpha virt. eigenvalues --    0.30167   0.31471   0.31708   0.31925   0.32132

 Mulliken charges:
               1
     1  C   -0.298276
     2  C   -0.299655
     3  C   -0.475720
     4  H    0.149778
     5  H    0.149587
     6  H    0.151976
     7  H    0.151944
     8  H    0.155210
     9  H    0.155235
    10  H    0.160310
    11  C   -0.298815
    12  C   -0.298614
    13  C   -0.487761
    14  H    0.149636
    15  H    0.149640
    16  H    0.152506
    17  H    0.152023
    18  H    0.155168
    19  H    0.155033
    20  H    0.171597
    21  C   -0.306400
    22  C   -0.299024
    23  C   -0.475695
    24  H    0.148815
    25  H    0.158341
    26  H    0.151581
    27  H    0.151966
    28  H    0.155121
    29  H    0.154953
    30  H    0.160048
    31  C   -0.297657
    32  C   -0.306833
    33  C   -0.475154
    34  H    0.149415
    35  H    0.149632
    36  H    0.151875
    37  H    0.157636
    38  H    0.155247
    39  H    0.155270
    40  H    0.160063
 Sum of Mulliken charges =  -0.00000

 Dipole moment (field-independent basis, Debye):
    X=              0.0320    Y=              0.0057    Z=              0.0022  Tot=              0.0326
 Quadrupole moment (field-independent basis, Debye-Ang):
   XX=            -85.4968   YY=            -85.3080   ZZ=            -84.1150
   XY=              0.0187   XZ=              1.0344   YZ=              0.2665

 Normal termination of Gaussian 16 at Thu May  6 00:39:05 2021.
