 Gaussian 16, Revision A.03,
 Gaussian 16:  EM64L-G16RevA.03 25-Dec-2016

 -------------
 #p 6-31g* mp2
 -------------

 ------------------------------------------------------
 Input file generated by CHIRIPA (05-May-2021 14:53:12)
 ------------------------------------------------------
 Symbolic Z-matrix:
 Charge =  0 Multiplicity = 1

                         Standard orientation:
 ---------------------------------------------------------------------
 Center     Atomic      Atomic             Coordinates (Angstroms)
 Number     Number       Type             X           Y           Z
 ---------------------------------------------------------------------
      1          6           0        2.289964    1.673892   -0.248680
      2          6           0        0.792964    1.877706   -0.013231
      3          6           0        0.345976    3.318360   -0.263259
      4          1           0        2.853399    2.352954    0.405812
      5          1           0        2.534065    1.960603   -1.280962
      6          1           0        0.551516    1.589385    1.017879
      7          1           0        0.233030    1.197944   -0.668223
      8          1           0        0.558399    3.613927   -1.295788
      9          1           0        0.878693    4.007592    0.399894
     10          1           0       -0.727496    3.441601   -0.089104
     11          6           0        2.752024    0.238707   -0.002769
     12          6           0        4.249023    0.034892   -0.238218
     13          6           0        4.696012   -1.405761    0.011809
     14          1           0        2.507923   -0.048005    1.029513
     15          1           0        2.188588   -0.440355   -0.657262
     16          1           0        4.808957    0.714654    0.416773
     17          1           0        4.490472    0.323213   -1.269329
     18          1           0        4.163294   -2.094994   -0.651344
     19          1           0        4.483589   -1.701329    1.044339
     20          1           0        5.769484   -1.529003   -0.162346
     21          6           0       -4.018685    0.712991   -0.088808
     22          6           0       -3.208315    0.786420    1.048921
     23          6           0       -2.070510   -0.017858    1.163312
     24          6           0       -1.771421   -0.888266    0.116304
     25          6           0       -2.559011   -0.984376   -1.029888
     26          6           0       -3.692023   -0.170615   -1.122759
     27          1           0       -4.900698    1.341457   -0.169312
     28          1           0       -3.459566    1.471720    1.853460
     29          1           0       -1.425675    0.018737    2.032948
     30          1           0       -2.282850   -1.677215   -1.815463
     31          1           0       -4.319536   -0.229764   -2.007504
     32          7           0       -0.569415   -1.744739    0.226014
     33          8           0       -0.327617   -2.503382   -0.710272
     34          8           0        0.108159   -1.641181    1.246212
 ---------------------------------------------------------------------

 SCF Done:  E(RHF) =  -669.534684539     A.U. after   15 cycles
 E2 =    -0.2095673751D+01 EUMP2 =    -0.67163035828983D+03

 The electronic state is 1-A.
 Alpha  occ. eigenvalues --  -20.60935 -20.60897 -15.85912 -11.31214 -11.27827
 Alpha  occ. eigenvalues --  -11.27808 -11.27564 -11.26823 -11.26812 -11.21305
 Alpha  occ. eigenvalues --  -11.20978 -11.20753 -11.20635 -11.20179 -11.19960
 Alpha  occ. eigenvalues --   -1.59961  -1.39521  -1.19426  -1.08827  -1.07697
 Alpha  occ. eigenvalues --   -1.04825  -1.02870  -0.95671  -0.95295  -0.86344
 Alpha  occ. eigenvalues --   -0.86199  -0.82512  -0.79032  -0.77614  -0.77379
 Alpha  occ. eigenvalues --   -0.72160  -0.71242  -0.70541  -0.65081  -0.64840
 Alpha  occ. eigenvalues --   -0.64328  -0.62181  -0.60280  -0.58766  -0.56915
 Alpha  occ. eigenvalues --   -0.55331  -0.54578  -0.53144  -0.52920  -0.52062
 Alpha  occ. eigenvalues --   -0.51695  -0.49235  -0.48932  -0.48920  -0.47292
 Alpha  occ. eigenvalues --   -0.46068  -0.45457  -0.44857  -0.44297  -0.43070
 Alpha  occ. eigenvalues --   -0.37340  -0.36386
 Alpha virt. eigenvalues --    0.04920   0.11200   0.16402   0.21129   0.23432
 Alpha virt. eigenvalues --    0.24935   0.26372   0.27313   0.27590   0.28575
 Alpha virt. eigenvalues --    0.28978   0.30995   0.31610   0.32033   0.32286

 Mulliken charges:
               1
     1  C   -0.297810
     2  C   -0.300586
     3  C   -0.475176
     4  H    0.146427
     5  H    0.146510
     6  H    0.149579
     7  H    0.148859
     8  H    0.155181
     9  H    0.154433
    10  H    0.154031
    11  C   -0.302886
    12  C   -0.299728
    13  C   -0.474990
    14  H    0.164079
    15  H    0.155921
    16  H    0.146955
    17  H    0.147248
    18  H    0.161476
    19  H    0.158378
    20  H    0.154219
    21  C   -0.170511
    22  C   -0.219615
    23  C   -0.165245
    24  C    0.158763
    25  C   -0.172708
    26  C   -0.218315
    27  H    0.225974
    28  H    0.223762
    29  H    0.274908
    30  H    0.275640
    31  H    0.223623
    32  N    0.490442
    33  O   -0.461160
    34  O   -0.457682
 Sum of Mulliken charges =  -0.00000

 Dipole moment (field-independent basis, Debye):
    X=             -4.3492    Y=              2.7842    Z=             -0.2928  Tot=              5.1724
 Quadrupole moment (field-independent basis, Debye-Ang):
   XX=            -80.9775   YY=           -101.3928   ZZ=            -90.0172
   XY=             -1.1028   XZ=              1.5776   YZ=              3.1476

 Normal termination of Gaussian 16 at Thu May  6 07:18:42 2021.
