 Gaussian 16, Revision A.03,
 Gaussian 16:  EM64L-G16RevA.03 25-Dec-2016

 -------------
 #p 6-31g* mp2
 -------------

 ------------------------------------------------------
 Input file generated by CHIRIPA (05-May-2021 14:51:11)
 ------------------------------------------------------
 Symbolic Z-matrix:
 Charge =  0 Multiplicity = 1

                         Standard orientation:
 ---------------------------------------------------------------------
 Center     Atomic      Atomic             Coordinates (Angstroms)
 Number     Number       Type             X           Y           Z
 ---------------------------------------------------------------------
      1          6           0        2.676578   -1.272419    0.226006
      2          6           0        1.320848   -1.299680   -0.480562
      3          6           0        0.394319   -2.389248    0.059975
      4          1           0        3.159289   -2.253309    0.117416
      5          1           0        2.518158   -1.119476    1.302532
      6          1           0        1.481849   -1.451143   -1.555621
      7          1           0        0.841393   -0.318552   -0.370441
      8          1           0        0.204319   -2.238629    1.127596
      9          1           0        0.848414   -3.377655   -0.064319
     10          1           0       -0.569188   -2.390839   -0.459170
     11          6           0        3.613913   -0.188471   -0.303321
     12          6           0        4.969643   -0.161211    0.403247
     13          6           0        5.896172    0.928357   -0.137289
     14          1           0        3.772333   -0.341414   -1.379846
     15          1           0        3.131202    0.792418   -0.194731
     16          1           0        5.449098   -1.142339    0.293126
     17          1           0        4.808642   -0.009748    1.478307
     18          1           0        5.442077    1.916765   -0.012996
     19          1           0        6.086172    0.777739   -1.204911
     20          1           0        6.859679    0.929949    0.381856
     21          6           0       -3.470652    0.107770    0.338355
     22          6           0       -4.688033   -0.378642   -0.448646
     23          6           0       -5.328097   -1.625097    0.163290
     24          1           0       -2.728005   -0.700222    0.389046
     25          1           0       -3.772712    0.320061    1.373289
     26          1           0       -4.384061   -0.588633   -1.482145
     27          1           0       -5.427787    0.430666   -0.497633
     28          1           0       -5.658810   -1.424962    1.187582
     29          1           0       -4.609154   -2.450053    0.197476
     30          1           0       -6.196467   -1.955609   -0.415118
     31          6           0       -2.819839    1.353120   -0.261040
     32          6           0       -1.602458    1.839533    0.525960
     33          6           0       -0.962394    3.085987   -0.085975
     34          1           0       -2.517780    1.140830   -1.295974
     35          1           0       -3.562486    2.161112   -0.311731
     36          1           0       -0.862703    1.030225    0.574947
     37          1           0       -1.906430    2.049524    1.559459
     38          1           0       -1.681338    3.910943   -0.120162
     39          1           0       -0.631682    2.885852   -1.110268
     40          1           0       -0.094024    3.416500    0.492432
 ---------------------------------------------------------------------

 SCF Done:  E(RHF) =  -470.733303187     A.U. after   11 cycles
 E2 =    -0.1583352193D+01 EUMP2 =    -0.47231665538054D+03

 The electronic state is 1-A.
 Alpha  occ. eigenvalues --  -11.21652 -11.21617 -11.21603 -11.21590 -11.21437
 Alpha  occ. eigenvalues --  -11.21393 -11.21375 -11.21329 -11.21157 -11.21100
 Alpha  occ. eigenvalues --  -11.21080 -11.21057  -1.08475  -1.08418  -1.03583
 Alpha  occ. eigenvalues --   -1.03524  -0.96023  -0.95978  -0.87043  -0.86991
 Alpha  occ. eigenvalues --   -0.79684  -0.79552  -0.78300  -0.78218  -0.65236
 Alpha  occ. eigenvalues --   -0.64949  -0.61125  -0.60789  -0.59393  -0.59344
 Alpha  occ. eigenvalues --   -0.57635  -0.57589  -0.55312  -0.55266  -0.52730
 Alpha  occ. eigenvalues --   -0.52674  -0.52456  -0.52390  -0.50024  -0.49870
 Alpha  occ. eigenvalues --   -0.48066  -0.47839  -0.46887  -0.46438  -0.45918
 Alpha  occ. eigenvalues --   -0.45776  -0.45741  -0.45485  -0.43819  -0.43782
 Alpha virt. eigenvalues --    0.19878   0.22916   0.23780   0.24269   0.26300
 Alpha virt. eigenvalues --    0.26859   0.27063   0.27443   0.28527   0.29644
 Alpha virt. eigenvalues --    0.29982   0.31556   0.31681   0.31721   0.32465

 Mulliken charges:
               1
     1  C   -0.297909
     2  C   -0.307593
     3  C   -0.477514
     4  H    0.149854
     5  H    0.149704
     6  H    0.152240
     7  H    0.158566
     8  H    0.155982
     9  H    0.155812
    10  H    0.160905
    11  C   -0.298520
    12  C   -0.299707
    13  C   -0.475747
    14  H    0.149547
    15  H    0.150018
    16  H    0.151956
    17  H    0.152007
    18  H    0.155326
    19  H    0.155199
    20  H    0.160308
    21  C   -0.302476
    22  C   -0.299558
    23  C   -0.475727
    24  H    0.153928
    25  H    0.149387
    26  H    0.151680
    27  H    0.151905
    28  H    0.155189
    29  H    0.155314
    30  H    0.160185
    31  C   -0.297692
    32  C   -0.307338
    33  C   -0.475898
    34  H    0.149526
    35  H    0.149708
    36  H    0.158564
    37  H    0.152089
    38  H    0.155630
    39  H    0.155585
    40  H    0.159565
 Sum of Mulliken charges =  -0.00000

 Dipole moment (field-independent basis, Debye):
    X=              0.0188    Y=             -0.0104    Z=              0.0025  Tot=              0.0216
 Quadrupole moment (field-independent basis, Debye-Ang):
   XX=            -85.2291   YY=            -85.3435   ZZ=            -84.1675
   XY=             -1.7161   XZ=             -0.2129   YZ=              1.2910

 Normal termination of Gaussian 16 at Wed May  5 23:04:46 2021.
