 Gaussian 16, Revision A.03,
 Gaussian 16:  EM64L-G16RevA.03 25-Dec-2016

 -------------
 #p 6-31g* mp2
 -------------

 ------------------------------------------------------
 Input file generated by CHIRIPA (05-May-2021 14:55:19)
 ------------------------------------------------------
 Symbolic Z-matrix:
 Charge =  0 Multiplicity = 1

                         Standard orientation:
 ---------------------------------------------------------------------
 Center     Atomic      Atomic             Coordinates (Angstroms)
 Number     Number       Type             X           Y           Z
 ---------------------------------------------------------------------
      1          6           0        0.679283   -0.382946    1.177479
      2          6           0        0.795746   -0.329227   -0.215386
      3          6           0        2.041389   -0.124921   -0.816367
      4          6           0        3.154729    0.022386    0.009505
      5          6           0        3.071052   -0.026308    1.400159
      6          6           0        1.815305   -0.231581    1.979392
      7          1           0       -0.292287   -0.542031    1.635889
      8          1           0       -0.084792   -0.446455   -0.840650
      9          1           0        2.160102   -0.079075   -1.892111
     10          1           0        3.966852    0.093963    1.997231
     11          1           0        1.727851   -0.272853    3.061378
     12          7           0        4.478784    0.239188   -0.615215
     13          8           0        5.444410    0.366085    0.134518
     14          8           0        4.525881    0.278115   -1.842775
     15          6           0       -3.488953    0.703852    0.053524
     16          6           0       -4.425410    1.853475   -0.319842
     17          6           0       -3.871885    3.221023    0.081676
     18          1           0       -3.307829    0.723994    1.136915
     19          1           0       -2.514672    0.862238   -0.429264
     20          1           0       -5.398072    1.692248    0.162392
     21          1           0       -4.604479    1.830478   -1.402440
     22          1           0       -2.911824    3.407600   -0.410332
     23          1           0       -3.709927    3.268585    1.163392
     24          1           0       -4.557236    4.028389   -0.194575
     25          6           0       -4.028509   -0.669687   -0.341439
     26          6           0       -3.092053   -1.819310    0.031927
     27          6           0       -3.645578   -3.186858   -0.369591
     28          1           0       -5.002791   -0.828073    0.141349
     29          1           0       -4.209634   -0.689830   -1.424828
     30          1           0       -2.912984   -1.796313    1.114527
     31          1           0       -2.119390   -1.658084   -0.450306
     32          1           0       -3.807536   -3.234421   -1.451306
     33          1           0       -4.605639   -3.373435    0.122417
     34          1           0       -2.960227   -3.994224   -0.093339
 ---------------------------------------------------------------------

 SCF Done:  E(RHF) =  -669.535386818     A.U. after   15 cycles
 E2 =    -0.2092228459D+01 EUMP2 =    -0.67162761527780D+03

 The electronic state is 1-A.
 Alpha  occ. eigenvalues --  -20.60712 -20.60707 -15.85766 -11.31113 -11.27691
 Alpha  occ. eigenvalues --  -11.27687 -11.27383 -11.26683 -11.26660 -11.22881
 Alpha  occ. eigenvalues --  -11.22497 -11.22413 -11.22388 -11.22010 -11.21727
 Alpha  occ. eigenvalues --   -1.59789  -1.39343  -1.19285  -1.09476  -1.08673
 Alpha  occ. eigenvalues --   -1.04692  -1.04476  -0.96889  -0.95513  -0.87906
 Alpha  occ. eigenvalues --   -0.86092  -0.82350  -0.80582  -0.79317  -0.77405
 Alpha  occ. eigenvalues --   -0.71984  -0.71112  -0.70368  -0.66155  -0.64932
 Alpha  occ. eigenvalues --   -0.64682  -0.62100  -0.61820  -0.60265  -0.58515
 Alpha  occ. eigenvalues --   -0.56164  -0.55166  -0.53571  -0.53313  -0.53006
 Alpha  occ. eigenvalues --   -0.52802  -0.50834  -0.48874  -0.48745  -0.48739
 Alpha  occ. eigenvalues --   -0.47612  -0.46800  -0.46728  -0.44753  -0.44747
 Alpha  occ. eigenvalues --   -0.37246  -0.36296
 Alpha virt. eigenvalues --    0.05134   0.11262   0.16626   0.18976   0.22650
 Alpha virt. eigenvalues --    0.23587   0.23660   0.25113   0.27121   0.28237
 Alpha virt. eigenvalues --    0.29717   0.30275   0.31062   0.31324   0.31639

 Mulliken charges:
               1
     1  C   -0.173127
     2  C   -0.224626
     3  C   -0.171415
     4  C    0.158517
     5  C   -0.170808
     6  C   -0.219282
     7  H    0.230264
     8  H    0.228734
     9  H    0.275366
    10  H    0.275302
    11  H    0.223105
    12  N    0.488001
    13  O   -0.460639
    14  O   -0.460719
    15  C   -0.301946
    16  C   -0.300206
    17  C   -0.476533
    18  H    0.147349
    19  H    0.145745
    20  H    0.154481
    21  H    0.154329
    22  H    0.156628
    23  H    0.155230
    24  H    0.163521
    25  C   -0.298330
    26  C   -0.306399
    27  C   -0.475682
    28  H    0.153979
    29  H    0.152856
    30  H    0.149204
    31  H    0.146943
    32  H    0.158317
    33  H    0.158775
    34  H    0.163064
 Sum of Mulliken charges =  -0.00000

 Dipole moment (field-independent basis, Debye):
    X=             -4.9417    Y=             -0.7662    Z=              2.1793  Tot=              5.4549
 Quadrupole moment (field-independent basis, Debye-Ang):
   XX=           -122.7339   YY=            -96.2297   ZZ=            -89.9067
   XY=             -2.6043   XZ=              8.8343   YZ=             -0.0447

 Normal termination of Gaussian 16 at Thu May  6 20:39:36 2021.
