 Gaussian 16, Revision A.03,
 Gaussian 16:  EM64L-G16RevA.03 25-Dec-2016

 -------------
 #p 6-31g* mp2
 -------------

 ------------------------------------------------------
 Input file generated by CHIRIPA (05-May-2021 14:51:09)
 ------------------------------------------------------
 Symbolic Z-matrix:
 Charge =  0 Multiplicity = 1

                         Standard orientation:
 ---------------------------------------------------------------------
 Center     Atomic      Atomic             Coordinates (Angstroms)
 Number     Number       Type             X           Y           Z
 ---------------------------------------------------------------------
      1          6           0       -2.928968    0.304848   -0.665745
      2          6           0       -3.858774   -0.754409   -0.072938
      3          6           0       -4.497452   -1.644179   -1.139799
      4          1           0       -3.495315    0.926487   -1.372683
      5          1           0       -2.141714   -0.193101   -1.248558
      6          1           0       -4.643237   -0.254673    0.509727
      7          1           0       -3.290193   -1.373477    0.632815
      8          1           0       -3.727796   -2.168873   -1.715061
      9          1           0       -5.088528   -1.043713   -1.838849
     10          1           0       -5.158204   -2.394231   -0.694054
     11          6           0       -2.282896    1.202158    0.388369
     12          6           0       -1.353091    2.261415   -0.204438
     13          6           0       -0.714412    3.151185    0.862423
     14          1           0       -3.070151    1.700107    0.971183
     15          1           0       -1.716549    0.580519    1.095307
     16          1           0       -1.921671    2.880483   -0.910191
     17          1           0       -0.568627    1.761680   -0.787103
     18          1           0       -0.123336    2.550719    1.561473
     19          1           0       -1.484068    3.675879    1.437685
     20          1           0       -0.053660    3.901237    0.416678
     21          6           0        2.992594   -0.193646   -0.208420
     22          6           0        4.491864   -0.471876   -0.321400
     23          6           0        5.251796    0.657246   -1.018093
     24          1           0        2.578447   -0.036824   -1.213823
     25          1           0        2.841454    0.745372    0.341850
     26          1           0        4.640088   -1.410802   -0.870093
     27          1           0        4.902453   -0.628243    0.684374
     28          1           0        5.133505    1.597148   -0.469283
     29          1           0        4.869649    0.810143   -2.032582
     30          1           0        6.321709    0.437604   -1.088101
     31          6           0        2.219269   -1.313360    0.485796
     32          6           0        0.720000   -1.035129    0.598776
     33          6           0       -0.039931   -2.164252    1.295468
     34          1           0        2.370410   -2.252377   -0.064475
     35          1           0        2.633417   -1.470182    1.491198
     36          1           0        0.309411   -0.878763   -0.406998
     37          1           0        0.571776   -0.096204    1.147469
     38          1           0        0.342215   -2.317149    2.309957
     39          1           0        0.078359   -3.104155    0.746659
     40          1           0       -1.109846   -1.944611    1.365477
 ---------------------------------------------------------------------

 SCF Done:  E(RHF) =  -470.731658689     A.U. after   11 cycles
 E2 =    -0.1586019805D+01 EUMP2 =    -0.47231767849487D+03

 The electronic state is 1-A.
 Alpha  occ. eigenvalues --  -11.21689 -11.21643 -11.21584 -11.21515 -11.21468
 Alpha  occ. eigenvalues --  -11.21408 -11.21345 -11.21244 -11.21157 -11.21097
 Alpha  occ. eigenvalues --  -11.21060 -11.21057  -1.08549  -1.08344  -1.03616
 Alpha  occ. eigenvalues --   -1.03489  -0.96074  -0.95927  -0.87081  -0.86954
 Alpha  occ. eigenvalues --   -0.79712  -0.79540  -0.78339  -0.78205  -0.65156
 Alpha  occ. eigenvalues --   -0.65108  -0.61141  -0.60789  -0.59409  -0.59291
 Alpha  occ. eigenvalues --   -0.57687  -0.57543  -0.55332  -0.55213  -0.52800
 Alpha  occ. eigenvalues --   -0.52639  -0.52464  -0.52369  -0.49996  -0.49911
 Alpha  occ. eigenvalues --   -0.48110  -0.47777  -0.46850  -0.46575  -0.46017
 Alpha  occ. eigenvalues --   -0.45941  -0.45503  -0.45297  -0.43820  -0.43737
 Alpha virt. eigenvalues --    0.20020   0.22323   0.23455   0.24382   0.24942
 Alpha virt. eigenvalues --    0.26303   0.26538   0.28165   0.28860   0.29254
 Alpha virt. eigenvalues --    0.30202   0.31436   0.31677   0.31939   0.32373

 Mulliken charges:
               1
     1  C   -0.300380
     2  C   -0.305380
     3  C   -0.475278
     4  H    0.149759
     5  H    0.151091
     6  H    0.152195
     7  H    0.156211
     8  H    0.155027
     9  H    0.155206
    10  H    0.160208
    11  C   -0.303458
    12  C   -0.301496
    13  C   -0.477377
    14  H    0.149049
    15  H    0.156758
    16  H    0.151695
    17  H    0.154717
    18  H    0.154953
    19  H    0.155207
    20  H    0.160274
    21  C   -0.299082
    22  C   -0.299643
    23  C   -0.475789
    24  H    0.149389
    25  H    0.150226
    26  H    0.152040
    27  H    0.152123
    28  H    0.155435
    29  H    0.155236
    30  H    0.160400
    31  C   -0.297758
    32  C   -0.306866
    33  C   -0.484614
    34  H    0.149616
    35  H    0.149868
    36  H    0.155102
    37  H    0.156185
    38  H    0.155860
    39  H    0.155900
    40  H    0.167389
 Sum of Mulliken charges =  -0.00000

 Dipole moment (field-independent basis, Debye):
    X=              0.0356    Y=             -0.0222    Z=              0.0041  Tot=              0.0422
 Quadrupole moment (field-independent basis, Debye-Ang):
   XX=            -84.9735   YY=            -85.2799   ZZ=            -84.6090
   XY=             -1.2846   XZ=              0.1700   YZ=              0.2292

 Normal termination of Gaussian 16 at Thu May  6 05:18:38 2021.
