 Gaussian 16, Revision A.03,
 Gaussian 16:  EM64L-G16RevA.03 25-Dec-2016

 -------------
 #p 6-31g* mp2
 -------------

 ------------------------------------------------------
 Input file generated by CHIRIPA (05-May-2021 14:53:18)
 ------------------------------------------------------
 Symbolic Z-matrix:
 Charge =  0 Multiplicity = 1

                         Standard orientation:
 ---------------------------------------------------------------------
 Center     Atomic      Atomic             Coordinates (Angstroms)
 Number     Number       Type             X           Y           Z
 ---------------------------------------------------------------------
      1          6           0        2.429684    1.200619   -0.031180
      2          6           0        2.253271    1.984833   -1.331900
      3          6           0        1.284778    3.159124   -1.187479
      4          1           0        1.450341    0.831145    0.302468
      5          1           0        2.790818    1.880676    0.752720
      6          1           0        1.893896    1.303205   -2.113468
      7          1           0        3.233175    2.352321   -1.662591
      8          1           0        1.641637    3.861549   -0.427314
      9          1           0        0.294749    2.806473   -0.880752
     10          1           0        1.173481    3.705859   -2.129048
     11          6           0        3.394962    0.023557   -0.159601
     12          6           0        3.571375   -0.760657    1.141118
     13          6           0        4.539869   -1.934947    0.996698
     14          1           0        3.033828   -0.656500   -0.943502
     15          1           0        4.374305    0.393031   -0.493249
     16          1           0        2.591471   -1.128144    1.471810
     17          1           0        3.930750   -0.079029    1.922687
     18          1           0        5.529898   -1.582296    0.689971
     19          1           0        4.183010   -2.637373    0.236533
     20          1           0        4.651165   -2.481683    1.938267
     21          6           0       -3.499904    1.284460    1.400873
     22          6           0       -4.142619    0.631004    0.344258
     23          6           0       -3.473793   -0.347286   -0.397475
     24          6           0       -2.156858   -0.648602   -0.053703
     25          6           0       -1.489360   -0.015173    0.993439
     26          6           0       -2.177657    0.959859    1.721526
     27          1           0       -4.027027    2.043153    1.971769
     28          1           0       -5.169451    0.881051    0.092988
     29          1           0       -3.947410   -0.868722   -1.220402
     30          1           0       -0.465323   -0.285963    1.220237
     31          1           0       -1.676006    1.465711    2.541590
     32          7           0       -1.438496   -1.682548   -0.831719
     33          8           0       -0.278645   -1.929828   -0.508862
     34          8           0       -2.048895   -2.226096   -1.749654
 ---------------------------------------------------------------------

 SCF Done:  E(RHF) =  -669.535975255     A.U. after   15 cycles
 E2 =    -0.2092595668D+01 EUMP2 =    -0.67162857092300D+03

 The electronic state is 1-A.
 Alpha  occ. eigenvalues --  -20.60922 -20.60915 -15.85963 -11.31293 -11.27850
 Alpha  occ. eigenvalues --  -11.27845 -11.27581 -11.26864 -11.26854 -11.21376
 Alpha  occ. eigenvalues --  -11.21192 -11.21175 -11.21014 -11.20860 -11.20555
 Alpha  occ. eigenvalues --   -1.59986  -1.39542  -1.19461  -1.08859  -1.08090
 Alpha  occ. eigenvalues --   -1.04857  -1.03205  -0.95711  -0.95655  -0.86685
 Alpha  occ. eigenvalues --   -0.86256  -0.82532  -0.79291  -0.77956  -0.77560
 Alpha  occ. eigenvalues --   -0.72184  -0.71304  -0.70571  -0.65117  -0.64945
 Alpha  occ. eigenvalues --   -0.64616  -0.62203  -0.60584  -0.59049  -0.57286
 Alpha  occ. eigenvalues --   -0.55369  -0.54935  -0.53187  -0.52956  -0.52369
 Alpha  occ. eigenvalues --   -0.52096  -0.49589  -0.48943  -0.48934  -0.47613
 Alpha  occ. eigenvalues --   -0.46313  -0.45486  -0.45316  -0.44925  -0.43459
 Alpha  occ. eigenvalues --   -0.37432  -0.36438
 Alpha virt. eigenvalues --    0.04894   0.11115   0.16423   0.20348   0.23092
 Alpha virt. eigenvalues --    0.24338   0.25215   0.27411   0.27718   0.28181
 Alpha virt. eigenvalues --    0.29548   0.30993   0.31505   0.31942   0.32361

 Mulliken charges:
               1
     1  C   -0.300576
     2  C   -0.300120
     3  C   -0.476826
     4  H    0.145719
     5  H    0.144659
     6  H    0.158139
     7  H    0.151916
     8  H    0.152145
     9  H    0.153072
    10  H    0.160470
    11  C   -0.298766
    12  C   -0.300961
    13  C   -0.476380
    14  H    0.163608
    15  H    0.146990
    16  H    0.154437
    17  H    0.146187
    18  H    0.152878
    19  H    0.162564
    20  H    0.157946
    21  C   -0.170470
    22  C   -0.218279
    23  C   -0.170634
    24  C    0.157363
    25  C   -0.173537
    26  C   -0.220156
    27  H    0.226244
    28  H    0.223943
    29  H    0.275828
    30  H    0.281256
    31  H    0.225030
    32  N    0.488585
    33  O   -0.463119
    34  O   -0.459154
 Sum of Mulliken charges =  -0.00000

 Dipole moment (field-independent basis, Debye):
    X=             -2.6216    Y=              3.4930    Z=              2.6265  Tot=              5.0963
 Quadrupole moment (field-independent basis, Debye-Ang):
   XX=            -80.5615   YY=           -100.7543   ZZ=            -93.8753
   XY=             -5.0652   XZ=             -3.5034   YZ=             -1.1626

 Normal termination of Gaussian 16 at Thu May  6 19:01:25 2021.
