 Gaussian 16, Revision A.03,
 Gaussian 16:  EM64L-G16RevA.03 25-Dec-2016

 -------------
 #p 6-31g* mp2
 -------------

 ------------------------------------------------------
 Input file generated by CHIRIPA (05-May-2021 14:55:19)
 ------------------------------------------------------
 Symbolic Z-matrix:
 Charge =  0 Multiplicity = 1

                         Standard orientation:
 ---------------------------------------------------------------------
 Center     Atomic      Atomic             Coordinates (Angstroms)
 Number     Number       Type             X           Y           Z
 ---------------------------------------------------------------------
      1          6           0        3.453908   -1.419055    0.681498
      2          6           0        2.802385   -0.697960    1.687511
      3          6           0        2.069533    0.451240    1.376362
      4          6           0        2.009014    0.852635    0.042754
      5          6           0        2.647183    0.155541   -0.981985
      6          6           0        3.374368   -0.990758   -0.647696
      7          1           0        4.021004   -2.310655    0.932194
      8          1           0        2.862425   -1.028239    2.720640
      9          1           0        1.555476    1.028326    2.135397
     10          1           0        2.569079    0.509462   -2.002797
     11          1           0        3.879335   -1.548795   -1.431052
     12          7           0        1.236176    2.067706   -0.298894
     13          8           0        1.198270    2.400497   -1.481455
     14          8           0        0.682966    2.664281    0.622352
     15          6           0       -3.422558   -0.744623    0.192475
     16          6           0       -4.040314    0.627926   -0.076734
     17          6           0       -5.416554    0.793615    0.568481
     18          1           0       -4.100432   -1.524371   -0.180921
     19          1           0       -3.340292   -0.895468    1.277774
     20          1           0       -4.120113    0.776706   -1.161220
     21          1           0       -3.360801    1.404502    0.297175
     22          1           0       -5.350114    0.671599    1.654436
     23          1           0       -6.113741    0.040236    0.187755
     24          1           0       -5.839747    1.781898    0.363388
     25          6           0       -2.046593   -0.925462   -0.446073
     26          6           0       -1.428838   -2.298010   -0.176865
     27          6           0       -0.052597   -2.463700   -0.822079
     28          1           0       -2.128858   -0.774617   -1.531373
     29          1           0       -1.368718   -0.145714   -0.072678
     30          1           0       -2.108350   -3.074587   -0.550773
     31          1           0       -1.349038   -2.446790    0.907622
     32          1           0        0.644590   -1.710321   -0.441353
     33          1           0       -0.119036   -2.341684   -1.908035
     34          1           0        0.370596   -3.451983   -0.616987
 ---------------------------------------------------------------------

 SCF Done:  E(RHF) =  -669.534005629     A.U. after   15 cycles
 E2 =    -0.2094934468D+01 EUMP2 =    -0.67162894009671D+03

 The electronic state is 1-A.
 Alpha  occ. eigenvalues --  -20.60869 -20.60864 -15.85921 -11.31294 -11.27895
 Alpha  occ. eigenvalues --  -11.27814 -11.27587 -11.26898 -11.26825 -11.21457
 Alpha  occ. eigenvalues --  -11.21112 -11.21064 -11.21007 -11.20885 -11.20627
 Alpha  occ. eigenvalues --   -1.59942  -1.39494  -1.19500  -1.08865  -1.08115
 Alpha  occ. eigenvalues --   -1.04881  -1.03220  -0.95721  -0.95668  -0.86720
 Alpha  occ. eigenvalues --   -0.86263  -0.82520  -0.79300  -0.77914  -0.77573
 Alpha  occ. eigenvalues --   -0.72134  -0.71270  -0.70565  -0.65116  -0.64860
 Alpha  occ. eigenvalues --   -0.64757  -0.62213  -0.60668  -0.59077  -0.57349
 Alpha  occ. eigenvalues --   -0.55362  -0.55252  -0.53373  -0.52950  -0.52373
 Alpha  occ. eigenvalues --   -0.51883  -0.49497  -0.48897  -0.48888  -0.47549
 Alpha  occ. eigenvalues --   -0.46249  -0.45440  -0.45369  -0.44875  -0.43487
 Alpha  occ. eigenvalues --   -0.37460  -0.36445
 Alpha virt. eigenvalues --    0.04957   0.11137   0.16417   0.21326   0.23068
 Alpha virt. eigenvalues --    0.24588   0.26720   0.27247   0.27626   0.28260
 Alpha virt. eigenvalues --    0.28413   0.30923   0.31712   0.32059   0.32282

 Mulliken charges:
               1
     1  C   -0.169930
     2  C   -0.217136
     3  C   -0.173931
     4  C    0.159803
     5  C   -0.174798
     6  C   -0.215520
     7  H    0.226390
     8  H    0.224236
     9  H    0.276118
    10  H    0.276201
    11  H    0.224525
    12  N    0.489337
    13  O   -0.459114
    14  O   -0.461243
    15  C   -0.297678
    16  C   -0.301861
    17  C   -0.475623
    18  H    0.147815
    19  H    0.147272
    20  H    0.152788
    21  H    0.161178
    22  H    0.153672
    23  H    0.152799
    24  H    0.161438
    25  C   -0.299088
    26  C   -0.297874
    27  C   -0.482410
    28  H    0.151598
    29  H    0.149113
    30  H    0.150453
    31  H    0.148240
    32  H    0.168585
    33  H    0.151967
    34  H    0.152680
 Sum of Mulliken charges =  -0.00000

 Dipole moment (field-independent basis, Debye):
    X=              2.8619    Y=             -4.1325    Z=              1.1908  Tot=              5.1659
 Quadrupole moment (field-independent basis, Debye-Ang):
   XX=            -84.9830   YY=           -103.0698   ZZ=            -89.4635
   XY=             -6.6054   XZ=              2.1089   YZ=              1.5985

 Normal termination of Gaussian 16 at Wed May  5 15:51:32 2021.
