 Gaussian 16, Revision A.03,
 Gaussian 16:  EM64L-G16RevA.03 25-Dec-2016

 -------------
 #p 6-31g* mp2
 -------------

 ------------------------------------------------------
 Input file generated by CHIRIPA (05-May-2021 14:51:14)
 ------------------------------------------------------
 Symbolic Z-matrix:
 Charge =  0 Multiplicity = 1

                         Standard orientation:
 ---------------------------------------------------------------------
 Center     Atomic      Atomic             Coordinates (Angstroms)
 Number     Number       Type             X           Y           Z
 ---------------------------------------------------------------------
      1          6           0        3.917056    0.271420    0.184073
      2          6           0        5.303165    0.227881   -0.459971
      3          6           0        6.112490    1.500326   -0.207641
      4          1           0        3.367104    1.140230   -0.202797
      5          1           0        4.027868    0.428090    1.266002
      6          1           0        5.189817    0.069957   -1.540169
      7          1           0        5.849811   -0.641034   -0.071667
      8          1           0        6.255049    1.659632    0.866091
      9          1           0        5.591305    2.374664   -0.610755
     10          1           0        7.099877    1.447761   -0.676856
     11          6           0        3.095931   -0.993580   -0.059350
     12          6           0        1.709823   -0.950041    0.584693
     13          6           0        0.900498   -2.222486    0.332363
     14          1           0        2.985119   -1.150250   -1.141279
     15          1           0        3.645884   -1.862390    0.327519
     16          1           0        1.163177   -0.081126    0.196389
     17          1           0        1.823171   -0.792117    1.664891
     18          1           0        1.421683   -3.096824    0.735477
     19          1           0        0.757939   -2.381792   -0.741369
     20          1           0       -0.086890   -2.169921    0.801578
     21          6           0       -3.154390    0.990805    0.188441
     22          6           0       -3.831114    2.285021   -0.264365
     23          6           0       -3.115090    3.536153    0.245313
     24          1           0       -3.113904    0.970306    1.286115
     25          1           0       -2.113251    0.987296   -0.162861
     26          1           0       -4.871070    2.285462    0.086505
     27          1           0       -3.870166    2.302352   -1.361082
     28          1           0       -2.081989    3.562910   -0.116056
     29          1           0       -3.088579    3.545924    1.339755
     30          1           0       -3.615601    4.449855   -0.090093
     31          6           0       -3.858597   -0.268645   -0.313163
     32          6           0       -3.181874   -1.562861    0.139643
     33          6           0       -3.897898   -2.813993   -0.370035
     34          1           0       -4.899736   -0.265136    0.038139
     35          1           0       -3.899084   -0.248146   -1.410837
     36          1           0       -3.142822   -1.580192    1.236360
     37          1           0       -2.141918   -1.563302   -0.211227
     38          1           0       -3.924408   -2.823763   -1.464478
     39          1           0       -4.930999   -2.840751   -0.008666
     40          1           0       -3.397387   -3.727695   -0.034629
 ---------------------------------------------------------------------

 SCF Done:  E(RHF) =  -470.733136307     A.U. after   11 cycles
 E2 =    -0.1582730970D+01 EUMP2 =    -0.47231586727674D+03

 The electronic state is 1-A.
 Alpha  occ. eigenvalues --  -11.21607 -11.21606 -11.21605 -11.21547 -11.21409
 Alpha  occ. eigenvalues --  -11.21402 -11.21349 -11.21340 -11.21076 -11.21073
 Alpha  occ. eigenvalues --  -11.21045 -11.21029  -1.08441  -1.08416  -1.03552
 Alpha  occ. eigenvalues --   -1.03499  -0.95994  -0.95956  -0.87025  -0.86961
 Alpha  occ. eigenvalues --   -0.79664  -0.79522  -0.78246  -0.78241  -0.65102
 Alpha  occ. eigenvalues --   -0.65023  -0.60992  -0.60875  -0.59497  -0.59207
 Alpha  occ. eigenvalues --   -0.57660  -0.57506  -0.55289  -0.55238  -0.52745
 Alpha  occ. eigenvalues --   -0.52625  -0.52434  -0.52354  -0.49970  -0.49866
 Alpha  occ. eigenvalues --   -0.48028  -0.47776  -0.46690  -0.46539  -0.45797
 Alpha  occ. eigenvalues --   -0.45772  -0.45717  -0.45680  -0.43806  -0.43701
 Alpha virt. eigenvalues --    0.21436   0.23165   0.23675   0.24470   0.26090
 Alpha virt. eigenvalues --    0.26791   0.26955   0.27333   0.28007   0.29058
 Alpha virt. eigenvalues --    0.30527   0.31391   0.31465   0.31911   0.32027

 Mulliken charges:
               1
     1  C   -0.298234
     2  C   -0.299649
     3  C   -0.475702
     4  H    0.149491
     5  H    0.149636
     6  H    0.151856
     7  H    0.151970
     8  H    0.155231
     9  H    0.155165
    10  H    0.160255
    11  C   -0.298313
    12  C   -0.300128
    13  C   -0.481486
    14  H    0.149324
    15  H    0.149807
    16  H    0.151776
    17  H    0.152228
    18  H    0.155029
    19  H    0.154042
    20  H    0.167563
    21  C   -0.298843
    22  C   -0.299636
    23  C   -0.475628
    24  H    0.149703
    25  H    0.149501
    26  H    0.152056
    27  H    0.151856
    28  H    0.154968
    29  H    0.155294
    30  H    0.160254
    31  C   -0.297702
    32  C   -0.306855
    33  C   -0.475536
    34  H    0.149419
    35  H    0.149415
    36  H    0.150870
    37  H    0.160399
    38  H    0.154996
    39  H    0.155001
    40  H    0.160608
 Sum of Mulliken charges =  -0.00000

 Dipole moment (field-independent basis, Debye):
    X=              0.0005    Y=             -0.0088    Z=              0.0089  Tot=              0.0125
 Quadrupole moment (field-independent basis, Debye-Ang):
   XX=            -85.0585   YY=            -86.3556   ZZ=            -83.4147
   XY=             -1.1575   XZ=             -0.3270   YZ=             -0.7533

 Normal termination of Gaussian 16 at Wed May  5 20:00:46 2021.
