 Gaussian 16, Revision A.03,
 Gaussian 16:  EM64L-G16RevA.03 25-Dec-2016

 -------------
 #p 6-31g* mp2
 -------------

 ------------------------------------------------------
 Input file generated by CHIRIPA (05-May-2021 14:51:14)
 ------------------------------------------------------
 Symbolic Z-matrix:
 Charge =  0 Multiplicity = 1

                         Standard orientation:
 ---------------------------------------------------------------------
 Center     Atomic      Atomic             Coordinates (Angstroms)
 Number     Number       Type             X           Y           Z
 ---------------------------------------------------------------------
      1          6           0        2.463482   -0.437943    0.589389
      2          6           0        2.538189   -1.964841    0.557959
      3          6           0        1.419655   -2.628106    1.362171
      4          1           0        2.507868   -0.096409    1.632620
      5          1           0        1.488580   -0.117331    0.196745
      6          1           0        3.513198   -2.282424    0.949257
      7          1           0        2.493812   -2.302770   -0.485329
      8          1           0        0.439409   -2.339944    0.968878
      9          1           0        1.464586   -2.319482    2.411616
     10          1           0        1.492169   -3.719574    1.326124
     11          6           0        3.575045    0.239564   -0.210072
     12          6           0        3.500338    1.766462   -0.178642
     13          6           0        4.618872    2.429727   -0.982854
     14          1           0        4.549947   -0.081048    0.182572
     15          1           0        3.530659   -0.101970   -1.253302
     16          1           0        3.544715    2.104391    0.864647
     17          1           0        2.525329    2.084045   -0.569940
     18          1           0        4.573941    2.121103   -2.032298
     19          1           0        5.599119    2.141565   -0.589561
     20          1           0        4.546358    3.521195   -0.946807
     21          6           0       -3.396515    0.754268   -0.299137
     22          6           0       -3.210434    1.758612    0.838691
     23          6           0       -3.971258    3.064139    0.605154
     24          1           0       -3.063275    1.211068   -1.241066
     25          1           0       -4.467570    0.539385   -0.417709
     26          1           0       -2.139935    1.970483    0.955992
     27          1           0       -3.543977    1.299301    1.778052
     28          1           0       -5.044930    2.872530    0.509680
     29          1           0       -3.632911    3.547525   -0.317050
     30          1           0       -3.824268    3.767638    1.430589
     31          6           0       -2.642013   -0.555889   -0.080180
     32          6           0       -2.828093   -1.560233   -1.218008
     33          6           0       -2.067269   -2.865760   -0.984472
     34          1           0       -1.570956   -0.341006    0.038392
     35          1           0       -2.975253   -1.012690    0.861749
     36          1           0       -2.494550   -1.100921   -2.157368
     37          1           0       -3.898591   -1.772105   -1.335310
     38          1           0       -2.405615   -3.349147   -0.062267
     39          1           0       -0.993597   -2.674150   -0.888998
     40          1           0       -2.214259   -3.569260   -1.809907
 ---------------------------------------------------------------------

 SCF Done:  E(RHF) =  -470.733145074     A.U. after   11 cycles
 E2 =    -0.1583175514D+01 EUMP2 =    -0.47231632058829D+03

 The electronic state is 1-A.
 Alpha  occ. eigenvalues --  -11.21635 -11.21630 -11.21611 -11.21602 -11.21444
 Alpha  occ. eigenvalues --  -11.21436 -11.21382 -11.21376 -11.21093 -11.21079
 Alpha  occ. eigenvalues --  -11.21078 -11.20984  -1.08470  -1.08443  -1.03572
 Alpha  occ. eigenvalues --   -1.03517  -0.96031  -0.95955  -0.87058  -0.86960
 Alpha  occ. eigenvalues --   -0.79670  -0.79547  -0.78321  -0.78218  -0.65175
 Alpha  occ. eigenvalues --   -0.65009  -0.61089  -0.60821  -0.59388  -0.59333
 Alpha  occ. eigenvalues --   -0.57670  -0.57550  -0.55451  -0.55127  -0.52696
 Alpha  occ. eigenvalues --   -0.52675  -0.52506  -0.52318  -0.50089  -0.49785
 Alpha  occ. eigenvalues --   -0.48066  -0.47793  -0.46776  -0.46525  -0.46000
 Alpha  occ. eigenvalues --   -0.45776  -0.45772  -0.45426  -0.43810  -0.43793
 Alpha virt. eigenvalues --    0.20038   0.23245   0.23468   0.24933   0.25268
 Alpha virt. eigenvalues --    0.26870   0.27040   0.27284   0.28633   0.29316
 Alpha virt. eigenvalues --    0.30819   0.31288   0.31660   0.31844   0.31963

 Mulliken charges:
               1
     1  C   -0.300190
     2  C   -0.300239
     3  C   -0.482323
     4  H    0.150130
     5  H    0.149824
     6  H    0.152205
     7  H    0.151553
     8  H    0.162826
     9  H    0.154862
    10  H    0.160257
    11  C   -0.298263
    12  C   -0.299592
    13  C   -0.475721
    14  H    0.149878
    15  H    0.149600
    16  H    0.152101
    17  H    0.151437
    18  H    0.155182
    19  H    0.155320
    20  H    0.160316
    21  C   -0.298234
    22  C   -0.299792
    23  C   -0.475727
    24  H    0.149477
    25  H    0.149847
    26  H    0.152242
    27  H    0.152161
    28  H    0.155185
    29  H    0.155111
    30  H    0.160400
    31  C   -0.302116
    32  C   -0.299727
    33  C   -0.479839
    34  H    0.151811
    35  H    0.150340
    36  H    0.151579
    37  H    0.152222
    38  H    0.155862
    39  H    0.159604
    40  H    0.160427
 Sum of Mulliken charges =  -0.00000

 Dipole moment (field-independent basis, Debye):
    X=             -0.0190    Y=             -0.0072    Z=              0.0071  Tot=              0.0216
 Quadrupole moment (field-independent basis, Debye-Ang):
   XX=            -84.5001   YY=            -86.0000   ZZ=            -84.1527
   XY=              0.4046   XZ=              0.4716   YZ=              0.1965

 Normal termination of Gaussian 16 at Wed May  5 18:25:07 2021.
