 Gaussian 16, Revision A.03,
 Gaussian 16:  EM64L-G16RevA.03 25-Dec-2016

 -------------
 #p 6-31g* mp2
 -------------

 ------------------------------------------------------
 Input file generated by CHIRIPA (05-May-2021 14:53:14)
 ------------------------------------------------------
 Symbolic Z-matrix:
 Charge =  0 Multiplicity = 1

                         Standard orientation:
 ---------------------------------------------------------------------
 Center     Atomic      Atomic             Coordinates (Angstroms)
 Number     Number       Type             X           Y           Z
 ---------------------------------------------------------------------
      1          6           0        5.642367   -0.227273    0.222239
      2          6           0        6.742341   -0.677449   -0.739729
      3          6           0        7.944649   -1.287899   -0.018896
      4          1           0        6.058462    0.504211    0.928455
      5          1           0        5.313791   -1.087976    0.821091
      6          1           0        7.067777    0.183548   -1.337552
      7          1           0        6.323531   -1.407803   -1.443858
      8          1           0        7.640630   -2.163436    0.563864
      9          1           0        8.389104   -0.563043    0.670773
     10          1           0        8.718911   -1.602808   -0.725445
     11          6           0        4.433747    0.385115   -0.483415
     12          6           0        3.333773    0.835291    0.478554
     13          6           0        2.131465    1.445741   -0.242279
     14          1           0        4.762322    1.245818   -1.082266
     15          1           0        4.017652   -0.346369   -1.189630
     16          1           0        3.752582    1.565645    1.182683
     17          1           0        3.008337   -0.025706    1.076377
     18          1           0        1.687010    0.720885   -0.931949
     19          1           0        2.435483    2.321278   -0.825039
     20          1           0        1.357203    1.760650    0.464270
     21          6           0       -1.804194    1.014279    0.916739
     22          6           0       -2.674093    1.726489    0.084540
     23          6           0       -3.858044    1.140344   -0.372889
     24          6           0       -4.142075   -0.165674    0.023258
     25          6           0       -3.295610   -0.901119    0.851453
     26          6           0       -2.117177   -0.294944    1.296870
     27          1           0       -0.886616    1.477390    1.267416
     28          1           0       -2.433597    2.743397   -0.212284
     29          1           0       -4.549346    1.668901   -1.017983
     30          1           0       -3.562442   -1.913257    1.130372
     31          1           0       -1.443473   -0.850446    1.943078
     32          7           0       -5.392550   -0.796802   -0.454644
     33          8           0       -5.619908   -1.948730   -0.091310
     34          8           0       -6.121637   -0.127604   -1.183507
 ---------------------------------------------------------------------

 SCF Done:  E(RHF) =  -669.535358173     A.U. after   15 cycles
 E2 =    -0.2090756192D+01 EUMP2 =    -0.67162611436475D+03

 The electronic state is 1-A.
 Alpha  occ. eigenvalues --  -20.60732 -20.60727 -15.85786 -11.31143 -11.27716
 Alpha  occ. eigenvalues --  -11.27711 -11.27434 -11.26725 -11.26713 -11.22451
 Alpha  occ. eigenvalues --  -11.22124 -11.22040 -11.22027 -11.21899 -11.21435
 Alpha  occ. eigenvalues --   -1.59808  -1.39362  -1.19316  -1.09055  -1.08710
 Alpha  occ. eigenvalues --   -1.04719  -1.04188  -0.96649  -0.95547  -0.87668
 Alpha  occ. eigenvalues --   -0.86115  -0.82383  -0.80256  -0.78833  -0.77430
 Alpha  occ. eigenvalues --   -0.72004  -0.71132  -0.70447  -0.65678  -0.64967
 Alpha  occ. eigenvalues --   -0.64725  -0.62068  -0.61572  -0.60089  -0.58261
 Alpha  occ. eigenvalues --   -0.55917  -0.55264  -0.53342  -0.53064  -0.53005
 Alpha  occ. eigenvalues --   -0.52811  -0.50565  -0.48764  -0.48760  -0.48566
 Alpha  occ. eigenvalues --   -0.47272  -0.46383  -0.46285  -0.44770  -0.44439
 Alpha  occ. eigenvalues --   -0.37280  -0.36326
 Alpha virt. eigenvalues --    0.05094   0.11328   0.16537   0.20104   0.22450
 Alpha virt. eigenvalues --    0.23811   0.26031   0.26065   0.26903   0.27371
 Alpha virt. eigenvalues --    0.28417   0.30324   0.30803   0.31452   0.32505

 Mulliken charges:
               1
     1  C   -0.298675
     2  C   -0.300169
     3  C   -0.476022
     4  H    0.150164
     5  H    0.149658
     6  H    0.152659
     7  H    0.152902
     8  H    0.155536
     9  H    0.155497
    10  H    0.161709
    11  C   -0.299212
    12  C   -0.299325
    13  C   -0.478008
    14  H    0.151081
    15  H    0.151424
    16  H    0.153188
    17  H    0.150212
    18  H    0.160504
    19  H    0.159082
    20  H    0.148060
    21  C   -0.171288
    22  C   -0.220103
    23  C   -0.170970
    24  C    0.158387
    25  C   -0.170989
    26  C   -0.220339
    27  H    0.230433
    28  H    0.223638
    29  H    0.275465
    30  H    0.275346
    31  H    0.223277
    32  N    0.488046
    33  O   -0.460628
    34  O   -0.460541
 Sum of Mulliken charges =  -0.00000

 Dipole moment (field-independent basis, Debye):
    X=              4.6074    Y=              2.2081    Z=              1.6206  Tot=              5.3600
 Quadrupole moment (field-independent basis, Debye-Ang):
   XX=           -131.7280   YY=            -91.6009   ZZ=            -94.2190
   XY=            -10.3177   XZ=             -6.6935   YZ=             -2.5052

 Normal termination of Gaussian 16 at Wed May  5 21:49:41 2021.
