 Gaussian 16, Revision A.03,
 Gaussian 16:  EM64L-G16RevA.03 25-Dec-2016

 -------------
 #p 6-31g* mp2
 -------------

 ------------------------------------------------------
 Input file generated by CHIRIPA (05-May-2021 14:57:24)
 ------------------------------------------------------
 Symbolic Z-matrix:
 Charge =  0 Multiplicity = 1

                         Standard orientation:
 ---------------------------------------------------------------------
 Center     Atomic      Atomic             Coordinates (Angstroms)
 Number     Number       Type             X           Y           Z
 ---------------------------------------------------------------------
      1          6           0        5.369207    1.218166    0.408666
      2          6           0        5.195610    0.626149   -0.846683
      3          6           0        4.133178   -0.253109   -1.076230
      4          6           0        3.259318   -0.519119   -0.023188
      5          6           0        3.405708    0.054946    1.238680
      6          6           0        4.475278    0.931180    1.445513
      7          1           0        6.197302    1.900020    0.578161
      8          1           0        5.888295    0.847183   -1.653762
      9          1           0        3.975341   -0.725349   -2.038256
     10          1           0        2.698848   -0.184806    2.023719
     11          1           0        4.607638    1.389489    2.421463
     12          7           0        2.130790   -1.448350   -0.254176
     13          8           0        1.374728   -1.666315    0.690016
     14          8           0        2.023681   -1.941121   -1.375042
     15          6           0       -4.920378   -1.649035    0.345472
     16          6           0       -3.528684   -1.785211    0.379584
     17          6           0       -2.701637   -0.675614    0.181246
     18          6           0       -3.302709    0.560774   -0.049719
     19          6           0       -4.686015    0.728595   -0.089588
     20          6           0       -5.493591   -0.394778    0.111407
     21          1           0       -5.555285   -2.516348    0.500578
     22          1           0       -3.080746   -2.758057    0.561154
     23          1           0       -1.621345   -0.752671    0.202465
     24          1           0       -5.103337    1.711298   -0.272768
     25          1           0       -6.574097   -0.286050    0.084371
     26          7           0       -2.437457    1.742747   -0.261097
     27          8           0       -2.991658    2.821097   -0.462737
     28          8           0       -1.221456    1.568445   -0.221134
 ---------------------------------------------------------------------

 SCF Done:  E(RHF) =  -868.340557743     A.U. after   16 cycles
 E2 =    -0.2598345245D+01 EUMP2 =    -0.87093890298889D+03

 The electronic state is 1-A.
 Alpha  occ. eigenvalues --  -20.60833 -20.60812 -20.60139 -20.60129 -15.85841
 Alpha  occ. eigenvalues --  -15.85184 -11.30923 -11.30347 -11.27481 -11.27467
 Alpha  occ. eigenvalues --  -11.27202 -11.27000 -11.26736 -11.26697 -11.26455
 Alpha  occ. eigenvalues --  -11.26436 -11.25993 -11.25812  -1.59869  -1.59216
 Alpha  occ. eigenvalues --   -1.39434  -1.38772  -1.19077  -1.18529  -1.08533
 Alpha  occ. eigenvalues --   -1.07981  -1.04452  -1.03884  -0.95415  -0.94833
 Alpha  occ. eigenvalues --   -0.85868  -0.85305  -0.82267  -0.81659  -0.77334
 Alpha  occ. eigenvalues --   -0.76709  -0.72088  -0.71421  -0.71131  -0.70534
 Alpha  occ. eigenvalues --   -0.70214  -0.69641  -0.64752  -0.64475  -0.64183
 Alpha  occ. eigenvalues --   -0.63888  -0.61813  -0.61199  -0.54991  -0.54447
 Alpha  occ. eigenvalues --   -0.52775  -0.52559  -0.52262  -0.51962  -0.48848
 Alpha  occ. eigenvalues --   -0.48819  -0.48169  -0.48152  -0.44893  -0.44222
 Alpha  occ. eigenvalues --   -0.37041  -0.36552  -0.36030  -0.35487
 Alpha virt. eigenvalues --    0.05172   0.05787   0.11628   0.12156   0.16692
 Alpha virt. eigenvalues --    0.17295   0.21694   0.22342   0.27627   0.28235
 Alpha virt. eigenvalues --    0.28570   0.29273   0.31236   0.31845   0.32760

 Mulliken charges:
               1
     1  C   -0.169489
     2  C   -0.218394
     3  C   -0.169208
     4  C    0.161068
     5  C   -0.166309
     6  C   -0.218018
     7  H    0.225397
     8  H    0.222978
     9  H    0.274820
    10  H    0.275008
    11  H    0.223447
    12  N    0.491279
    13  O   -0.468727
    14  O   -0.459774
    15  C   -0.170976
    16  C   -0.221430
    17  C   -0.175619
    18  C    0.156105
    19  C   -0.171841
    20  C   -0.219746
    21  H    0.223154
    22  H    0.228829
    23  H    0.293042
    24  H    0.272212
    25  H    0.219967
    26  N    0.487980
    27  O   -0.464672
    28  O   -0.461083
 Sum of Mulliken charges =  -0.00000

 Dipole moment (field-independent basis, Debye):
    X=              1.2605    Y=             -0.9670    Z=              1.5586  Tot=              2.2255
 Quadrupole moment (field-independent basis, Debye-Ang):
   XX=            -56.6737   YY=           -112.5955   ZZ=           -101.2998
   XY=             18.7499   XZ=             -0.9109   YZ=              0.5511

 Normal termination of Gaussian 16 at Thu May  6 21:14:40 2021.
