 Gaussian 16, Revision A.03,
 Gaussian 16:  EM64L-G16RevA.03 25-Dec-2016

 -------------
 #p 6-31g* mp2
 -------------

 ------------------------------------------------------
 Input file generated by CHIRIPA (05-May-2021 14:51:14)
 ------------------------------------------------------
 Symbolic Z-matrix:
 Charge =  0 Multiplicity = 1

                         Standard orientation:
 ---------------------------------------------------------------------
 Center     Atomic      Atomic             Coordinates (Angstroms)
 Number     Number       Type             X           Y           Z
 ---------------------------------------------------------------------
      1          6           0        3.312765   -0.326271    0.558268
      2          6           0        2.999889   -1.638957   -0.160725
      3          6           0        3.026418   -2.847009    0.776132
      4          1           0        4.300493   -0.402122    1.033227
      5          1           0        2.586417   -0.178418    1.369411
      6          1           0        3.725770   -1.783606   -0.971150
      7          1           0        2.012874   -1.559903   -0.634187
      8          1           0        2.290188   -2.729062    1.577789
      9          1           0        4.012816   -2.954035    1.238912
     10          1           0        2.800068   -3.774761    0.241435
     11          6           0        3.290040    0.890549   -0.365073
     12          6           0        3.602916    2.203234    0.353920
     13          6           0        3.576387    3.411287   -0.582937
     14          1           0        4.016389    0.742696   -1.176216
     15          1           0        2.302312    0.966400   -0.840031
     16          1           0        4.589932    2.124181    0.827383
     17          1           0        2.877036    2.347883    1.164345
     18          1           0        2.589989    3.518313   -1.045717
     19          1           0        4.312618    3.293340   -1.384594
     20          1           0        3.802737    4.339039   -0.048239
     21          6           0       -3.528282    0.395105    0.174139
     22          6           0       -5.029982    0.637814    0.019306
     23          6           0       -5.468567    1.996872    0.565567
     24          1           0       -3.258990    0.469051    1.236663
     25          1           0       -2.979512    1.193899   -0.343718
     26          1           0       -5.575757   -0.161961    0.536130
     27          1           0       -5.295762    0.563093   -1.042952
     28          1           0       -4.950173    2.807488    0.043294
     29          1           0       -5.231759    2.078316    1.631348
     30          1           0       -6.545572    2.149550    0.444701
     31          6           0       -3.074524   -0.959383   -0.367334
     32          6           0       -1.572824   -1.202092   -0.212502
     33          6           0       -1.134239   -2.561149   -0.758762
     34          1           0       -3.623294   -1.758177    0.150524
     35          1           0       -3.343815   -1.033328   -1.429858
     36          1           0       -1.307043   -1.127371    0.849757
     37          1           0       -1.027049   -0.402317   -0.729324
     38          1           0       -1.371047   -2.642593   -1.824544
     39          1           0       -1.652632   -3.371766   -0.236489
     40          1           0       -0.057233   -2.713828   -0.637897
 ---------------------------------------------------------------------

 SCF Done:  E(RHF) =  -470.733292385     A.U. after   11 cycles
 E2 =    -0.1582909962D+01 EUMP2 =    -0.47231620234729D+03

 The electronic state is 1-A.
 Alpha  occ. eigenvalues --  -11.21664 -11.21629 -11.21595 -11.21586 -11.21444
 Alpha  occ. eigenvalues --  -11.21398 -11.21385 -11.21338 -11.21094 -11.21084
 Alpha  occ. eigenvalues --  -11.21070 -11.21068  -1.08473  -1.08422  -1.03586
 Alpha  occ. eigenvalues --   -1.03511  -0.96031  -0.95961  -0.87026  -0.86995
 Alpha  occ. eigenvalues --   -0.79635  -0.79587  -0.78285  -0.78238  -0.65107
 Alpha  occ. eigenvalues --   -0.65065  -0.61011  -0.60957  -0.59478  -0.59230
 Alpha  occ. eigenvalues --   -0.57703  -0.57496  -0.55297  -0.55264  -0.52730
 Alpha  occ. eigenvalues --   -0.52642  -0.52432  -0.52402  -0.49959  -0.49907
 Alpha  occ. eigenvalues --   -0.47996  -0.47862  -0.46665  -0.46606  -0.45833
 Alpha  occ. eigenvalues --   -0.45788  -0.45750  -0.45668  -0.43810  -0.43773
 Alpha virt. eigenvalues --    0.20559   0.23128   0.23498   0.24942   0.25994
 Alpha virt. eigenvalues --    0.26593   0.27023   0.27339   0.28038   0.28940
 Alpha virt. eigenvalues --    0.30956   0.31196   0.31471   0.31795   0.32343

 Mulliken charges:
               1
     1  C   -0.297590
     2  C   -0.306724
     3  C   -0.476266
     4  H    0.149540
     5  H    0.149816
     6  H    0.152095
     7  H    0.157864
     8  H    0.155477
     9  H    0.155509
    10  H    0.160439
    11  C   -0.298609
    12  C   -0.299697
    13  C   -0.475676
    14  H    0.149473
    15  H    0.149770
    16  H    0.151928
    17  H    0.152146
    18  H    0.155037
    19  H    0.155140
    20  H    0.160273
    21  C   -0.298295
    22  C   -0.299699
    23  C   -0.475738
    24  H    0.149581
    25  H    0.149356
    26  H    0.152034
    27  H    0.152045
    28  H    0.155198
    29  H    0.155188
    30  H    0.160383
    31  C   -0.298212
    32  C   -0.300060
    33  C   -0.483167
    34  H    0.149881
    35  H    0.149908
    36  H    0.151590
    37  H    0.151338
    38  H    0.155186
    39  H    0.155509
    40  H    0.168030
 Sum of Mulliken charges =  -0.00000

 Dipole moment (field-independent basis, Debye):
    X=             -0.0043    Y=             -0.0090    Z=              0.0027  Tot=              0.0104
 Quadrupole moment (field-independent basis, Debye-Ang):
   XX=            -83.9525   YY=            -86.4201   ZZ=            -84.3195
   XY=              0.3513   XZ=             -0.1681   YZ=             -0.1676

 Normal termination of Gaussian 16 at Thu May  6 00:49:37 2021.
