 Gaussian 16, Revision A.03,
 Gaussian 16:  EM64L-G16RevA.03 25-Dec-2016

 -------------
 #p 6-31g* mp2
 -------------

 ------------------------------------------------------
 Input file generated by CHIRIPA (05-May-2021 14:55:20)
 ------------------------------------------------------
 Symbolic Z-matrix:
 Charge =  0 Multiplicity = 1

                         Standard orientation:
 ---------------------------------------------------------------------
 Center     Atomic      Atomic             Coordinates (Angstroms)
 Number     Number       Type             X           Y           Z
 ---------------------------------------------------------------------
      1          6           0       -1.850947    2.428038    1.026503
      2          6           0       -3.181327    2.386168    0.596551
      3          6           0       -3.696019    1.235820   -0.008707
      4          6           0       -2.848512    0.140675   -0.168958
      5          6           0       -1.518626    0.151599    0.248864
      6          6           0       -1.025299    1.312586    0.851595
      7          1           0       -1.459420    3.325788    1.495700
      8          1           0       -3.824839    3.250944    0.731090
      9          1           0       -4.722076    1.176236   -0.350870
     10          1           0       -0.901402   -0.726248    0.101091
     11          1           0        0.008298    1.342254    1.184526
     12          7           0       -3.382085   -1.082779   -0.808380
     13          8           0       -2.614948   -2.034267   -0.938030
     14          8           0       -4.557332   -1.067067   -1.167802
     15          6           0        3.232739   -0.761286    0.704709
     16          6           0        2.187863   -1.831919    0.388539
     17          6           0        1.595265   -2.469115    1.645759
     18          1           0        4.036971   -1.208731    1.304666
     19          1           0        2.772741    0.016925    1.329356
     20          1           0        2.649325   -2.607177   -0.236476
     21          1           0        1.386121   -1.381917   -0.210897
     22          1           0        1.109666   -1.711530    2.269345
     23          1           0        2.380047   -2.943751    2.243621
     24          1           0        0.850662   -3.231575    1.396597
     25          6           0        3.834327   -0.115041   -0.541962
     26          6           0        4.879203    0.955593   -0.225791
     27          6           0        5.471801    1.592788   -1.483011
     28          1           0        4.294326   -0.893253   -1.166609
     29          1           0        3.030096    0.332405   -1.141919
     30          1           0        5.680945    0.505591    0.373646
     31          1           0        4.417742    1.730851    0.399225
     32          1           0        4.687020    2.067425   -2.080873
     33          1           0        5.957401    0.835204   -2.106597
     34          1           0        6.216404    2.355248   -1.233849
 ---------------------------------------------------------------------

 SCF Done:  E(RHF) =  -669.535488719     A.U. after   15 cycles
 E2 =    -0.2091927130D+01 EUMP2 =    -0.67162741584911D+03

 The electronic state is 1-A.
 Alpha  occ. eigenvalues --  -20.60758 -20.60753 -15.85810 -11.31170 -11.27752
 Alpha  occ. eigenvalues --  -11.27720 -11.27502 -11.26771 -11.26761 -11.22187
 Alpha  occ. eigenvalues --  -11.22082 -11.22031 -11.21877 -11.21514 -11.21451
 Alpha  occ. eigenvalues --   -1.59833  -1.39386  -1.19351  -1.08988  -1.08749
 Alpha  occ. eigenvalues --   -1.04760  -1.04033  -0.96465  -0.95582  -0.87473
 Alpha  occ. eigenvalues --   -0.86156  -0.82416  -0.80092  -0.78794  -0.77463
 Alpha  occ. eigenvalues --   -0.72031  -0.71155  -0.70476  -0.65667  -0.65001
 Alpha  occ. eigenvalues --   -0.64770  -0.62230  -0.61312  -0.59812  -0.58061
 Alpha  occ. eigenvalues --   -0.55781  -0.55249  -0.53125  -0.53086  -0.52881
 Alpha  occ. eigenvalues --   -0.52835  -0.50421  -0.48789  -0.48786  -0.48387
 Alpha  occ. eigenvalues --   -0.47150  -0.46318  -0.46276  -0.44792  -0.44284
 Alpha  occ. eigenvalues --   -0.37337  -0.36357
 Alpha virt. eigenvalues --    0.05060   0.11284   0.16535   0.18277   0.22857
 Alpha virt. eigenvalues --    0.23635   0.25098   0.25880   0.27336   0.28417
 Alpha virt. eigenvalues --    0.29558   0.30052   0.31369   0.31525   0.32192

 Mulliken charges:
               1
     1  C   -0.170805
     2  C   -0.218839
     3  C   -0.170176
     4  C    0.159878
     5  C   -0.181080
     6  C   -0.223947
     7  H    0.225663
     8  H    0.223451
     9  H    0.275606
    10  H    0.287857
    11  H    0.225285
    12  N    0.487397
    13  O   -0.460360
    14  O   -0.460444
    15  C   -0.298497
    16  C   -0.305648
    17  C   -0.479772
    18  H    0.153590
    19  H    0.140929
    20  H    0.159641
    21  H    0.147923
    22  H    0.149090
    23  H    0.158550
    24  H    0.170980
    25  C   -0.298998
    26  C   -0.299320
    27  C   -0.476022
    28  H    0.153487
    29  H    0.149052
    30  H    0.153555
    31  H    0.148298
    32  H    0.155372
    33  H    0.157263
    34  H    0.161042
 Sum of Mulliken charges =  -0.00000

 Dipole moment (field-independent basis, Debye):
    X=              2.0118    Y=              4.1715    Z=              2.2089  Tot=              5.1311
 Quadrupole moment (field-independent basis, Debye-Ang):
   XX=           -100.7364   YY=            -92.3642   ZZ=            -96.9983
   XY=            -15.5937   XZ=             -5.9935   YZ=             -0.2594

 Normal termination of Gaussian 16 at Thu May  6 09:16:34 2021.
