 Gaussian 16, Revision A.03,
 Gaussian 16:  EM64L-G16RevA.03 25-Dec-2016

 -------------
 #p 6-31g* mp2
 -------------

 ------------------------------------------------------
 Input file generated by CHIRIPA (05-May-2021 14:53:17)
 ------------------------------------------------------
 Symbolic Z-matrix:
 Charge =  0 Multiplicity = 1

                         Standard orientation:
 ---------------------------------------------------------------------
 Center     Atomic      Atomic             Coordinates (Angstroms)
 Number     Number       Type             X           Y           Z
 ---------------------------------------------------------------------
      1          6           0        3.354608   -0.504467   -0.469598
      2          6           0        4.024678   -1.555544    0.415969
      3          6           0        3.830730   -2.979348   -0.106487
      4          1           0        2.281193   -0.726547   -0.543133
      5          1           0        3.760061   -0.580739   -1.488021
      6          1           0        3.619082   -1.476395    1.432750
      7          1           0        5.096588   -1.330827    0.487559
      8          1           0        4.251816   -3.081472   -1.111902
      9          1           0        2.765915   -3.227868   -0.161341
     10          1           0        4.317767   -3.714627    0.541602
     11          6           0        3.539662    0.923869    0.039653
     12          6           0        2.869592    1.974946   -0.845914
     13          6           0        3.063540    3.398750   -0.323458
     14          1           0        3.134209    1.000141    1.058076
     15          1           0        4.613076    1.145949    0.113188
     16          1           0        1.797681    1.750228   -0.917504
     17          1           0        3.275188    1.895797   -1.862695
     18          1           0        4.128354    3.647269   -0.268604
     19          1           0        2.642453    3.500874    0.681957
     20          1           0        2.576502    4.134028   -0.971547
     21          6           0       -0.308718   -0.455793    0.939653
     22          6           0       -0.894031   -1.408351    0.099080
     23          6           0       -2.214411   -1.256820   -0.334719
     24          6           0       -2.923585   -0.135603    0.093341
     25          6           0       -2.368323    0.830785    0.930641
     26          6           0       -1.046432    0.658770    1.352024
     27          1           0        0.717572   -0.581462    1.271815
     28          1           0       -0.323501   -2.274929   -0.222764
     29          1           0       -2.692158   -1.978967   -0.985625
     30          1           0       -2.962228    1.684155    1.234703
     31          1           0       -0.594451    1.400142    2.004806
     32          7           0       -4.322212    0.035658   -0.359329
     33          8           0       -4.925742    1.032298    0.031948
     34          8           0       -4.788443   -0.829989   -1.096839
 ---------------------------------------------------------------------

 SCF Done:  E(RHF) =  -669.535208110     A.U. after   15 cycles
 E2 =    -0.2093037255D+01 EUMP2 =    -0.67162824536511D+03

 The electronic state is 1-A.
 Alpha  occ. eigenvalues --  -20.60798 -20.60793 -15.85853 -11.31242 -11.27814
 Alpha  occ. eigenvalues --  -11.27810 -11.27538 -11.26837 -11.26827 -11.22685
 Alpha  occ. eigenvalues --  -11.22428 -11.22369 -11.22307 -11.22116 -11.21745
 Alpha  occ. eigenvalues --   -1.59873  -1.39426  -1.19420  -1.09430  -1.08804
 Alpha  occ. eigenvalues --   -1.04823  -1.04441  -0.96900  -0.95640  -0.87908
 Alpha  occ. eigenvalues --   -0.86221  -0.82472  -0.80501  -0.79215  -0.77511
 Alpha  occ. eigenvalues --   -0.72070  -0.71196  -0.70596  -0.66090  -0.65071
 Alpha  occ. eigenvalues --   -0.64788  -0.62186  -0.61833  -0.60253  -0.58490
 Alpha  occ. eigenvalues --   -0.56315  -0.55207  -0.53555  -0.53309  -0.53139
 Alpha  occ. eigenvalues --   -0.52912  -0.50856  -0.48831  -0.48828  -0.48803
 Alpha  occ. eigenvalues --   -0.47559  -0.46731  -0.46698  -0.44826  -0.44706
 Alpha  occ. eigenvalues --   -0.37362  -0.36423
 Alpha virt. eigenvalues --    0.04987   0.11120   0.16366   0.18088   0.22211
 Alpha virt. eigenvalues --    0.23515   0.24732   0.25641   0.26987   0.27925
 Alpha virt. eigenvalues --    0.29497   0.30371   0.30815   0.31627   0.31752

 Mulliken charges:
               1
     1  C   -0.305920
     2  C   -0.302073
     3  C   -0.474521
     4  H    0.146075
     5  H    0.155850
     6  H    0.146714
     7  H    0.157624
     8  H    0.159845
     9  H    0.147204
    10  H    0.164557
    11  C   -0.298342
    12  C   -0.303151
    13  C   -0.475419
    14  H    0.141044
    15  H    0.154325
    16  H    0.155264
    17  H    0.155209
    18  H    0.157072
    19  H    0.151324
    20  H    0.164071
    21  C   -0.173012
    22  C   -0.221491
    23  C   -0.170661
    24  C    0.158527
    25  C   -0.170664
    26  C   -0.220954
    27  H    0.232941
    28  H    0.225044
    29  H    0.276081
    30  H    0.275944
    31  H    0.223841
    32  N    0.488052
    33  O   -0.460227
    34  O   -0.460173
 Sum of Mulliken charges =  -0.00000

 Dipole moment (field-independent basis, Debye):
    X=              5.0638    Y=             -0.5668    Z=              1.4923  Tot=              5.3095
 Quadrupole moment (field-independent basis, Debye-Ang):
   XX=           -122.5979   YY=            -92.0526   ZZ=            -93.4656
   XY=              0.7416   XZ=             -5.2558   YZ=              1.9155

 Normal termination of Gaussian 16 at Thu May  6 19:00:04 2021.
