 Gaussian 16, Revision A.03,
 Gaussian 16:  EM64L-G16RevA.03 25-Dec-2016

 -------------
 #p 6-31g* mp2
 -------------

 ------------------------------------------------------
 Input file generated by CHIRIPA (05-May-2021 14:57:26)
 ------------------------------------------------------
 Symbolic Z-matrix:
 Charge =  0 Multiplicity = 1

                         Standard orientation:
 ---------------------------------------------------------------------
 Center     Atomic      Atomic             Coordinates (Angstroms)
 Number     Number       Type             X           Y           Z
 ---------------------------------------------------------------------
      1          6           0       -4.578846    1.270450    0.526994
      2          6           0       -3.580436    1.892932   -0.229455
      3          6           0       -2.489662    1.159702   -0.706042
      4          6           0       -2.428839   -0.200304   -0.406087
      5          6           0       -3.407665   -0.849118    0.345065
      6          6           0       -4.489432   -0.096179    0.811339
      7          1           0       -5.422687    1.847696    0.893212
      8          1           0       -3.647262    2.954126   -0.451821
      9          1           0       -1.702684    1.616353   -1.293880
     10          1           0       -3.313506   -1.908528    0.550499
     11          1           0       -5.263339   -0.582253    1.398574
     12          7           0       -1.278853   -0.986974   -0.905169
     13          8           0       -1.248523   -2.183826   -0.627204
     14          8           0       -0.429600   -0.391820   -1.564863
     15          6           0        1.926465   -2.325941    0.702690
     16          6           0        1.327913   -1.299520    1.440739
     17          6           0        1.703453    0.031978    1.239175
     18          6           0        2.685262    0.302345    0.287205
     19          6           0        3.300148   -0.698213   -0.463853
     20          6           0        2.908940   -2.022546   -0.245579
     21          1           0        1.628650   -3.357498    0.865761
     22          1           0        0.564636   -1.532190    2.177842
     23          1           0        1.256428    0.846092    1.796674
     24          1           0        4.058152   -0.435174   -1.191631
     25          1           0        3.375498   -2.817635   -0.820211
     26          7           0        3.091124    1.708151    0.064973
     27          8           0        3.958518    1.920087   -0.779626
     28          8           0        2.534157    2.571466    0.739592
 ---------------------------------------------------------------------

 SCF Done:  E(RHF) =  -868.338646394     A.U. after   16 cycles
 E2 =    -0.2602507454D+01 EUMP2 =    -0.87094115384752D+03

 The electronic state is 1-A.
 Alpha  occ. eigenvalues --  -20.61261 -20.61189 -20.59918 -20.59894 -15.86216
 Alpha  occ. eigenvalues --  -15.84954 -11.31511 -11.29961 -11.28107 -11.28000
 Alpha  occ. eigenvalues --  -11.27768 -11.27078 -11.26994 -11.26641 -11.26555
 Alpha  occ. eigenvalues --  -11.26220 -11.25525 -11.25439  -1.60264  -1.58989
 Alpha  occ. eigenvalues --   -1.39833  -1.38556  -1.19669  -1.18129  -1.09078
 Alpha  occ. eigenvalues --   -1.07573  -1.05048  -1.03554  -0.95933  -0.94477
 Alpha  occ. eigenvalues --   -0.86450  -0.84963  -0.82772  -0.81366  -0.77830
 Alpha  occ. eigenvalues --   -0.76462  -0.72490  -0.71621  -0.71198  -0.70763
 Alpha  occ. eigenvalues --   -0.70286  -0.69271  -0.65319  -0.65039  -0.63827
 Alpha  occ. eigenvalues --   -0.63599  -0.62389  -0.60956  -0.55549  -0.54024
 Alpha  occ. eigenvalues --   -0.53412  -0.53128  -0.51840  -0.51689  -0.49243
 Alpha  occ. eigenvalues --   -0.49122  -0.47963  -0.47916  -0.45290  -0.44048
 Alpha  occ. eigenvalues --   -0.37650  -0.36652  -0.35901  -0.35129
 Alpha virt. eigenvalues --    0.04639   0.06145   0.10987   0.12552   0.16154
 Alpha virt. eigenvalues --    0.17745   0.21191   0.22509   0.27113   0.28018
 Alpha virt. eigenvalues --    0.28319   0.29434   0.30774   0.31877   0.32421

 Mulliken charges:
               1
     1  C   -0.170606
     2  C   -0.218341
     3  C   -0.170778
     4  C    0.156406
     5  C   -0.173827
     6  C   -0.218670
     7  H    0.227208
     8  H    0.227417
     9  H    0.280291
    10  H    0.272280
    11  H    0.223478
    12  N    0.489627
    13  O   -0.467583
    14  O   -0.454186
    15  C   -0.148554
    16  C   -0.223886
    17  C   -0.174412
    18  C    0.165865
    19  C   -0.165043
    20  C   -0.214924
    21  H    0.225607
    22  H    0.216384
    23  H    0.267527
    24  H    0.271833
    25  H    0.220243
    26  N    0.488046
    27  O   -0.462842
    28  O   -0.468556
 Sum of Mulliken charges =  -0.00000

 Dipole moment (field-independent basis, Debye):
    X=             -5.6276    Y=             -2.2964    Z=              2.2930  Tot=              6.4962
 Quadrupole moment (field-independent basis, Debye-Ang):
   XX=            -91.1910   YY=           -105.7844   ZZ=           -103.7984
   XY=            -20.2463   XZ=             -4.8922   YZ=             -3.6179

 Normal termination of Gaussian 16 at Fri May  7 05:05:01 2021.
