 Gaussian 16, Revision A.03,
 Gaussian 16:  EM64L-G16RevA.03 25-Dec-2016

 -------------
 #p 6-31g* mp2
 -------------

 ------------------------------------------------------
 Input file generated by CHIRIPA (05-May-2021 14:55:22)
 ------------------------------------------------------
 Symbolic Z-matrix:
 Charge =  0 Multiplicity = 1

                         Standard orientation:
 ---------------------------------------------------------------------
 Center     Atomic      Atomic             Coordinates (Angstroms)
 Number     Number       Type             X           Y           Z
 ---------------------------------------------------------------------
      1          6           0       -3.230107   -1.915938   -1.358414
      2          6           0       -4.079598   -0.874628   -0.970395
      3          6           0       -3.633003    0.115411   -0.090097
      4          6           0       -2.325030    0.032847    0.384961
      5          6           0       -1.454713   -0.992063    0.017000
      6          6           0       -1.922681   -1.971235   -0.864349
      7          1           0       -3.585335   -2.680803   -2.042659
      8          1           0       -5.095457   -0.829143   -1.352502
      9          1           0       -4.269518    0.932653    0.226734
     10          1           0       -0.447270   -1.010634    0.414656
     11          1           0       -1.260741   -2.778768   -1.163967
     12          7           0       -1.840927    1.075205    1.317450
     13          8           0       -0.684198    0.979865    1.721832
     14          8           0       -2.627382    1.967808    1.626295
     15          6           0        3.194013    0.901918   -0.509895
     16          6           0        1.961863    1.552827   -1.139267
     17          6           0        2.209319    3.001244   -1.561934
     18          1           0        3.507025    1.491610    0.362591
     19          1           0        4.025973    0.938629   -1.226757
     20          1           0        1.132084    1.513661   -0.421946
     21          1           0        1.651634    0.961411   -2.010243
     22          1           0        3.019449    3.055185   -2.296360
     23          1           0        2.496947    3.610573   -0.699039
     24          1           0        1.315548    3.447177   -2.009347
     25          6           0        2.962316   -0.546218   -0.082171
     26          6           0        4.194466   -1.197126    0.547200
     27          6           0        3.947010   -2.645543    0.969868
     28          1           0        2.130356   -0.582928    0.634690
     29          1           0        2.649305   -1.135908   -0.954657
     30          1           0        4.504696   -0.605710    1.418176
     31          1           0        5.024245   -1.157959   -0.170120
     32          1           0        3.659383   -3.254873    0.106972
     33          1           0        3.136881   -2.699485    1.704295
     34          1           0        4.840781   -3.091475    1.417281
 ---------------------------------------------------------------------

 SCF Done:  E(RHF) =  -669.536547729     A.U. after   15 cycles
 E2 =    -0.2092521564D+01 EUMP2 =    -0.67162906929372D+03

 The electronic state is 1-A.
 Alpha  occ. eigenvalues --  -20.60979 -20.60971 -15.85985 -11.31234 -11.27805
 Alpha  occ. eigenvalues --  -11.27768 -11.27534 -11.26800 -11.26778 -11.21514
 Alpha  occ. eigenvalues --  -11.21302 -11.21121 -11.21054 -11.20993 -11.20568
 Alpha  occ. eigenvalues --   -1.60024  -1.39585  -1.19404  -1.08824  -1.08178
 Alpha  occ. eigenvalues --   -1.04789  -1.03254  -0.95740  -0.95675  -0.86754
 Alpha  occ. eigenvalues --   -0.86197  -0.82513  -0.79347  -0.78058  -0.77527
 Alpha  occ. eigenvalues --   -0.72216  -0.71327  -0.70519  -0.65073  -0.64863
 Alpha  occ. eigenvalues --   -0.64707  -0.62139  -0.60628  -0.59122  -0.57352
 Alpha  occ. eigenvalues --   -0.55310  -0.55020  -0.53126  -0.52894  -0.52419
 Alpha  occ. eigenvalues --   -0.52170  -0.49673  -0.48999  -0.48962  -0.47678
 Alpha  occ. eigenvalues --   -0.46399  -0.45631  -0.45506  -0.44707  -0.43523
 Alpha  occ. eigenvalues --   -0.37385  -0.36382
 Alpha virt. eigenvalues --    0.04919   0.11232   0.16390   0.20653   0.23164
 Alpha virt. eigenvalues --    0.24555   0.25117   0.26878   0.27798   0.28112
 Alpha virt. eigenvalues --    0.29532   0.31257   0.31625   0.31966   0.32206

 Mulliken charges:
               1
     1  C   -0.170134
     2  C   -0.219061
     3  C   -0.170123
     4  C    0.156612
     5  C   -0.173359
     6  C   -0.221632
     7  H    0.225808
     8  H    0.223541
     9  H    0.275479
    10  H    0.284683
    11  H    0.224529
    12  N    0.487791
    13  O   -0.461583
    14  O   -0.457927
    15  C   -0.295560
    16  C   -0.311358
    17  C   -0.474940
    18  H    0.154893
    19  H    0.146828
    20  H    0.169694
    21  H    0.143770
    22  H    0.151466
    23  H    0.159205
    24  H    0.159028
    25  C   -0.307555
    26  C   -0.298546
    27  C   -0.476325
    28  H    0.158306
    29  H    0.141672
    30  H    0.156075
    31  H    0.151713
    32  H    0.150722
    33  H    0.154883
    34  H    0.161404
 Sum of Mulliken charges =  -0.00000

 Dipole moment (field-independent basis, Debye):
    X=             -1.7985    Y=             -3.5737    Z=             -3.1285  Tot=              5.0787
 Quadrupole moment (field-independent basis, Debye-Ang):
   XX=            -82.7761   YY=            -95.5870   ZZ=            -97.5521
   XY=              6.3518   XZ=              7.5297   YZ=             -0.6572

 Normal termination of Gaussian 16 at Thu May  6 06:15:48 2021.
