 Gaussian 16, Revision A.03,
 Gaussian 16:  EM64L-G16RevA.03 25-Dec-2016

 -------------
 #p 6-31g* mp2
 -------------

 ------------------------------------------------------
 Input file generated by CHIRIPA (05-May-2021 14:55:24)
 ------------------------------------------------------
 Symbolic Z-matrix:
 Charge =  0 Multiplicity = 1

                         Standard orientation:
 ---------------------------------------------------------------------
 Center     Atomic      Atomic             Coordinates (Angstroms)
 Number     Number       Type             X           Y           Z
 ---------------------------------------------------------------------
      1          6           0        3.990278    2.207033    0.330967
      2          6           0        4.692869    0.997579    0.341311
      3          6           0        4.026733   -0.212381    0.124957
      4          6           0        2.651402   -0.175889   -0.099591
      5          6           0        1.923492    1.012879   -0.115940
      6          6           0        2.610265    2.210817    0.102777
      7          1           0        4.515764    3.142289    0.499954
      8          1           0        5.764641    0.991614    0.518266
      9          1           0        4.546037   -1.163030    0.127632
     10          1           0        0.855477    0.986935   -0.295070
     11          1           0        2.062043    3.148593    0.094186
     12          7           0        1.935270   -1.450456   -0.329886
     13          8           0        0.723280   -1.391383   -0.525406
     14          8           0        2.599515   -2.484399   -0.310510
     15          6           0       -4.053231    0.511606    0.207679
     16          6           0       -3.642579    1.859301   -0.386519
     17          6           0       -4.669705    2.960239   -0.120549
     18          1           0       -5.026016    0.215761   -0.208387
     19          1           0       -4.198116    0.625242    1.290957
     20          1           0       -3.497168    1.742840   -1.468141
     21          1           0       -2.670569    2.151880    0.030865
     22          1           0       -4.808829    3.105472    0.955627
     23          1           0       -5.640124    2.694107   -0.551897
     24          1           0       -4.356143    3.915048   -0.553999
     25          6           0       -3.036506   -0.599093   -0.049892
     26          6           0       -3.447159   -1.946788    0.544306
     27          6           0       -2.420032   -3.047726    0.278335
     28          1           0       -2.891621   -0.712729   -1.133170
     29          1           0       -2.063722   -0.303248    0.366173
     30          1           0       -4.419168   -2.239368    0.126922
     31          1           0       -3.592570   -1.830327    1.625928
     32          1           0       -1.449614   -2.781594    0.709684
     33          1           0       -2.280908   -3.192959   -0.797840
     34          1           0       -2.733594   -4.002535    0.711787
 ---------------------------------------------------------------------

 SCF Done:  E(RHF) =  -669.535894355     A.U. after   15 cycles
 E2 =    -0.2091793452D+01 EUMP2 =    -0.67162768780729D+03

 The electronic state is 1-A.
 Alpha  occ. eigenvalues --  -20.60935 -20.60930 -15.85962 -11.31286 -11.27850
 Alpha  occ. eigenvalues --  -11.27844 -11.27588 -11.26857 -11.26847 -11.21434
 Alpha  occ. eigenvalues --  -11.20970 -11.20886 -11.20581 -11.20478 -11.19479
 Alpha  occ. eigenvalues --   -1.59998  -1.39553  -1.19455  -1.08860  -1.07787
 Alpha  occ. eigenvalues --   -1.04851  -1.02814  -0.95702  -0.95224  -0.86258
 Alpha  occ. eigenvalues --   -0.86228  -0.82536  -0.78964  -0.77664  -0.77409
 Alpha  occ. eigenvalues --   -0.72179  -0.71313  -0.70563  -0.65111  -0.64854
 Alpha  occ. eigenvalues --   -0.64433  -0.62197  -0.60222  -0.58704  -0.56817
 Alpha  occ. eigenvalues --   -0.55355  -0.54506  -0.53184  -0.52942  -0.51960
 Alpha  occ. eigenvalues --   -0.51629  -0.49242  -0.48949  -0.48848  -0.47200
 Alpha  occ. eigenvalues --   -0.46036  -0.45201  -0.44988  -0.44669  -0.43074
 Alpha  occ. eigenvalues --   -0.37435  -0.36453
 Alpha virt. eigenvalues --    0.04909   0.11199   0.16389   0.20736   0.23131
 Alpha virt. eigenvalues --    0.25052   0.25326   0.27530   0.27633   0.28855
 Alpha virt. eigenvalues --    0.29286   0.31190   0.32102   0.32186   0.32795

 Mulliken charges:
               1
     1  C   -0.170498
     2  C   -0.218663
     3  C   -0.170581
     4  C    0.157469
     5  C   -0.172428
     6  C   -0.218962
     7  H    0.225994
     8  H    0.223783
     9  H    0.275812
    10  H    0.277975
    11  H    0.224113
    12  N    0.490170
    13  O   -0.461298
    14  O   -0.458833
    15  C   -0.298028
    16  C   -0.297370
    17  C   -0.475012
    18  H    0.148895
    19  H    0.147197
    20  H    0.152257
    21  H    0.143022
    22  H    0.154541
    23  H    0.156381
    24  H    0.156944
    25  C   -0.298094
    26  C   -0.300762
    27  C   -0.475426
    28  H    0.151459
    29  H    0.154433
    30  H    0.146818
    31  H    0.146386
    32  H    0.173293
    33  H    0.157639
    34  H    0.151373
 Sum of Mulliken charges =  -0.00000

 Dipole moment (field-independent basis, Debye):
    X=              2.8010    Y=              4.3881    Z=              0.7532  Tot=              5.2601
 Quadrupole moment (field-independent basis, Debye-Ang):
   XX=            -78.7912   YY=            -96.6120   ZZ=            -95.0963
   XY=              9.8549   XZ=              3.1812   YZ=             -0.6056

 Normal termination of Gaussian 16 at Thu May  6 09:30:13 2021.
