 Gaussian 16, Revision A.03,
 Gaussian 16:  EM64L-G16RevA.03 25-Dec-2016

 -------------
 #p 6-31g* mp2
 -------------

 ------------------------------------------------------
 Input file generated by CHIRIPA (05-May-2021 14:53:13)
 ------------------------------------------------------
 Symbolic Z-matrix:
 Charge =  0 Multiplicity = 1

                         Standard orientation:
 ---------------------------------------------------------------------
 Center     Atomic      Atomic             Coordinates (Angstroms)
 Number     Number       Type             X           Y           Z
 ---------------------------------------------------------------------
      1          6           0        3.317457    1.030060   -0.546599
      2          6           0        1.901054    1.115210    0.023082
      3          6           0        1.109546    2.298354   -0.535022
      4          1           0        3.850567    1.965467   -0.328078
      5          1           0        3.260820    0.950922   -1.641097
      6          1           0        1.960304    1.192771    1.116284
      7          1           0        1.371317    0.179416   -0.196654
      8          1           0        1.020805    2.223314   -1.623643
      9          1           0        1.613139    3.242427   -0.303245
     10          1           0        0.099988    2.340191   -0.114423
     11          6           0        4.121217   -0.147632    0.001800
     12          6           0        5.537620   -0.232782   -0.567881
     13          6           0        6.329128   -1.415926   -0.009777
     14          1           0        4.177853   -0.068494    1.096298
     15          1           0        3.588107   -1.083039   -0.216721
     16          1           0        6.067357    0.703012   -0.348145
     17          1           0        5.478369   -0.310343   -1.661082
     18          1           0        5.825535   -2.359999   -0.241554
     19          1           0        6.417869   -1.340886    1.078844
     20          1           0        7.338685   -1.457763   -0.430376
     21          6           0       -0.854015   -0.589004    1.660809
     22          6           0       -1.046511   -1.442884    0.569775
     23          6           0       -2.179604   -1.316651   -0.239369
     24          6           0       -3.104084   -0.321080    0.072825
     25          6           0       -2.940529    0.544934    1.152898
     26          6           0       -1.799970    0.400435    1.948382
     27          1           0        0.029099   -0.694161    2.284065
     28          1           0       -0.313535   -2.212199    0.344066
     29          1           0       -2.353542   -1.964219   -1.090144
     30          1           0       -3.688738    1.302306    1.352871
     31          1           0       -1.653086    1.064982    2.795051
     32          7           0       -4.307591   -0.177773   -0.776548
     33          8           0       -5.107250    0.707362   -0.480376
     34          8           0       -4.428452   -0.953299   -1.722375
 ---------------------------------------------------------------------

 SCF Done:  E(RHF) =  -669.535004889     A.U. after   15 cycles
 E2 =    -0.2093130730D+01 EUMP2 =    -0.67162813561870D+03

 The electronic state is 1-A.
 Alpha  occ. eigenvalues --  -20.60785 -20.60779 -15.85842 -11.31216 -11.27830
 Alpha  occ. eigenvalues --  -11.27813 -11.27541 -11.26818 -11.26794 -11.22132
 Alpha  occ. eigenvalues --  -11.22105 -11.22007 -11.21872 -11.21548 -11.21406
 Alpha  occ. eigenvalues --   -1.59861  -1.39414  -1.19415  -1.08988  -1.08786
 Alpha  occ. eigenvalues --   -1.04825  -1.04018  -0.96453  -0.95627  -0.87468
 Alpha  occ. eigenvalues --   -0.86217  -0.82463  -0.80105  -0.78819  -0.77505
 Alpha  occ. eigenvalues --   -0.72060  -0.71185  -0.70506  -0.65613  -0.65063
 Alpha  occ. eigenvalues --   -0.64822  -0.62172  -0.61420  -0.59851  -0.58108
 Alpha  occ. eigenvalues --   -0.55745  -0.55307  -0.53328  -0.52984  -0.52911
 Alpha  occ. eigenvalues --   -0.52785  -0.50396  -0.48820  -0.48813  -0.48415
 Alpha  occ. eigenvalues --   -0.47145  -0.46348  -0.46281  -0.44818  -0.44285
 Alpha  occ. eigenvalues --   -0.37293  -0.36406
 Alpha virt. eigenvalues --    0.05035   0.11102   0.16484   0.20618   0.22611
 Alpha virt. eigenvalues --    0.23941   0.25469   0.26179   0.27299   0.27777
 Alpha virt. eigenvalues --    0.28969   0.30313   0.31226   0.31421   0.31907

 Mulliken charges:
               1
     1  C   -0.298308
     2  C   -0.301246
     3  C   -0.477806
     4  H    0.151015
     5  H    0.151863
     6  H    0.142409
     7  H    0.152951
     8  H    0.157961
     9  H    0.154895
    10  H    0.162974
    11  C   -0.297583
    12  C   -0.299829
    13  C   -0.475914
    14  H    0.146836
    15  H    0.144836
    16  H    0.153549
    17  H    0.153660
    18  H    0.154325
    19  H    0.154680
    20  H    0.162323
    21  C   -0.163429
    22  C   -0.220313
    23  C   -0.171162
    24  C    0.158388
    25  C   -0.171042
    26  C   -0.220762
    27  H    0.227972
    28  H    0.223663
    29  H    0.275799
    30  H    0.276050
    31  H    0.223921
    32  N    0.488185
    33  O   -0.460402
    34  O   -0.460458
 Sum of Mulliken charges =  -0.00000

 Dipole moment (field-independent basis, Debye):
    X=              4.2363    Y=             -0.4974    Z=              2.9672  Tot=              5.1960
 Quadrupole moment (field-independent basis, Debye-Ang):
   XX=           -121.5262   YY=            -92.2009   ZZ=            -92.6228
   XY=             -0.3724   XZ=            -10.2367   YZ=              2.1417

 Normal termination of Gaussian 16 at Wed May  5 23:26:03 2021.
