 Gaussian 16, Revision A.03,
 Gaussian 16:  EM64L-G16RevA.03 25-Dec-2016

 -------------
 #p 6-31g* mp2
 -------------

 ------------------------------------------------------
 Input file generated by CHIRIPA (05-May-2021 14:57:22)
 ------------------------------------------------------
 Symbolic Z-matrix:
 Charge =  0 Multiplicity = 1

                         Standard orientation:
 ---------------------------------------------------------------------
 Center     Atomic      Atomic             Coordinates (Angstroms)
 Number     Number       Type             X           Y           Z
 ---------------------------------------------------------------------
      1          6           0        1.218350   -1.662812    0.950307
      2          6           0        1.792637   -2.024700   -0.272703
      3          6           0        2.882343   -1.313283   -0.783558
      4          6           0        3.374594   -0.240582   -0.041742
      5          6           0        2.824180    0.144392    1.179785
      6          6           0        1.735043   -0.581328    1.671376
      7          1           0        0.372061   -2.221012    1.339669
      8          1           0        1.393451   -2.864150   -0.834859
      9          1           0        3.346139   -1.571901   -1.727713
     10          1           0        3.244078    0.985883    1.717368
     11          1           0        1.291057   -0.298022    2.621460
     12          7           0        4.527916    0.520134   -0.572365
     13          8           0        4.943041    1.461230    0.100426
     14          8           0        4.994927    0.160884   -1.651011
     15          6           0       -4.506043   -1.753114   -0.404902
     16          6           0       -4.972317   -0.540866   -0.924098
     17          6           0       -4.248330    0.639466   -0.731208
     18          6           0       -3.056752    0.570820   -0.010985
     19          6           0       -2.565988   -0.621578    0.518756
     20          6           0       -3.306482   -1.789537    0.313601
     21          1           0       -5.074865   -2.665218   -0.559508
     22          1           0       -5.903581   -0.509587   -1.482501
     23          1           0       -4.586181    1.591531   -1.122163
     24          1           0       -1.634174   -0.621225    1.071151
     25          1           0       -2.941943   -2.729561    0.717967
     26          7           0       -2.281562    1.813836    0.199712
     27          8           0       -1.234722    1.726736    0.837815
     28          8           0       -2.735487    2.851674   -0.277239
 ---------------------------------------------------------------------

 SCF Done:  E(RHF) =  -868.336626824     A.U. after   16 cycles
 E2 =    -0.2601197437D+01 EUMP2 =    -0.87093782426111D+03

 The electronic state is 1-A.
 Alpha  occ. eigenvalues --  -20.61267 -20.61253 -20.60488 -20.60471 -15.86320
 Alpha  occ. eigenvalues --  -15.85534 -11.31779 -11.30972 -11.28423 -11.28321
 Alpha  occ. eigenvalues --  -11.28117 -11.27554 -11.27473 -11.27458 -11.27451
 Alpha  occ. eigenvalues --  -11.27341 -11.26699 -11.26583  -1.60331  -1.59552
 Alpha  occ. eigenvalues --   -1.39884  -1.39104  -1.19965  -1.19151  -1.09335
 Alpha  occ. eigenvalues --   -1.08588  -1.05402  -1.04546  -0.96160  -0.95407
 Alpha  occ. eigenvalues --   -0.86787  -0.85977  -0.83006  -0.82215  -0.78044
 Alpha  occ. eigenvalues --   -0.77210  -0.72543  -0.71760  -0.71653  -0.71129
 Alpha  occ. eigenvalues --   -0.70867  -0.70356  -0.65624  -0.65419  -0.64831
 Alpha  occ. eigenvalues --   -0.64581  -0.62762  -0.61888  -0.55898  -0.55207
 Alpha  occ. eigenvalues --   -0.53702  -0.53527  -0.52825  -0.52666  -0.49303
 Alpha  occ. eigenvalues --   -0.49282  -0.48525  -0.48503  -0.45268  -0.44493
 Alpha  occ. eigenvalues --   -0.37934  -0.37265  -0.36925  -0.36084
 Alpha virt. eigenvalues --    0.04505   0.05272   0.10652   0.11456   0.15965
 Alpha virt. eigenvalues --    0.16635   0.19197   0.22120   0.25425   0.26934
 Alpha virt. eigenvalues --    0.27761   0.29846   0.30248   0.31595   0.32232

 Mulliken charges:
               1
     1  C   -0.176385
     2  C   -0.217331
     3  C   -0.171423
     4  C    0.160058
     5  C   -0.166218
     6  C   -0.206079
     7  H    0.211790
     8  H    0.219733
     9  H    0.274890
    10  H    0.278863
    11  H    0.226626
    12  N    0.488082
    13  O   -0.458020
    14  O   -0.461580
    15  C   -0.170145
    16  C   -0.218530
    17  C   -0.169368
    18  C    0.158240
    19  C   -0.171744
    20  C   -0.220752
    21  H    0.226937
    22  H    0.225826
    23  H    0.277989
    24  H    0.271874
    25  H    0.217814
    26  N    0.488315
    27  O   -0.462382
    28  O   -0.457078
 Sum of Mulliken charges =  -0.00000

 Dipole moment (field-independent basis, Debye):
    X=             -6.7776    Y=             -6.7565    Z=              1.0841  Tot=              9.6313
 Quadrupole moment (field-independent basis, Debye-Ang):
   XX=           -113.2265   YY=           -106.6994   ZZ=           -101.2786
   XY=              1.8792   XZ=             11.3393   YZ=              0.7353

 Normal termination of Gaussian 16 at Thu May  6 06:34:38 2021.
