 Gaussian 16, Revision A.03,
 Gaussian 16:  EM64L-G16RevA.03 25-Dec-2016

 -------------
 #p 6-31g* mp2
 -------------

 ------------------------------------------------------
 Input file generated by CHIRIPA (05-May-2021 14:55:25)
 ------------------------------------------------------
 Symbolic Z-matrix:
 Charge =  0 Multiplicity = 1

                         Standard orientation:
 ---------------------------------------------------------------------
 Center     Atomic      Atomic             Coordinates (Angstroms)
 Number     Number       Type             X           Y           Z
 ---------------------------------------------------------------------
      1          6           0        5.318867    0.296618    0.114642
      2          6           0        4.502290    0.510617    1.229956
      3          6           0        3.157711    0.128214    1.209346
      4          6           0        2.660427   -0.468247    0.051662
      5          6           0        3.448648   -0.694854   -1.075567
      6          6           0        4.790372   -0.304375   -1.032538
      7          1           0        6.362259    0.596814    0.139360
      8          1           0        4.910019    0.977141    2.122233
      9          1           0        2.503172    0.282067    2.058655
     10          1           0        3.013679   -1.162172   -1.950687
     11          1           0        5.422192   -0.471808   -1.900187
     12          7           0        1.238493   -0.877355    0.017976
     13          8           0        0.824468   -1.400928   -1.014056
     14          8           0        0.564932   -0.666694    1.024244
     15          6           0       -2.964586    0.666128    0.033148
     16          6           0       -2.530013    2.004564   -0.564946
     17          6           0       -1.045542    2.296655   -0.343982
     18          1           0       -2.745349    0.664350    1.109659
     19          1           0       -2.361679   -0.138584   -0.409951
     20          1           0       -3.134507    2.806365   -0.121868
     21          1           0       -2.750485    2.003229   -1.640124
     22          1           0       -0.427345    1.517363   -0.801297
     23          1           0       -0.813549    2.325061    0.725585
     24          1           0       -0.756411    3.258210   -0.779499
     25          6           0       -4.446048    0.359975   -0.179617
     26          6           0       -4.880622   -0.978462    0.418478
     27          6           0       -6.365093   -1.270552    0.197513
     28          1           0       -5.048955    1.164687    0.263482
     29          1           0       -4.665286    0.361754   -1.256128
     30          1           0       -4.660149   -0.977126    1.493654
     31          1           0       -4.276127   -1.780261   -0.024601
     32          1           0       -6.597085   -1.298958   -0.872054
     33          1           0       -6.983289   -0.491259    0.654828
     34          1           0       -6.654223   -2.232107    0.633031
 ---------------------------------------------------------------------

 SCF Done:  E(RHF) =  -669.536215063     A.U. after   15 cycles
 E2 =    -0.2092179746D+01 EUMP2 =    -0.67162839480874D+03

 The electronic state is 1-A.
 Alpha  occ. eigenvalues --  -20.60976 -20.60961 -15.85966 -11.31282 -11.27845
 Alpha  occ. eigenvalues --  -11.27840 -11.27580 -11.26847 -11.26837 -11.20514
 Alpha  occ. eigenvalues --  -11.20486 -11.20225 -11.20211 -11.20035 -11.19827
 Alpha  occ. eigenvalues --   -1.60017  -1.39571  -1.19448  -1.08857  -1.07213
 Alpha  occ. eigenvalues --   -1.04842  -1.02447  -0.95702  -0.94897  -0.86244
 Alpha  occ. eigenvalues --   -0.85924  -0.82539  -0.78521  -0.77594  -0.76967
 Alpha  occ. eigenvalues --   -0.72193  -0.71339  -0.70560  -0.65104  -0.64847
 Alpha  occ. eigenvalues --   -0.63847  -0.62191  -0.59856  -0.58262  -0.56497
 Alpha  occ. eigenvalues --   -0.55350  -0.54183  -0.53173  -0.52935  -0.51662
 Alpha  occ. eigenvalues --   -0.51317  -0.48997  -0.48961  -0.48836  -0.46835
 Alpha  occ. eigenvalues --   -0.45542  -0.45016  -0.44456  -0.44375  -0.42659
 Alpha  occ. eigenvalues --   -0.37425  -0.36440
 Alpha virt. eigenvalues --    0.04911   0.11213   0.16396   0.21329   0.24033
 Alpha virt. eigenvalues --    0.25289   0.27246   0.27828   0.28055   0.28734
 Alpha virt. eigenvalues --    0.29013   0.30968   0.32017   0.32552   0.32837

 Mulliken charges:
               1
     1  C   -0.170444
     2  C   -0.218619
     3  C   -0.170031
     4  C    0.158217
     5  C   -0.170810
     6  C   -0.218598
     7  H    0.225969
     8  H    0.223800
     9  H    0.275768
    10  H    0.275671
    11  H    0.223757
    12  N    0.487636
    13  O   -0.461393
    14  O   -0.456462
    15  C   -0.301036
    16  C   -0.298846
    17  C   -0.473526
    18  H    0.151688
    19  H    0.169252
    20  H    0.146052
    21  H    0.148516
    22  H    0.156812
    23  H    0.156051
    24  H    0.150913
    25  C   -0.298225
    26  C   -0.299014
    27  C   -0.475042
    28  H    0.144030
    29  H    0.146341
    30  H    0.151520
    31  H    0.156519
    32  H    0.153378
    33  H    0.152351
    34  H    0.157807
 Sum of Mulliken charges =  -0.00000

 Dipole moment (field-independent basis, Debye):
    X=              5.2983    Y=              1.2539    Z=              0.1852  Tot=              5.4478
 Quadrupole moment (field-independent basis, Debye-Ang):
   XX=            -70.8815   YY=            -96.8920   ZZ=            -89.7377
   XY=              1.2301   XZ=             -0.3834   YZ=              2.4440

 Normal termination of Gaussian 16 at Wed May  5 17:41:42 2021.
