 Gaussian 16, Revision A.03,
 Gaussian 16:  EM64L-G16RevA.03 25-Dec-2016

 -------------
 #p 6-31g* mp2
 -------------

 ------------------------------------------------------
 Input file generated by CHIRIPA (05-May-2021 14:55:21)
 ------------------------------------------------------
 Symbolic Z-matrix:
 Charge =  0 Multiplicity = 1

                         Standard orientation:
 ---------------------------------------------------------------------
 Center     Atomic      Atomic             Coordinates (Angstroms)
 Number     Number       Type             X           Y           Z
 ---------------------------------------------------------------------
      1          6           0       -0.758583    0.275818   -0.137442
      2          6           0       -1.638894    1.356907   -0.250671
      3          6           0       -3.020995    1.157091   -0.184203
      4          6           0       -3.490404   -0.142951   -0.002996
      5          6           0       -2.638825   -1.240495    0.113198
      6          6           0       -1.260474   -1.017153    0.043811
      7          1           0        0.313609    0.440178   -0.190210
      8          1           0       -1.251952    2.362139   -0.391493
      9          1           0       -3.724998    1.976009   -0.268877
     10          1           0       -3.054404   -2.231037    0.252973
     11          1           0       -0.579171   -1.858631    0.132059
     12          7           0       -4.951588   -0.366940    0.068916
     13          8           0       -5.339931   -1.522006    0.229068
     14          8           0       -5.680853    0.616804   -0.036234
     15          6           0        3.769288    0.724323   -0.272104
     16          6           0        3.895177    2.003924    0.555397
     17          6           0        3.109064    3.172524   -0.039744
     18          1           0        4.119412    0.920641   -1.294757
     19          1           0        2.708115    0.450652   -0.352168
     20          1           0        4.955909    2.274336    0.635040
     21          1           0        3.544892    1.804485    1.576250
     22          1           0        2.043985    2.927398   -0.103935
     23          1           0        3.463018    3.399916   -1.050492
     24          1           0        3.213013    4.077044    0.567626
     25          6           0        4.549646   -0.452873    0.310115
     26          6           0        4.423757   -1.732475   -0.517386
     27          6           0        5.209870   -2.901074    0.077756
     28          1           0        5.610819   -0.179202    0.390179
     29          1           0        4.199522   -0.649192    1.332768
     30          1           0        4.774042   -1.533036   -1.538239
     31          1           0        3.363026   -2.002886   -0.597029
     32          1           0        4.855916   -3.128467    1.088503
     33          1           0        6.274950   -2.655948    0.141947
     34          1           0        5.105921   -3.805594   -0.529615
 ---------------------------------------------------------------------

 SCF Done:  E(RHF) =  -669.535433373     A.U. after   15 cycles
 E2 =    -0.2091475225D+01 EUMP2 =    -0.67162690859807D+03

 The electronic state is 1-A.
 Alpha  occ. eigenvalues --  -20.60741 -20.60736 -15.85795 -11.31159 -11.27732
 Alpha  occ. eigenvalues --  -11.27728 -11.27455 -11.26748 -11.26736 -11.22653
 Alpha  occ. eigenvalues --  -11.22578 -11.22509 -11.22333 -11.22191 -11.21802
 Alpha  occ. eigenvalues --   -1.59817  -1.39370  -1.19333  -1.09466  -1.08728
 Alpha  occ. eigenvalues --   -1.04738  -1.04501  -0.96955  -0.95565  -0.87966
 Alpha  occ. eigenvalues --   -0.86135  -0.82400  -0.80564  -0.79284  -0.77443
 Alpha  occ. eigenvalues --   -0.72013  -0.71140  -0.70470  -0.66106  -0.64986
 Alpha  occ. eigenvalues --   -0.64740  -0.62091  -0.61896  -0.60318  -0.58560
 Alpha  occ. eigenvalues --   -0.56277  -0.55254  -0.53611  -0.53370  -0.53066
 Alpha  occ. eigenvalues --   -0.52830  -0.50902  -0.48876  -0.48771  -0.48768
 Alpha  occ. eigenvalues --   -0.47605  -0.46810  -0.46731  -0.44776  -0.44770
 Alpha  occ. eigenvalues --   -0.37312  -0.36343
 Alpha virt. eigenvalues --    0.05094   0.11310   0.16584   0.17958   0.22500
 Alpha virt. eigenvalues --    0.23307   0.24863   0.25622   0.26308   0.27706
 Alpha virt. eigenvalues --    0.29737   0.29977   0.30869   0.31106   0.31416

 Mulliken charges:
               1
     1  C   -0.179515
     2  C   -0.222727
     3  C   -0.170504
     4  C    0.158239
     5  C   -0.170588
     6  C   -0.222622
     7  H    0.240362
     8  H    0.224623
     9  H    0.275596
    10  H    0.275547
    11  H    0.223288
    12  N    0.487930
    13  O   -0.460516
    14  O   -0.460444
    15  C   -0.304094
    16  C   -0.300902
    17  C   -0.475079
    18  H    0.154326
    19  H    0.141193
    20  H    0.157099
    21  H    0.153601
    22  H    0.144360
    23  H    0.158923
    24  H    0.165391
    25  C   -0.298805
    26  C   -0.298785
    27  C   -0.476410
    28  H    0.153824
    29  H    0.150500
    30  H    0.154644
    31  H    0.145515
    32  H    0.155809
    33  H    0.157716
    34  H    0.162504
 Sum of Mulliken charges =  -0.00000

 Dipole moment (field-independent basis, Debye):
    X=              5.4528    Y=              0.8177    Z=             -0.2382  Tot=              5.5189
 Quadrupole moment (field-independent basis, Debye-Ang):
   XX=           -129.3271   YY=            -90.5911   ZZ=            -95.3315
   XY=             -3.5443   XZ=              0.4077   YZ=             -0.5065

 Normal termination of Gaussian 16 at Wed May  5 20:35:54 2021.
