 Gaussian 16, Revision A.03,
 Gaussian 16:  EM64L-G16RevA.03 25-Dec-2016

 -------------
 #p 6-31g* mp2
 -------------

 ------------------------------------------------------
 Input file generated by CHIRIPA (05-May-2021 14:51:13)
 ------------------------------------------------------
 Symbolic Z-matrix:
 Charge =  0 Multiplicity = 1

                         Standard orientation:
 ---------------------------------------------------------------------
 Center     Atomic      Atomic             Coordinates (Angstroms)
 Number     Number       Type             X           Y           Z
 ---------------------------------------------------------------------
      1          6           0        3.479893    0.674140    0.211877
      2          6           0        4.274251    1.844546   -0.368754
      3          6           0        4.338571    3.043082    0.578436
      4          1           0        2.461463    1.011755    0.448013
      5          1           0        3.935758    0.366760    1.163244
      6          1           0        3.817845    2.148729   -1.319428
      7          1           0        5.290852    1.504056   -0.603713
      8          1           0        4.813516    2.761841    1.523916
      9          1           0        3.332140    3.410176    0.804134
     10          1           0        4.911061    3.868261    0.143471
     11          6           0        3.406633   -0.531551   -0.723360
     12          6           0        2.612276   -1.701957   -0.142730
     13          6           0        2.547956   -2.900493   -1.089920
     14          1           0        2.950769   -0.224171   -1.674728
     15          1           0        4.425064   -0.869166   -0.959497
     16          1           0        1.595675   -1.361468    0.092229
     17          1           0        3.068682   -2.006140    0.807945
     18          1           0        3.554387   -3.267587   -1.315618
     19          1           0        2.073011   -2.619252   -2.035400
     20          1           0        1.975466   -3.725672   -0.654955
     21          6           0       -3.858789    0.567444    0.202974
     22          6           0       -5.035170    0.447192   -0.766382
     23          6           0       -5.856942    1.733082   -0.861098
     24          1           0       -4.238149    0.836004    1.198416
     25          1           0       -3.211028    1.394821   -0.118348
     26          1           0       -5.679780   -0.380600   -0.444115
     27          1           0       -4.652982    0.178697   -1.759589
     28          1           0       -5.233058    2.564542   -1.204673
     29          1           0       -6.265690    2.002067    0.118275
     30          1           0       -6.692692    1.624904   -1.559439
     31          6           0       -3.027738   -0.710032    0.308510
     32          6           0       -1.851356   -0.589780    1.277866
     33          6           0       -1.029585   -1.875671    1.372582
     34          1           0       -3.675499   -1.537410    0.629832
     35          1           0       -2.648378   -0.978593   -0.686932
     36          1           0       -2.233545   -0.321287    2.271073
     37          1           0       -1.206748    0.238012    0.955599
     38          1           0       -0.620837   -2.144656    0.393209
     39          1           0       -1.653469   -2.707132    1.716157
     40          1           0       -0.193835   -1.767493    2.070923
 ---------------------------------------------------------------------

 SCF Done:  E(RHF) =  -470.732811111     A.U. after   11 cycles
 E2 =    -0.1582987274D+01 EUMP2 =    -0.47231579838457D+03

 The electronic state is 1-A.
 Alpha  occ. eigenvalues --  -11.21649 -11.21626 -11.21596 -11.21479 -11.21439
 Alpha  occ. eigenvalues --  -11.21382 -11.21379 -11.21315 -11.21091 -11.21069
 Alpha  occ. eigenvalues --  -11.21064 -11.21039  -1.08468  -1.08398  -1.03583
 Alpha  occ. eigenvalues --   -1.03480  -0.96029  -0.95939  -0.87039  -0.86962
 Alpha  occ. eigenvalues --   -0.79686  -0.79506  -0.78282  -0.78206  -0.65168
 Alpha  occ. eigenvalues --   -0.64981  -0.61145  -0.60754  -0.59426  -0.59271
 Alpha  occ. eigenvalues --   -0.57622  -0.57570  -0.55392  -0.55154  -0.52724
 Alpha  occ. eigenvalues --   -0.52628  -0.52447  -0.52357  -0.50055  -0.49830
 Alpha  occ. eigenvalues --   -0.47942  -0.47863  -0.46790  -0.46446  -0.45849
 Alpha  occ. eigenvalues --   -0.45754  -0.45725  -0.45590  -0.43813  -0.43739
 Alpha virt. eigenvalues --    0.21207   0.23206   0.23614   0.24577   0.26234
 Alpha virt. eigenvalues --    0.26879   0.26940   0.27178   0.28154   0.29099
 Alpha virt. eigenvalues --    0.30973   0.31341   0.31650   0.31803   0.32158

 Mulliken charges:
               1
     1  C   -0.298276
     2  C   -0.299570
     3  C   -0.475683
     4  H    0.149057
     5  H    0.149518
     6  H    0.151729
     7  H    0.152040
     8  H    0.155208
     9  H    0.155061
    10  H    0.160218
    11  C   -0.297610
    12  C   -0.307164
    13  C   -0.476485
    14  H    0.148717
    15  H    0.149290
    16  H    0.162211
    17  H    0.151094
    18  H    0.155207
    19  H    0.154137
    20  H    0.160994
    21  C   -0.298277
    22  C   -0.299681
    23  C   -0.475722
    24  H    0.149802
    25  H    0.149307
    26  H    0.152042
    27  H    0.151924
    28  H    0.155151
    29  H    0.155248
    30  H    0.160348
    31  C   -0.298338
    32  C   -0.301344
    33  C   -0.479853
    34  H    0.149861
    35  H    0.149633
    36  H    0.152569
    37  H    0.151452
    38  H    0.158164
    39  H    0.155743
    40  H    0.162281
 Sum of Mulliken charges =  -0.00000

 Dipole moment (field-independent basis, Debye):
    X=             -0.0312    Y=             -0.0159    Z=              0.0224  Tot=              0.0415
 Quadrupole moment (field-independent basis, Debye-Ang):
   XX=            -84.2627   YY=            -86.1858   ZZ=            -84.3948
   XY=              0.3413   XZ=             -0.2667   YZ=             -0.8427

 Normal termination of Gaussian 16 at Thu May  6 00:48:02 2021.
