 Gaussian 16, Revision A.03,
 Gaussian 16:  EM64L-G16RevA.03 25-Dec-2016

 -------------
 #p 6-31g* mp2
 -------------

 ------------------------------------------------------
 Input file generated by CHIRIPA (05-May-2021 14:51:13)
 ------------------------------------------------------
 Symbolic Z-matrix:
 Charge =  0 Multiplicity = 1

                         Standard orientation:
 ---------------------------------------------------------------------
 Center     Atomic      Atomic             Coordinates (Angstroms)
 Number     Number       Type             X           Y           Z
 ---------------------------------------------------------------------
      1          6           0       -2.574179   -0.475449   -0.032969
      2          6           0       -2.599103   -2.003869    0.003025
      3          6           0       -1.199820   -2.618976   -0.034960
      4          1           0       -2.051302   -0.144879   -0.940861
      5          1           0       -1.986606   -0.105109    0.818501
      6          1           0       -3.187613   -2.371178   -0.847479
      7          1           0       -3.122150   -2.330838    0.910841
      8          1           0       -0.606974   -2.280785    0.821055
      9          1           0       -0.672809   -2.321354   -0.947255
     10          1           0       -1.241050   -3.712343   -0.008340
     11          6           0       -3.965545    0.154181    0.004387
     12          6           0       -3.940620    1.682601   -0.031606
     13          6           0       -5.339904    2.297709    0.006378
     14          1           0       -4.553118   -0.216159   -0.847083
     15          1           0       -4.488422   -0.176389    0.912279
     16          1           0       -3.417574    2.009570   -0.939422
     17          1           0       -3.352111    2.049910    0.818897
     18          1           0       -5.866914    2.000086    0.918673
     19          1           0       -5.932750    1.959517   -0.849637
     20          1           0       -5.298674    3.391076   -0.020242
     21          6           0        3.423355   -0.575235   -0.121242
     22          6           0        2.267581   -1.511155    0.234042
     23          6           0        2.589841   -2.979951   -0.042687
     24          1           0        3.677113   -0.702785   -1.182507
     25          1           0        4.313974   -0.870246    0.450737
     26          1           0        1.379027   -1.213603   -0.337405
     27          1           0        2.016419   -1.381223    1.294538
     28          1           0        3.460686   -3.299464    0.538813
     29          1           0        2.819672   -3.130891   -1.102402
     30          1           0        1.749976   -3.631335    0.218437
     31          6           0        3.116369    0.896503    0.149823
     32          6           0        4.272142    1.832422   -0.205461
     33          6           0        3.949882    3.301219    0.071269
     34          1           0        2.225749    1.191515   -0.422156
     35          1           0        2.862611    1.024053    1.211088
     36          1           0        4.523305    1.702491   -1.265956
     37          1           0        5.160696    1.534871    0.365986
     38          1           0        3.720051    3.452160    1.130983
     39          1           0        3.079037    3.620732   -0.510232
     40          1           0        4.789748    3.952603   -0.189856
 ---------------------------------------------------------------------

 SCF Done:  E(RHF) =  -470.731935323     A.U. after   11 cycles
 E2 =    -0.1583755896D+01 EUMP2 =    -0.47231569121926D+03

 The electronic state is 1-A.
 Alpha  occ. eigenvalues --  -11.21608 -11.21590 -11.21561 -11.21426 -11.21416
 Alpha  occ. eigenvalues --  -11.21356 -11.21334 -11.21260 -11.21076 -11.21042
 Alpha  occ. eigenvalues --  -11.21021 -11.20929  -1.08445  -1.08347  -1.03583
 Alpha  occ. eigenvalues --   -1.03407  -0.96055  -0.95839  -0.87024  -0.86907
 Alpha  occ. eigenvalues --   -0.79719  -0.79434  -0.78309  -0.78097  -0.65080
 Alpha  occ. eigenvalues --   -0.64982  -0.60993  -0.60816  -0.59357  -0.59319
 Alpha  occ. eigenvalues --   -0.57805  -0.57321  -0.55315  -0.55151  -0.52811
 Alpha  occ. eigenvalues --   -0.52545  -0.52415  -0.52200  -0.49936  -0.49840
 Alpha  occ. eigenvalues --   -0.48133  -0.47662  -0.46686  -0.46478  -0.45923
 Alpha  occ. eigenvalues --   -0.45752  -0.45630  -0.45400  -0.43835  -0.43646
 Alpha virt. eigenvalues --    0.21978   0.23099   0.23515   0.24832   0.25806
 Alpha virt. eigenvalues --    0.26713   0.27044   0.27106   0.28176   0.29354
 Alpha virt. eigenvalues --    0.29870   0.30466   0.31604   0.31785   0.32644

 Mulliken charges:
               1
     1  C   -0.298607
     2  C   -0.300796
     3  C   -0.478373
     4  H    0.148720
     5  H    0.150118
     6  H    0.151578
     7  H    0.151729
     8  H    0.161023
     9  H    0.156656
    10  H    0.159201
    11  C   -0.298147
    12  C   -0.299626
    13  C   -0.475719
    14  H    0.149520
    15  H    0.149747
    16  H    0.151759
    17  H    0.152109
    18  H    0.155207
    19  H    0.155159
    20  H    0.160301
    21  C   -0.297812
    22  C   -0.302455
    23  C   -0.479027
    24  H    0.148970
    25  H    0.148795
    26  H    0.157733
    27  H    0.149355
    28  H    0.154305
    29  H    0.154042
    30  H    0.165409
    31  C   -0.298123
    32  C   -0.299521
    33  C   -0.475637
    34  H    0.149410
    35  H    0.149156
    36  H    0.151769
    37  H    0.151857
    38  H    0.155027
    39  H    0.155106
    40  H    0.160086
 Sum of Mulliken charges =  -0.00000

 Dipole moment (field-independent basis, Debye):
    X=             -0.0450    Y=             -0.0201    Z=              0.0045  Tot=              0.0495
 Quadrupole moment (field-independent basis, Debye-Ang):
   XX=            -85.8609   YY=            -86.3772   ZZ=            -82.8339
   XY=              0.6070   XZ=              0.3979   YZ=             -0.2566

 Normal termination of Gaussian 16 at Wed May  5 16:51:52 2021.
