 Gaussian 16, Revision A.03,
 Gaussian 16:  EM64L-G16RevA.03 25-Dec-2016

 -------------
 #p 6-31g* mp2
 -------------

 ------------------------------------------------------
 Input file generated by CHIRIPA (05-May-2021 14:51:12)
 ------------------------------------------------------
 Symbolic Z-matrix:
 Charge =  0 Multiplicity = 1

                         Standard orientation:
 ---------------------------------------------------------------------
 Center     Atomic      Atomic             Coordinates (Angstroms)
 Number     Number       Type             X           Y           Z
 ---------------------------------------------------------------------
      1          6           0        3.389615   -0.467225   -0.698508
      2          6           0        3.053984   -1.792888   -0.014436
      3          6           0        2.646946   -2.883318   -1.005938
      4          1           0        2.519600   -0.130846   -1.278912
      5          1           0        4.202417   -0.630266   -1.419733
      6          1           0        2.242996   -1.627117    0.706282
      7          1           0        3.924833   -2.126054    0.564562
      8          1           0        3.455400   -3.077689   -1.718134
      9          1           0        1.764007   -2.575917   -1.575608
     10          1           0        2.411366   -3.822394   -0.495548
     11          6           0        3.798360    0.632766    0.279590
     12          6           0        4.133991    1.958429   -0.404481
     13          6           0        4.541029    3.048859    0.587021
     14          1           0        2.985558    0.795807    1.000815
     15          1           0        4.668374    0.296387    0.859994
     16          1           0        3.263141    2.291595   -0.983479
     17          1           0        4.944979    1.792658   -1.125199
     18          1           0        5.423968    2.741458    1.156691
     19          1           0        3.732575    3.243231    1.299216
     20          1           0        4.776609    3.987935    0.076631
     21          6           0       -3.974057    0.299822   -0.331468
     22          6           0       -5.371248    0.740855    0.105945
     23          6           0       -6.119123    1.505049   -0.986980
     24          1           0       -3.392677    1.184305   -0.625803
     25          1           0       -4.059821   -0.330254   -1.227595
     26          1           0       -5.282978    1.368778    1.001790
     27          1           0       -5.949307   -0.144761    0.399456
     28          1           0       -6.236618    0.883188   -1.880335
     29          1           0       -5.566503    2.405326   -1.274579
     30          1           0       -7.115534    1.810803   -0.653004
     31          6           0       -3.213918   -0.465364    0.750385
     32          6           0       -1.816726   -0.906397    0.312972
     33          6           0       -1.068851   -1.670590    1.405897
     34          1           0       -3.128154    0.164712    1.646512
     35          1           0       -3.795298   -1.349846    1.044720
     36          1           0       -1.238668   -0.020781    0.019461
     37          1           0       -1.904996   -1.534319   -0.582872
     38          1           0       -1.621471   -2.570868    1.693497
     39          1           0       -0.951356   -1.048729    2.299253
     40          1           0       -0.072441   -1.976345    1.071921
 ---------------------------------------------------------------------

 SCF Done:  E(RHF) =  -470.733334274     A.U. after   11 cycles
 E2 =    -0.1582623875D+01 EUMP2 =    -0.47231595814888D+03

 The electronic state is 1-A.
 Alpha  occ. eigenvalues --  -11.21650 -11.21623 -11.21605 -11.21590 -11.21436
 Alpha  occ. eigenvalues --  -11.21403 -11.21376 -11.21344 -11.21090 -11.21088
 Alpha  occ. eigenvalues --  -11.21081 -11.21076  -1.08464  -1.08429  -1.03576
 Alpha  occ. eigenvalues --   -1.03521  -0.96023  -0.95970  -0.87030  -0.86996
 Alpha  occ. eigenvalues --   -0.79652  -0.79571  -0.78276  -0.78242  -0.65104
 Alpha  occ. eigenvalues --   -0.65066  -0.61009  -0.60949  -0.59439  -0.59268
 Alpha  occ. eigenvalues --   -0.57667  -0.57538  -0.55295  -0.55269  -0.52728
 Alpha  occ. eigenvalues --   -0.52661  -0.52439  -0.52397  -0.49955  -0.49916
 Alpha  occ. eigenvalues --   -0.48005  -0.47861  -0.46663  -0.46612  -0.45822
 Alpha  occ. eigenvalues --   -0.45782  -0.45741  -0.45699  -0.43811  -0.43754
 Alpha virt. eigenvalues --    0.20794   0.23113   0.23621   0.25163   0.26387
 Alpha virt. eigenvalues --    0.26610   0.26996   0.27741   0.27768   0.28807
 Alpha virt. eigenvalues --    0.30660   0.31309   0.31428   0.31804   0.32203

 Mulliken charges:
               1
     1  C   -0.297978
     2  C   -0.306565
     3  C   -0.476239
     4  H    0.149789
     5  H    0.149556
     6  H    0.157413
     7  H    0.152336
     8  H    0.155446
     9  H    0.155614
    10  H    0.160375
    11  C   -0.298449
    12  C   -0.299653
    13  C   -0.475690
    14  H    0.149709
    15  H    0.149709
    16  H    0.151817
    17  H    0.151975
    18  H    0.155243
    19  H    0.155068
    20  H    0.160237
    21  C   -0.298283
    22  C   -0.299680
    23  C   -0.475727
    24  H    0.149509
    25  H    0.149606
    26  H    0.151956
    27  H    0.152034
    28  H    0.155234
    29  H    0.155169
    30  H    0.160341
    31  C   -0.298364
    32  C   -0.299269
    33  C   -0.483841
    34  H    0.149562
    35  H    0.149920
    36  H    0.151145
    37  H    0.152061
    38  H    0.155666
    39  H    0.154854
    40  H    0.168391
 Sum of Mulliken charges =  -0.00000

 Dipole moment (field-independent basis, Debye):
    X=             -0.0032    Y=             -0.0106    Z=              0.0002  Tot=              0.0111
 Quadrupole moment (field-independent basis, Debye-Ang):
   XX=            -84.1741   YY=            -85.0191   ZZ=            -85.4970
   XY=              0.1586   XZ=             -0.5816   YZ=              0.2017

 Normal termination of Gaussian 16 at Thu May  6 03:53:29 2021.
