 Gaussian 16, Revision A.03,
 Gaussian 16:  EM64L-G16RevA.03 25-Dec-2016

 -------------
 #p 6-31g* mp2
 -------------

 ------------------------------------------------------
 Input file generated by CHIRIPA (05-May-2021 14:53:18)
 ------------------------------------------------------
 Symbolic Z-matrix:
 Charge =  0 Multiplicity = 1

                         Standard orientation:
 ---------------------------------------------------------------------
 Center     Atomic      Atomic             Coordinates (Angstroms)
 Number     Number       Type             X           Y           Z
 ---------------------------------------------------------------------
      1          6           0        3.488736   -0.254182    0.099084
      2          6           0        2.742033   -1.489194    0.604223
      3          6           0        1.248696   -1.233843    0.810462
      4          1           0        3.351273    0.567819    0.814879
      5          1           0        3.038270    0.076580   -0.846998
      6          1           0        3.194657   -1.818350    1.548364
      7          1           0        2.881449   -2.308407   -0.112763
      8          1           0        0.776984   -0.927230   -0.128728
      9          1           0        1.091972   -0.434388    1.541837
     10          1           0        0.734341   -2.129811    1.171767
     11          6           0        4.982667   -0.493697   -0.111939
     12          6           0        5.729371    0.741315   -0.617078
     13          6           0        7.222708    0.485964   -0.823317
     14          1           0        5.433134   -0.824459    0.834143
     15          1           0        5.120131   -1.315698   -0.827734
     16          1           0        5.589955    1.560528    0.099908
     17          1           0        5.276747    1.070471   -1.561219
     18          1           0        7.379432   -0.313491   -1.554692
     19          1           0        7.694419    0.179351    0.115873
     20          1           0        7.737062    1.381932   -1.184622
     21          6           0       -1.817071    2.124323    0.889755
     22          6           0       -1.706405    0.825401    1.396783
     23          6           0       -2.527940   -0.197618    0.914021
     24          6           0       -3.453390    0.115012   -0.080511
     25          6           0       -3.587587    1.399256   -0.605866
     26          6           0       -2.755654    2.406607   -0.108192
     27          1           0       -1.174843    2.912943    1.270568
     28          1           0       -0.978383    0.603273    2.171824
     29          1           0       -2.463389   -1.211938    1.288731
     30          1           0       -4.322752    1.590100   -1.378219
     31          1           0       -2.843813    3.414450   -0.503824
     32          7           0       -4.328617   -0.959720   -0.599483
     33          8           0       -5.135971   -0.658471   -1.475877
     34          8           0       -4.190693   -2.082991   -0.120032
 ---------------------------------------------------------------------

 SCF Done:  E(RHF) =  -669.534880354     A.U. after   15 cycles
 E2 =    -0.2091778389D+01 EUMP2 =    -0.67162665874338D+03

 The electronic state is 1-A.
 Alpha  occ. eigenvalues --  -20.60722 -20.60716 -15.85774 -11.31127 -11.27687
 Alpha  occ. eigenvalues --  -11.27669 -11.27421 -11.26716 -11.26667 -11.22077
 Alpha  occ. eigenvalues --  -11.21953 -11.21858 -11.21741 -11.21718 -11.21358
 Alpha  occ. eigenvalues --   -1.59797  -1.39351  -1.19296  -1.08859  -1.08695
 Alpha  occ. eigenvalues --   -1.04700  -1.03965  -0.96437  -0.95531  -0.87470
 Alpha  occ. eigenvalues --   -0.86092  -0.82365  -0.80043  -0.78667  -0.77404
 Alpha  occ. eigenvalues --   -0.71993  -0.71120  -0.70402  -0.65496  -0.64946
 Alpha  occ. eigenvalues --   -0.64721  -0.62078  -0.61343  -0.59800  -0.58038
 Alpha  occ. eigenvalues --   -0.55744  -0.55194  -0.53310  -0.53077  -0.52883
 Alpha  occ. eigenvalues --   -0.52541  -0.50356  -0.48753  -0.48748  -0.48333
 Alpha  occ. eigenvalues --   -0.47053  -0.46210  -0.46122  -0.44759  -0.44225
 Alpha  occ. eigenvalues --   -0.37276  -0.36248
 Alpha virt. eigenvalues --    0.05106   0.11332   0.16562   0.20680   0.22544
 Alpha virt. eigenvalues --    0.23926   0.25692   0.26448   0.26994   0.27944
 Alpha virt. eigenvalues --    0.28834   0.29587   0.31320   0.31498   0.32049

 Mulliken charges:
               1
     1  C   -0.298114
     2  C   -0.300667
     3  C   -0.477181
     4  H    0.145863
     5  H    0.150775
     6  H    0.152281
     7  H    0.155876
     8  H    0.162144
     9  H    0.143710
    10  H    0.161053
    11  C   -0.298610
    12  C   -0.299775
    13  C   -0.475916
    14  H    0.149961
    15  H    0.151577
    16  H    0.150623
    17  H    0.152306
    18  H    0.156317
    19  H    0.155518
    20  H    0.160754
    21  C   -0.172811
    22  C   -0.213675
    23  C   -0.171266
    24  C    0.157931
    25  C   -0.171548
    26  C   -0.218528
    27  H    0.225088
    28  H    0.225285
    29  H    0.275859
    30  H    0.275225
    31  H    0.223065
    32  N    0.488107
    33  O   -0.460720
    34  O   -0.460508
 Sum of Mulliken charges =  -0.00000

 Dipole moment (field-independent basis, Debye):
    X=              3.1895    Y=              3.7420    Z=              1.7724  Tot=              5.2265
 Quadrupole moment (field-independent basis, Debye-Ang):
   XX=           -116.7943   YY=            -92.0035   ZZ=            -92.8187
   XY=            -14.4567   XZ=             -4.8258   YZ=             -2.1153

 Normal termination of Gaussian 16 at Thu May  6 17:19:24 2021.
