 Gaussian 16, Revision A.03,
 Gaussian 16:  EM64L-G16RevA.03 25-Dec-2016

 -------------
 #p 6-31g* mp2
 -------------

 ------------------------------------------------------
 Input file generated by CHIRIPA (05-May-2021 14:51:14)
 ------------------------------------------------------
 Symbolic Z-matrix:
 Charge =  0 Multiplicity = 1

                         Standard orientation:
 ---------------------------------------------------------------------
 Center     Atomic      Atomic             Coordinates (Angstroms)
 Number     Number       Type             X           Y           Z
 ---------------------------------------------------------------------
      1          6           0       -3.277699   -0.303701    0.113813
      2          6           0       -3.280215   -1.810351   -0.146928
      3          6           0       -1.913505   -2.453581    0.090034
      4          1           0       -2.529291    0.172854   -0.534050
      5          1           0       -2.958646   -0.118280    1.148810
      6          1           0       -3.600499   -1.992944   -1.180705
      7          1           0       -4.028838   -2.283350    0.501493
      8          1           0       -1.589996   -2.300750    1.124725
      9          1           0       -1.159222   -2.008694   -0.567031
     10          1           0       -1.938014   -3.530762   -0.102166
     11          6           0       -4.636931    0.353644   -0.118809
     12          6           0       -4.634416    1.860294    0.141932
     13          6           0       -6.001126    2.503525   -0.095031
     14          1           0       -4.955984    0.168224   -1.153806
     15          1           0       -5.385339   -0.122911    0.529053
     16          1           0       -3.885792    2.333294   -0.506490
     17          1           0       -4.314132    2.042887    1.175708
     18          1           0       -6.755408    2.058637    0.562034
     19          1           0       -6.324635    2.350693   -1.129722
     20          1           0       -5.976616    3.580705    0.097169
     21          6           0        4.333345    0.548176    0.339447
     22          6           0        5.440583    1.142101   -0.531912
     23          6           0        6.183744    2.287695    0.155925
     24          1           0        3.621200    1.340755    0.607051
     25          1           0        4.770434    0.189532    1.281637
     26          1           0        5.001751    1.498265   -1.472757
     27          1           0        6.150071    0.347976   -0.797631
     28          1           0        6.647991    1.942598    1.085433
     29          1           0        5.493146    3.099424    0.406471
     30          1           0        6.970873    2.697511   -0.484650
     31          6           0        3.581285   -0.598120   -0.334450
     32          6           0        2.474048   -1.192045    0.536908
     33          6           0        1.730887   -2.337639   -0.150929
     34          1           0        3.144197   -0.239475   -1.276641
     35          1           0        4.293430   -1.390699   -0.602055
     36          1           0        1.764560   -0.397920    0.802627
     37          1           0        2.912880   -1.548208    1.477754
     38          1           0        2.421485   -3.149367   -0.401475
     39          1           0        1.266640   -1.992541   -1.080436
     40          1           0        0.943757   -2.747454    0.489648
 ---------------------------------------------------------------------

 SCF Done:  E(RHF) =  -470.731998664     A.U. after   11 cycles
 E2 =    -0.1582963549D+01 EUMP2 =    -0.47231496221275D+03

 The electronic state is 1-A.
 Alpha  occ. eigenvalues --  -11.21603 -11.21583 -11.21547 -11.21538 -11.21396
 Alpha  occ. eigenvalues --  -11.21372 -11.21337 -11.21311 -11.21073 -11.21057
 Alpha  occ. eigenvalues --  -11.20961 -11.20912  -1.08420  -1.08387  -1.03547
 Alpha  occ. eigenvalues --   -1.03448  -0.96059  -0.95842  -0.87140  -0.86803
 Alpha  occ. eigenvalues --   -0.79693  -0.79440  -0.78237  -0.78199  -0.65069
 Alpha  occ. eigenvalues --   -0.65007  -0.61015  -0.60800  -0.59355  -0.59311
 Alpha  occ. eigenvalues --   -0.57686  -0.57433  -0.55445  -0.55060  -0.52983
 Alpha  occ. eigenvalues --   -0.52577  -0.52384  -0.52057  -0.50099  -0.49675
 Alpha  occ. eigenvalues --   -0.47935  -0.47778  -0.46708  -0.46459  -0.45772
 Alpha  occ. eigenvalues --   -0.45743  -0.45705  -0.45639  -0.43841  -0.43613
 Alpha virt. eigenvalues --    0.22236   0.23033   0.23629   0.24875   0.26258
 Alpha virt. eigenvalues --    0.26643   0.27096   0.27482   0.27594   0.29172
 Alpha virt. eigenvalues --    0.29542   0.31329   0.31669   0.31980   0.32326

 Mulliken charges:
               1
     1  C   -0.298056
     2  C   -0.300699
     3  C   -0.479140
     4  H    0.148944
     5  H    0.149325
     6  H    0.151568
     7  H    0.151346
     8  H    0.153312
     9  H    0.162744
    10  H    0.159917
    11  C   -0.298198
    12  C   -0.299600
    13  C   -0.475690
    14  H    0.149492
    15  H    0.149724
    16  H    0.151719
    17  H    0.151879
    18  H    0.155219
    19  H    0.155178
    20  H    0.160203
    21  C   -0.298214
    22  C   -0.299591
    23  C   -0.475677
    24  H    0.149552
    25  H    0.149460
    26  H    0.151781
    27  H    0.151907
    28  H    0.155158
    29  H    0.155130
    30  H    0.160163
    31  C   -0.298322
    32  C   -0.300248
    33  C   -0.480124
    34  H    0.149144
    35  H    0.149632
    36  H    0.151979
    37  H    0.151582
    38  H    0.154024
    39  H    0.153334
    40  H    0.170140
 Sum of Mulliken charges =  -0.00000

 Dipole moment (field-independent basis, Debye):
    X=             -0.0012    Y=             -0.0242    Z=              0.0035  Tot=              0.0245
 Quadrupole moment (field-independent basis, Debye-Ang):
   XX=            -85.8000   YY=            -85.3736   ZZ=            -83.8295
   XY=             -0.4055   XZ=             -0.2944   YZ=             -0.6775

 Normal termination of Gaussian 16 at Wed May  5 20:00:55 2021.
