 Gaussian 16, Revision A.03,
 Gaussian 16:  EM64L-G16RevA.03 25-Dec-2016

 -------------
 #p 6-31g* mp2
 -------------

 ------------------------------------------------------
 Input file generated by CHIRIPA (05-May-2021 14:55:24)
 ------------------------------------------------------
 Symbolic Z-matrix:
 Charge =  0 Multiplicity = 1

                         Standard orientation:
 ---------------------------------------------------------------------
 Center     Atomic      Atomic             Coordinates (Angstroms)
 Number     Number       Type             X           Y           Z
 ---------------------------------------------------------------------
      1          6           0        1.295956   -1.611968   -0.218773
      2          6           0        1.372572   -0.296503   -0.688031
      3          6           0        2.577182    0.410351   -0.626223
      4          6           0        3.690565   -0.231875   -0.086582
      5          6           0        3.646020   -1.541453    0.389138
      6          6           0        2.430923   -2.229157    0.317368
      7          1           0        0.356112   -2.153631   -0.270656
      8          1           0        0.492752    0.185339   -1.104911
      9          1           0        2.664547    1.429668   -0.982283
     10          1           0        4.540039   -1.995166    0.799374
     11          1           0        2.374362   -3.250667    0.682557
     12          7           0        4.971383    0.506303   -0.015875
     13          8           0        5.937948   -0.081965    0.464051
     14          8           0        4.984471    1.659178   -0.441721
     15          6           0       -5.151753    0.340631   -0.163510
     16          6           0       -5.745780   -1.021725    0.195800
     17          6           0       -7.142504   -1.230721   -0.390098
     18          1           0       -5.823568    1.132526    0.194974
     19          1           0       -5.109874    0.437645   -1.257233
     20          1           0       -5.785245   -1.116700    1.288520
     21          1           0       -5.072378   -1.810466   -0.163413
     22          1           0       -7.116175   -1.162659   -1.482470
     23          1           0       -7.833093   -0.464951   -0.022287
     24          1           0       -7.548224   -2.210925   -0.120933
     25          6           0       -3.755693    0.564420    0.414991
     26          6           0       -3.161666    1.926776    0.055681
     27          6           0       -1.764942    2.135771    0.641579
     28          1           0       -3.797573    0.467405    1.508714
     29          1           0       -3.083878   -0.227476    0.056507
     30          1           0       -3.835068    2.715517    0.414894
     31          1           0       -3.122202    2.021751   -1.037039
     32          1           0       -1.074354    1.370001    0.273768
     33          1           0       -1.791271    2.067710    1.733951
     34          1           0       -1.359223    3.115976    0.372414
 ---------------------------------------------------------------------

 SCF Done:  E(RHF) =  -669.535341009     A.U. after   15 cycles
 E2 =    -0.2091148469D+01 EUMP2 =    -0.67162648947808D+03

 The electronic state is 1-A.
 Alpha  occ. eigenvalues --  -20.60755 -20.60750 -15.85809 -11.31184 -11.27763
 Alpha  occ. eigenvalues --  -11.27757 -11.27513 -11.26774 -11.26760 -11.22326
 Alpha  occ. eigenvalues --  -11.22191 -11.22148 -11.21996 -11.21839 -11.21560
 Alpha  occ. eigenvalues --   -1.59830  -1.39384  -1.19363  -1.09111  -1.08757
 Alpha  occ. eigenvalues --   -1.04770  -1.04187  -0.96638  -0.95588  -0.87654
 Alpha  occ. eigenvalues --   -0.86168  -0.82421  -0.80248  -0.78921  -0.77466
 Alpha  occ. eigenvalues --   -0.72028  -0.71153  -0.70470  -0.65765  -0.65016
 Alpha  occ. eigenvalues --   -0.64793  -0.62173  -0.61545  -0.59999  -0.58239
 Alpha  occ. eigenvalues --   -0.55962  -0.55261  -0.53317  -0.53187  -0.53032
 Alpha  occ. eigenvalues --   -0.52791  -0.50561  -0.48793  -0.48781  -0.48549
 Alpha  occ. eigenvalues --   -0.47284  -0.46464  -0.46384  -0.44787  -0.44442
 Alpha  occ. eigenvalues --   -0.37339  -0.36356
 Alpha virt. eigenvalues --    0.05073   0.11173   0.16511   0.19843   0.22591
 Alpha virt. eigenvalues --    0.23745   0.25613   0.26549   0.26767   0.28345
 Alpha virt. eigenvalues --    0.28715   0.30162   0.31063   0.31440   0.31794

 Mulliken charges:
               1
     1  C   -0.171572
     2  C   -0.218213
     3  C   -0.171456
     4  C    0.158406
     5  C   -0.170588
     6  C   -0.218602
     7  H    0.225576
     8  H    0.225735
     9  H    0.276057
    10  H    0.275698
    11  H    0.223492
    12  N    0.488119
    13  O   -0.460485
    14  O   -0.460285
    15  C   -0.298698
    16  C   -0.299587
    17  C   -0.476019
    18  H    0.152207
    19  H    0.149747
    20  H    0.152981
    21  H    0.149306
    22  H    0.155634
    23  H    0.156703
    24  H    0.161317
    25  C   -0.296305
    26  C   -0.300863
    27  C   -0.479288
    28  H    0.152028
    29  H    0.140941
    30  H    0.156009
    31  H    0.150781
    32  H    0.147730
    33  H    0.159949
    34  H    0.163546
 Sum of Mulliken charges =  -0.00000

 Dipole moment (field-independent basis, Debye):
    X=             -4.6367    Y=             -2.5549    Z=             -0.1953  Tot=              5.2976
 Quadrupole moment (field-independent basis, Debye-Ang):
   XX=           -127.8073   YY=            -90.3336   ZZ=            -93.9577
   XY=            -11.2719   XZ=             -0.3276   YZ=             -1.3401

 Normal termination of Gaussian 16 at Thu May  6 19:21:07 2021.
