 Gaussian 16, Revision A.03,
 Gaussian 16:  EM64L-G16RevA.03 25-Dec-2016

 -------------
 #p 6-31g* mp2
 -------------

 ------------------------------------------------------
 Input file generated by CHIRIPA (05-May-2021 14:57:27)
 ------------------------------------------------------
 Symbolic Z-matrix:
 Charge =  0 Multiplicity = 1

                         Standard orientation:
 ---------------------------------------------------------------------
 Center     Atomic      Atomic             Coordinates (Angstroms)
 Number     Number       Type             X           Y           Z
 ---------------------------------------------------------------------
      1          6           0       -2.873629    2.288330    1.009386
      2          6           0       -3.385870    1.940593   -0.244890
      3          6           0       -3.275257    0.629854   -0.718470
      4          6           0       -2.643510   -0.312039    0.092100
      5          6           0       -2.123039    0.003492    1.346229
      6          6           0       -2.244957    1.320376    1.799550
      7          1           0       -2.963947    3.308930    1.369406
      8          1           0       -3.874603    2.690237   -0.860697
      9          1           0       -3.662892    0.333358   -1.685551
     10          1           0       -1.641094   -0.765721    1.937379
     11          1           0       -1.846210    1.587573    2.774050
     12          7           0       -2.520425   -1.702913   -0.398534
     13          8           0       -1.959425   -2.514207    0.334758
     14          8           0       -2.987282   -1.955448   -1.507095
     15          6           0        2.869516   -2.331967    0.528800
     16          6           0        3.821033   -1.397155    0.949826
     17          6           0        3.717041   -0.056540    0.567092
     18          6           0        2.643908    0.316258   -0.240806
     19          6           0        1.679869   -0.591509   -0.676556
     20          6           0        1.803850   -1.926876   -0.281618
     21          1           0        2.958063   -3.371350    0.830857
     22          1           0        4.649696   -1.708905    1.579249
     23          1           0        4.439538    0.687992    0.878679
     24          1           0        0.864911   -0.250720   -1.303551
     25          1           0        1.063408   -2.650679   -0.610098
     26          7           0        2.523236    1.732728   -0.652449
     27          8           0        1.568439    2.035818   -1.364584
     28          8           0        3.385735    2.513048   -0.255165
 ---------------------------------------------------------------------

 SCF Done:  E(RHF) =  -868.340215293     A.U. after   16 cycles
 E2 =    -0.2599584608D+01 EUMP2 =    -0.87093979990143D+03

 The electronic state is 1-A.
 Alpha  occ. eigenvalues --  -20.61321 -20.61289 -20.60704 -20.60697 -15.86326
 Alpha  occ. eigenvalues --  -15.85745 -11.31321 -11.30937 -11.27863 -11.27828
 Alpha  occ. eigenvalues --  -11.27484 -11.27478 -11.27401 -11.27093 -11.26760
 Alpha  occ. eigenvalues --  -11.26723 -11.26480 -11.26244  -1.60388  -1.59783
 Alpha  occ. eigenvalues --   -1.39945  -1.39340  -1.19449  -1.19063  -1.08908
 Alpha  occ. eigenvalues --   -1.08480  -1.04790  -1.04416  -0.95806  -0.95356
 Alpha  occ. eigenvalues --   -0.86208  -0.85811  -0.82653  -0.82179  -0.77750
 Alpha  occ. eigenvalues --   -0.77260  -0.72549  -0.71969  -0.71716  -0.71105
 Alpha  occ. eigenvalues --   -0.70539  -0.70151  -0.65101  -0.64787  -0.64696
 Alpha  occ. eigenvalues --   -0.64365  -0.62150  -0.61746  -0.55287  -0.54901
 Alpha  occ. eigenvalues --   -0.53150  -0.52884  -0.52771  -0.52452  -0.49327
 Alpha  occ. eigenvalues --   -0.49276  -0.48734  -0.48707  -0.45418  -0.44784
 Alpha  occ. eigenvalues --   -0.37393  -0.37029  -0.36393  -0.35975
 Alpha virt. eigenvalues --    0.04718   0.05226   0.11243   0.11680   0.16290
 Alpha virt. eigenvalues --    0.16806   0.21450   0.21865   0.27372   0.27589
 Alpha virt. eigenvalues --    0.28360   0.28606   0.31071   0.31559   0.32421

 Mulliken charges:
               1
     1  C   -0.165942
     2  C   -0.215205
     3  C   -0.169810
     4  C    0.153727
     5  C   -0.171104
     6  C   -0.217425
     7  H    0.228912
     8  H    0.226162
     9  H    0.275613
    10  H    0.273494
    11  H    0.224501
    12  N    0.485729
    13  O   -0.467412
    14  O   -0.458411
    15  C   -0.172773
    16  C   -0.218939
    17  C   -0.173746
    18  C    0.157347
    19  C   -0.176133
    20  C   -0.219739
    21  H    0.227664
    22  H    0.221871
    23  H    0.273130
    24  H    0.273694
    25  H    0.241909
    26  N    0.487868
    27  O   -0.462198
    28  O   -0.462786
 Sum of Mulliken charges =  -0.00000

 Dipole moment (field-independent basis, Debye):
    X=             -0.2392    Y=             -0.0297    Z=              3.1743  Tot=              3.1834
 Quadrupole moment (field-independent basis, Debye-Ang):
   XX=            -96.7081   YY=           -111.1213   ZZ=           -101.1222
   XY=            -26.7625   XZ=              3.8788   YZ=              1.1957

 Normal termination of Gaussian 16 at Fri May  7 00:31:20 2021.
