 Gaussian 16, Revision A.03,
 Gaussian 16:  EM64L-G16RevA.03 25-Dec-2016

 -------------
 #p 6-31g* mp2
 -------------

 ------------------------------------------------------
 Input file generated by CHIRIPA (05-May-2021 14:53:15)
 ------------------------------------------------------
 Symbolic Z-matrix:
 Charge =  0 Multiplicity = 1

                         Standard orientation:
 ---------------------------------------------------------------------
 Center     Atomic      Atomic             Coordinates (Angstroms)
 Number     Number       Type             X           Y           Z
 ---------------------------------------------------------------------
      1          6           0        3.797361   -0.446391   -0.307607
      2          6           0        2.786076   -1.592882   -0.278515
      3          6           0        3.383372   -2.920038   -0.747222
      4          1           0        4.186199   -0.334730   -1.329019
      5          1           0        4.655677   -0.707635    0.326776
      6          1           0        1.929289   -1.328965   -0.911666
      7          1           0        2.399458   -1.701702    0.742906
      8          1           0        4.225450   -3.209783   -0.110391
      9          1           0        3.752610   -2.834928   -1.774364
     10          1           0        2.643266   -3.725814   -0.718434
     11          6           0        3.215147    0.886940    0.158206
     12          6           0        4.226433    2.033431    0.129114
     13          6           0        3.629136    3.360587    0.597821
     14          1           0        2.356832    1.148184   -0.476177
     15          1           0        2.826309    0.775279    1.179618
     16          1           0        4.613051    2.142251   -0.892307
     17          1           0        5.083219    1.769514    0.762265
     18          1           0        3.259898    3.275478    1.624963
     19          1           0        2.787058    3.650332   -0.039009
     20          1           0        4.369242    4.166363    0.569033
     21          6           0       -1.157845   -1.903370    0.989872
     22          6           0       -1.094591   -1.553299   -0.362892
     23          6           0       -1.965855   -0.595313   -0.889873
     24          6           0       -2.892146   -0.004716   -0.031695
     25          6           0       -2.979807   -0.332224    1.320468
     26          6           0       -2.098594   -1.292792    1.825760
     27          1           0       -0.477162   -2.648560    1.390820
     28          1           0       -0.365010   -2.025841   -1.014399
     29          1           0       -1.938624   -0.305526   -1.933280
     30          1           0       -3.717807    0.156115    1.945206
     31          1           0       -2.149997   -1.562695    2.876739
     32          7           0       -3.819781    1.010828   -0.578107
     33          8           0       -4.626796    1.516551    0.198815
     34          8           0       -3.722281    1.281858   -1.772960
 ---------------------------------------------------------------------

 SCF Done:  E(RHF) =  -669.535140968     A.U. after   15 cycles
 E2 =    -0.2091882866D+01 EUMP2 =    -0.67162702383399D+03

 The electronic state is 1-A.
 Alpha  occ. eigenvalues --  -20.60745 -20.60740 -15.85798 -11.31158 -11.27725
 Alpha  occ. eigenvalues --  -11.27716 -11.27454 -11.26741 -11.26702 -11.22540
 Alpha  occ. eigenvalues --  -11.22031 -11.21994 -11.21937 -11.21824 -11.21285
 Alpha  occ. eigenvalues --   -1.59821  -1.39374  -1.19327  -1.09032  -1.08718
 Alpha  occ. eigenvalues --   -1.04734  -1.04135  -0.96558  -0.95558  -0.87572
 Alpha  occ. eigenvalues --   -0.86132  -0.82394  -0.80244  -0.78804  -0.77437
 Alpha  occ. eigenvalues --   -0.72017  -0.71144  -0.70431  -0.65684  -0.64978
 Alpha  occ. eigenvalues --   -0.64742  -0.62126  -0.61501  -0.59962  -0.58166
 Alpha  occ. eigenvalues --   -0.55828  -0.55225  -0.53290  -0.53077  -0.52957
 Alpha  occ. eigenvalues --   -0.52829  -0.50486  -0.48790  -0.48773  -0.48507
 Alpha  occ. eigenvalues --   -0.47258  -0.46338  -0.46236  -0.44782  -0.44371
 Alpha  occ. eigenvalues --   -0.37285  -0.36316
 Alpha virt. eigenvalues --    0.05078   0.11251   0.16498   0.19883   0.22630
 Alpha virt. eigenvalues --    0.23926   0.25333   0.26142   0.27176   0.27801
 Alpha virt. eigenvalues --    0.29042   0.29851   0.31144   0.31292   0.31789

 Mulliken charges:
               1
     1  C   -0.298308
     2  C   -0.303305
     3  C   -0.476632
     4  H    0.151739
     5  H    0.151178
     6  H    0.148263
     7  H    0.148586
     8  H    0.159196
     9  H    0.158983
    10  H    0.154307
    11  C   -0.298596
    12  C   -0.300286
    13  C   -0.476181
    14  H    0.151321
    15  H    0.149528
    16  H    0.152828
    17  H    0.151909
    18  H    0.155246
    19  H    0.157601
    20  H    0.161564
    21  C   -0.171228
    22  C   -0.216764
    23  C   -0.172838
    24  C    0.158771
    25  C   -0.170926
    26  C   -0.218861
    27  H    0.226054
    28  H    0.226260
    29  H    0.275076
    30  H    0.275445
    31  H    0.223148
    32  N    0.488090
    33  O   -0.460492
    34  O   -0.460675
 Sum of Mulliken charges =  -0.00000

 Dipole moment (field-independent basis, Debye):
    X=              3.4040    Y=             -3.4986    Z=              1.9349  Tot=              5.2508
 Quadrupole moment (field-independent basis, Debye-Ang):
   XX=           -113.1029   YY=            -96.4133   ZZ=            -90.0698
   XY=             10.4706   XZ=             -7.6099   YZ=              0.0752

 Normal termination of Gaussian 16 at Wed May  5 15:38:10 2021.
