 Gaussian 16, Revision A.03,
 Gaussian 16:  EM64L-G16RevA.03 25-Dec-2016

 -------------
 #p 6-31g* mp2
 -------------

 ------------------------------------------------------
 Input file generated by CHIRIPA (05-May-2021 14:53:13)
 ------------------------------------------------------
 Symbolic Z-matrix:
 Charge =  0 Multiplicity = 1

                         Standard orientation:
 ---------------------------------------------------------------------
 Center     Atomic      Atomic             Coordinates (Angstroms)
 Number     Number       Type             X           Y           Z
 ---------------------------------------------------------------------
      1          6           0       -2.746564   -0.642204   -0.315974
      2          6           0       -3.919849   -1.527221    0.106080
      3          6           0       -3.531178   -2.999891    0.240145
      4          1           0       -2.346686   -1.005901   -1.272408
      5          1           0       -1.936881   -0.743160    0.419971
      6          1           0       -4.727615   -1.423564   -0.629709
      7          1           0       -4.317103   -1.161258    1.061526
      8          1           0       -2.741860   -3.123395    0.988694
      9          1           0       -3.154704   -3.387191   -0.712150
     10          1           0       -4.384791   -3.614457    0.542659
     11          6           0       -3.119395    0.832790   -0.454244
     12          6           0       -1.946110    1.717808   -0.876299
     13          6           0       -2.334781    3.190477   -1.010364
     14          1           0       -3.929079    0.933746   -1.190190
     15          1           0       -3.519274    1.196487    0.502190
     16          1           0       -1.548856    1.351845   -1.831744
     17          1           0       -1.138344    1.614151   -0.140509
     18          1           0       -2.711255    3.577777   -0.058068
     19          1           0       -3.124099    3.313981   -1.758912
     20          1           0       -1.481169    3.805043   -1.312878
     21          6           0        3.706857   -1.357365   -1.347316
     22          6           0        2.771564   -2.030848   -0.554744
     23          6           0        1.981898   -1.330203    0.361812
     24          6           0        2.154549    0.049580    0.460207
     25          6           0        3.077827    0.749026   -0.315436
     26          6           0        3.856739    0.027980   -1.225346
     27          1           0        4.316111   -1.909566   -2.056736
     28          1           0        2.653007   -3.106681   -0.647328
     29          1           0        1.250257   -1.826498    0.987759
     30          1           0        3.173285    1.821929   -0.200608
     31          1           0        4.582307    0.553646   -1.839571
     32          7           0        1.324257    0.802119    1.427006
     33          8           0        1.495548    2.017323    1.494665
     34          8           0        0.517904    0.162508    2.098816
 ---------------------------------------------------------------------

 SCF Done:  E(RHF) =  -669.536505080     A.U. after   15 cycles
 E2 =    -0.2092308729D+01 EUMP2 =    -0.67162881380956D+03

 The electronic state is 1-A.
 Alpha  occ. eigenvalues --  -20.61000 -20.60987 -15.85999 -11.31271 -11.27835
 Alpha  occ. eigenvalues --  -11.27830 -11.27569 -11.26833 -11.26822 -11.21141
 Alpha  occ. eigenvalues --  -11.20894 -11.20807 -11.20760 -11.20684 -11.20366
 Alpha  occ. eigenvalues --   -1.60050  -1.39604  -1.19439  -1.08856  -1.07818
 Alpha  occ. eigenvalues --   -1.04829  -1.02968  -0.95707  -0.95422  -0.86449
 Alpha  occ. eigenvalues --   -0.86233  -0.82543  -0.79049  -0.77677  -0.77572
 Alpha  occ. eigenvalues --   -0.72229  -0.71369  -0.70554  -0.65099  -0.64835
 Alpha  occ. eigenvalues --   -0.64413  -0.62179  -0.60349  -0.58807  -0.57041
 Alpha  occ. eigenvalues --   -0.55342  -0.54702  -0.53160  -0.52923  -0.52141
 Alpha  occ. eigenvalues --   -0.51869  -0.49376  -0.48998  -0.48984  -0.47373
 Alpha  occ. eigenvalues --   -0.46067  -0.45282  -0.45159  -0.44779  -0.43204
 Alpha  occ. eigenvalues --   -0.37416  -0.36424
 Alpha virt. eigenvalues --    0.04877   0.11211   0.16348   0.21206   0.23430
 Alpha virt. eigenvalues --    0.24751   0.26369   0.27408   0.27703   0.28501
 Alpha virt. eigenvalues --    0.28738   0.31119   0.31410   0.32141   0.32489

 Mulliken charges:
               1
     1  C   -0.305993
     2  C   -0.298635
     3  C   -0.475624
     4  H    0.142871
     5  H    0.161935
     6  H    0.149742
     7  H    0.154924
     8  H    0.154536
     9  H    0.150995
    10  H    0.159385
    11  C   -0.296281
    12  C   -0.304479
    13  C   -0.473955
    14  H    0.145566
    15  H    0.154204
    16  H    0.145105
    17  H    0.161654
    18  H    0.159241
    19  H    0.150735
    20  H    0.159216
    21  C   -0.170405
    22  C   -0.218709
    23  C   -0.169936
    24  C    0.157902
    25  C   -0.170531
    26  C   -0.218708
    27  H    0.225959
    28  H    0.224030
    29  H    0.275893
    30  H    0.275747
    31  H    0.223732
    32  N    0.488100
    33  O   -0.458057
    34  O   -0.460160
 Sum of Mulliken charges =  -0.00000

 Dipole moment (field-independent basis, Debye):
    X=              3.0826    Y=             -2.5738    Z=             -3.2494  Tot=              5.1658
 Quadrupole moment (field-independent basis, Debye-Ang):
   XX=            -81.8427   YY=            -92.9207   ZZ=            -97.4802
   XY=             -3.5206   XZ=             -7.1941   YZ=             -2.2337

 Normal termination of Gaussian 16 at Thu May  6 01:01:22 2021.
