 Gaussian 16, Revision A.03,
 Gaussian 16:  EM64L-G16RevA.03 25-Dec-2016

 -------------
 #p 6-31g* mp2
 -------------

 ------------------------------------------------------
 Input file generated by CHIRIPA (05-May-2021 14:51:13)
 ------------------------------------------------------
 Symbolic Z-matrix:
 Charge =  0 Multiplicity = 1

                         Standard orientation:
 ---------------------------------------------------------------------
 Center     Atomic      Atomic             Coordinates (Angstroms)
 Number     Number       Type             X           Y           Z
 ---------------------------------------------------------------------
      1          6           0       -3.062135   -0.027476    0.507869
      2          6           0       -2.485905    1.377631    0.685684
      3          6           0       -1.068995    1.367153    1.260183
      4          1           0       -3.062229   -0.542364    1.478351
      5          1           0       -2.401838   -0.606096   -0.152889
      6          1           0       -3.147822    1.953867    1.344801
      7          1           0       -2.487361    1.889302   -0.285298
      8          1           0       -0.390291    0.815717    0.601487
      9          1           0       -1.054504    0.880648    2.240848
     10          1           0       -0.676460    2.381871    1.379034
     11          6           0       -4.478062   -0.033489   -0.065579
     12          6           0       -5.054292   -1.438596   -0.243394
     13          6           0       -6.471203   -1.428118   -0.817893
     14          1           0       -5.138360    0.545131    0.595179
     15          1           0       -4.477969    0.481400   -1.036061
     16          1           0       -5.052836   -1.950267    0.727588
     17          1           0       -4.392376   -2.014831   -0.902511
     18          1           0       -6.485693   -0.941613   -1.798558
     19          1           0       -7.149906   -0.876682   -0.159197
     20          1           0       -6.863737   -2.442835   -0.936744
     21          6           0        3.833279   -0.676978    0.059818
     22          6           0        5.211038   -1.299440   -0.168883
     23          6           0        5.321890   -2.714795    0.398811
     24          1           0        3.620359   -0.659060    1.137449
     25          1           0        3.068148   -1.318176   -0.399350
     26          1           0        5.973465   -0.656546    0.289384
     27          1           0        5.420784   -1.315702   -1.246082
     28          1           0        4.582787   -3.375291   -0.066025
     29          1           0        5.138609   -2.712389    1.478165
     30          1           0        6.314846   -3.140736    0.224254
     31          6           0        3.706919    0.737943   -0.502108
     32          6           0        2.329159    1.360405   -0.273407
     33          6           0        2.218307    2.775759   -0.841101
     34          1           0        4.472049    1.379141   -0.042940
     35          1           0        3.919838    0.720025   -1.579739
     36          1           0        2.119413    1.376668    0.803793
     37          1           0        1.566732    0.717511   -0.731673
     38          1           0        2.401588    2.773353   -1.920455
     39          1           0        2.957410    3.436255   -0.376265
     40          1           0        1.225350    3.201701   -0.666545
 ---------------------------------------------------------------------

 SCF Done:  E(RHF) =  -470.732346262     A.U. after   11 cycles
 E2 =    -0.1583256391D+01 EUMP2 =    -0.47231560265309D+03

 The electronic state is 1-A.
 Alpha  occ. eigenvalues --  -11.21592 -11.21591 -11.21549 -11.21549 -11.21386
 Alpha  occ. eigenvalues --  -11.21383 -11.21326 -11.21320 -11.21065 -11.21063
 Alpha  occ. eigenvalues --  -11.21044 -11.20923  -1.08429  -1.08390  -1.03565
 Alpha  occ. eigenvalues --   -1.03447  -0.96018  -0.95889  -0.86994  -0.86953
 Alpha  occ. eigenvalues --   -0.79733  -0.79437  -0.78286  -0.78153  -0.65063
 Alpha  occ. eigenvalues --   -0.65022  -0.60973  -0.60877  -0.59450  -0.59210
 Alpha  occ. eigenvalues --   -0.57600  -0.57561  -0.55261  -0.55186  -0.52739
 Alpha  occ. eigenvalues --   -0.52568  -0.52453  -0.52287  -0.49951  -0.49875
 Alpha  occ. eigenvalues --   -0.48113  -0.47663  -0.46671  -0.46548  -0.45865
 Alpha  occ. eigenvalues --   -0.45729  -0.45691  -0.45481  -0.43759  -0.43741
 Alpha virt. eigenvalues --    0.21767   0.23060   0.23476   0.25054   0.26044
 Alpha virt. eigenvalues --    0.26610   0.26967   0.27227   0.27925   0.29190
 Alpha virt. eigenvalues --    0.30127   0.31115   0.31261   0.31826   0.32358

 Mulliken charges:
               1
     1  C   -0.298217
     2  C   -0.300112
     3  C   -0.481801
     4  H    0.149671
     5  H    0.149009
     6  H    0.151386
     7  H    0.151316
     8  H    0.164475
     9  H    0.153952
    10  H    0.159732
    11  C   -0.298229
    12  C   -0.299607
    13  C   -0.475687
    14  H    0.149556
    15  H    0.149541
    16  H    0.151939
    17  H    0.151774
    18  H    0.155136
    19  H    0.155191
    20  H    0.160200
    21  C   -0.298328
    22  C   -0.299576
    23  C   -0.475685
    24  H    0.149896
    25  H    0.148960
    26  H    0.151955
    27  H    0.151855
    28  H    0.155105
    29  H    0.155226
    30  H    0.160207
    31  C   -0.297521
    32  C   -0.301821
    33  C   -0.477809
    34  H    0.149369
    35  H    0.149162
    36  H    0.156381
    37  H    0.151307
    38  H    0.154694
    39  H    0.155120
    40  H    0.162278
 Sum of Mulliken charges =  -0.00000

 Dipole moment (field-independent basis, Debye):
    X=              0.0284    Y=              0.0001    Z=              0.0088  Tot=              0.0297
 Quadrupole moment (field-independent basis, Debye-Ang):
   XX=            -85.8166   YY=            -85.7799   ZZ=            -83.3953
   XY=              0.2503   XZ=             -0.5012   YZ=              0.6864

 Normal termination of Gaussian 16 at Thu May  6 03:58:09 2021.
