 Gaussian 16, Revision A.03,
 Gaussian 16:  EM64L-G16RevA.03 25-Dec-2016

 -------------
 #p 6-31g* mp2
 -------------

 ------------------------------------------------------
 Input file generated by CHIRIPA (05-May-2021 14:57:24)
 ------------------------------------------------------
 Symbolic Z-matrix:
 Charge =  0 Multiplicity = 1

                         Standard orientation:
 ---------------------------------------------------------------------
 Center     Atomic      Atomic             Coordinates (Angstroms)
 Number     Number       Type             X           Y           Z
 ---------------------------------------------------------------------
      1          6           0       -2.409559    2.754253    0.039818
      2          6           0       -3.074501    2.026448   -0.952490
      3          6           0       -3.225907    0.641503   -0.836080
      4          6           0       -2.697619    0.013768    0.290930
      5          6           0       -2.030038    0.711212    1.296513
      6          6           0       -1.890365    2.095474    1.159179
      7          1           0       -2.296501    3.829846   -0.058739
      8          1           0       -3.478731    2.535417   -1.822888
      9          1           0       -3.736197    0.053631   -1.589359
     10          1           0       -1.637803    0.175951    2.152705
     11          1           0       -1.373493    2.658136    1.931383
     12          7           0       -2.851695   -1.452049    0.425244
     13          8           0       -2.377219   -1.981532    1.427819
     14          8           0       -3.444017   -2.043718   -0.474600
     15          6           0        0.671719   -1.584298   -1.041972
     16          6           0        0.766350   -0.221880   -1.344272
     17          6           0        1.870238    0.524315   -0.920986
     18          6           0        2.865626   -0.126875   -0.194045
     19          6           0        2.800137   -1.482811    0.122875
     20          6           0        1.687125   -2.209313   -0.310654
     21          1           0       -0.189351   -2.156310   -1.374769
     22          1           0       -0.020722    0.266148   -1.912067
     23          1           0        1.968905    1.580354   -1.141134
     24          1           0        3.600601   -1.941555    0.690529
     25          1           0        1.616297   -3.267248   -0.074429
     26          7           0        4.039093    0.652663    0.259490
     27          8           0        4.902632    0.055537    0.898534
     28          8           0        4.073098    1.846033   -0.032661
 ---------------------------------------------------------------------

 SCF Done:  E(RHF) =  -868.339309246     A.U. after   16 cycles
 E2 =    -0.2601738497D+01 EUMP2 =    -0.87094104774308D+03

 The electronic state is 1-A.
 Alpha  occ. eigenvalues --  -20.61734 -20.61701 -20.60773 -20.60753 -15.86744
 Alpha  occ. eigenvalues --  -15.85813 -11.31964 -11.31058 -11.28570 -11.28457
 Alpha  occ. eigenvalues --  -11.28210 -11.27624 -11.27547 -11.27543 -11.27421
 Alpha  occ. eigenvalues --  -11.27198 -11.26581 -11.26490  -1.60801  -1.59845
 Alpha  occ. eigenvalues --   -1.40350  -1.39401  -1.20140  -1.19194  -1.09552
 Alpha  occ. eigenvalues --   -1.08597  -1.05505  -1.04572  -0.96405  -0.95460
 Alpha  occ. eigenvalues --   -0.86899  -0.85966  -0.83230  -0.82295  -0.78302
 Alpha  occ. eigenvalues --   -0.77378  -0.72959  -0.72190  -0.72028  -0.71208
 Alpha  occ. eigenvalues --   -0.71170  -0.70210  -0.65774  -0.65475  -0.64833
 Alpha  occ. eigenvalues --   -0.64556  -0.62836  -0.61932  -0.55982  -0.55021
 Alpha  occ. eigenvalues --   -0.53969  -0.53567  -0.52845  -0.52587  -0.49735
 Alpha  occ. eigenvalues --   -0.49712  -0.48797  -0.48774  -0.45780  -0.44834
 Alpha  occ. eigenvalues --   -0.38211  -0.37205  -0.37003  -0.36098
 Alpha virt. eigenvalues --    0.04147   0.05164   0.10499   0.11483   0.15722
 Alpha virt. eigenvalues --    0.16666   0.20788   0.21669   0.26739   0.27443
 Alpha virt. eigenvalues --    0.27653   0.28474   0.30439   0.31224   0.31924

 Mulliken charges:
               1
     1  C   -0.172129
     2  C   -0.221598
     3  C   -0.179327
     4  C    0.157446
     5  C   -0.166097
     6  C   -0.218665
     7  H    0.229833
     8  H    0.225724
     9  H    0.275408
    10  H    0.278844
    11  H    0.229424
    12  N    0.485805
    13  O   -0.456632
    14  O   -0.463978
    15  C   -0.179146
    16  C   -0.218459
    17  C   -0.174038
    18  C    0.157347
    19  C   -0.172819
    20  C   -0.215138
    21  H    0.236035
    22  H    0.222360
    23  H    0.271142
    24  H    0.275331
    25  H    0.228988
    26  N    0.487994
    27  O   -0.459920
    28  O   -0.463736
 Sum of Mulliken charges =  -0.00000

 Dipole moment (field-independent basis, Debye):
    X=             -3.7228    Y=              2.3843    Z=             -1.8820  Tot=              4.8048
 Quadrupole moment (field-independent basis, Debye-Ang):
   XX=           -131.2722   YY=           -100.7535   ZZ=           -100.5024
   XY=            -23.7225   XZ=              0.8388   YZ=              0.5225

 Normal termination of Gaussian 16 at Fri May  7 11:06:17 2021.
