 Gaussian 16, Revision A.03,
 Gaussian 16:  EM64L-G16RevA.03 25-Dec-2016

 -------------
 #p 6-31g* mp2
 -------------

 ------------------------------------------------------
 Input file generated by CHIRIPA (05-May-2021 14:51:12)
 ------------------------------------------------------
 Symbolic Z-matrix:
 Charge =  0 Multiplicity = 1

                         Standard orientation:
 ---------------------------------------------------------------------
 Center     Atomic      Atomic             Coordinates (Angstroms)
 Number     Number       Type             X           Y           Z
 ---------------------------------------------------------------------
      1          6           0        3.018108   -0.424956   -0.184896
      2          6           0        3.411311    0.923506   -0.789070
      3          6           0        4.434621    0.789956   -1.917252
      4          1           0        3.919262   -0.926970    0.193058
      5          1           0        2.610479   -1.068714   -0.976609
      6          1           0        3.816795    1.565020    0.003810
      7          1           0        2.509091    1.422453   -1.165457
      8          1           0        4.035783    0.171607   -2.727914
      9          1           0        5.350916    0.314985   -1.552003
     10          1           0        4.701538    1.765817   -2.334756
     11          6           0        1.995777   -0.307904    0.944203
     12          6           0        1.602573   -1.656367    1.548377
     13          6           0        0.579263   -1.522817    2.676559
     14          1           0        2.403405    0.335854    1.735916
     15          1           0        1.094623    0.194110    0.566249
     16          1           0        2.504793   -2.155313    1.924764
     17          1           0        1.197090   -2.297881    0.755496
     18          1           0       -0.337032   -1.047845    2.311310
     19          1           0        0.978102   -0.904468    3.487221
     20          1           0        0.312346   -2.498678    3.094063
     21          6           0       -2.884695   -0.297324   -0.392532
     22          6           0       -2.345096   -1.282068   -1.430365
     23          6           0       -3.111086   -2.605270   -1.444058
     24          1           0       -2.837138   -0.760485    0.602539
     25          1           0       -3.946987   -0.105011   -0.597341
     26          1           0       -1.283783   -1.471397   -1.224488
     27          1           0       -2.393766   -0.816436   -2.423056
     28          1           0       -4.168460   -2.435956   -1.671864
     29          1           0       -3.052171   -3.094639   -0.466486
     30          1           0       -2.708756   -3.294323   -2.193188
     31          6           0       -2.129190    1.030184   -0.366776
     32          6           0       -2.668788    2.014928    0.671058
     33          6           0       -1.902798    3.338131    0.684751
     34          1           0       -1.066899    0.837871   -0.161967
     35          1           0       -2.176747    1.493346   -1.361845
     36          1           0       -2.620119    1.549296    1.663749
     37          1           0       -3.730102    2.204258    0.465181
     38          1           0       -1.961713    3.827500   -0.292821
     39          1           0       -0.845425    3.168816    0.912557
     40          1           0       -2.305128    4.027184    1.433881
 ---------------------------------------------------------------------

 SCF Done:  E(RHF) =  -470.733405691     A.U. after   11 cycles
 E2 =    -0.1584004722D+01 EUMP2 =    -0.47231741041243D+03

 The electronic state is 1-A.
 Alpha  occ. eigenvalues --  -11.21674 -11.21664 -11.21629 -11.21619 -11.21454
 Alpha  occ. eigenvalues --  -11.21452 -11.21393 -11.21390 -11.21154 -11.21108
 Alpha  occ. eigenvalues --  -11.21079 -11.21078  -1.08510  -1.08452  -1.03575
 Alpha  occ. eigenvalues --   -1.03565  -0.96026  -0.96014  -0.87049  -0.87023
 Alpha  occ. eigenvalues --   -0.79656  -0.79611  -0.78386  -0.78214  -0.65370
 Alpha  occ. eigenvalues --   -0.64880  -0.60988  -0.60940  -0.59394  -0.59380
 Alpha  occ. eigenvalues --   -0.57660  -0.57604  -0.55327  -0.55299  -0.52718
 Alpha  occ. eigenvalues --   -0.52705  -0.52474  -0.52421  -0.50043  -0.49900
 Alpha  occ. eigenvalues --   -0.47971  -0.47946  -0.46806  -0.46587  -0.46243
 Alpha  occ. eigenvalues --   -0.45793  -0.45783  -0.45240  -0.43831  -0.43822
 Alpha virt. eigenvalues --    0.18551   0.22960   0.23400   0.24747   0.25393
 Alpha virt. eigenvalues --    0.25890   0.26950   0.27695   0.28701   0.30147
 Alpha virt. eigenvalues --    0.30842   0.31640   0.31731   0.31895   0.32286

 Mulliken charges:
               1
     1  C   -0.297649
     2  C   -0.300057
     3  C   -0.475754
     4  H    0.149893
     5  H    0.149565
     6  H    0.151943
     7  H    0.152379
     8  H    0.155358
     9  H    0.155157
    10  H    0.160426
    11  C   -0.308604
    12  C   -0.299884
    13  C   -0.478316
    14  H    0.149835
    15  H    0.158148
    16  H    0.152581
    17  H    0.152342
    18  H    0.156301
    19  H    0.155664
    20  H    0.160676
    21  C   -0.299408
    22  C   -0.300769
    23  C   -0.475820
    24  H    0.150934
    25  H    0.150101
    26  H    0.151843
    27  H    0.152149
    28  H    0.155436
    29  H    0.155650
    30  H    0.160284
    31  C   -0.308657
    32  C   -0.299400
    33  C   -0.476257
    34  H    0.158129
    35  H    0.149917
    36  H    0.152281
    37  H    0.152179
    38  H    0.155067
    39  H    0.155864
    40  H    0.160472
 Sum of Mulliken charges =  -0.00000

 Dipole moment (field-independent basis, Debye):
    X=              0.0023    Y=              0.0040    Z=              0.0008  Tot=              0.0047
 Quadrupole moment (field-independent basis, Debye-Ang):
   XX=            -84.4413   YY=            -85.6288   ZZ=            -84.5113
   XY=             -0.6926   XZ=              1.5478   YZ=             -0.2928

 Normal termination of Gaussian 16 at Wed May  5 15:17:29 2021.
