 Gaussian 16, Revision A.03,
 Gaussian 16:  EM64L-G16RevA.03 25-Dec-2016

 -------------
 #p 6-31g* mp2
 -------------

 ------------------------------------------------------
 Input file generated by CHIRIPA (05-May-2021 14:53:18)
 ------------------------------------------------------
 Symbolic Z-matrix:
 Charge =  0 Multiplicity = 1

                         Standard orientation:
 ---------------------------------------------------------------------
 Center     Atomic      Atomic             Coordinates (Angstroms)
 Number     Number       Type             X           Y           Z
 ---------------------------------------------------------------------
      1          6           0        4.710968    0.331167   -0.013426
      2          6           0        6.154707   -0.063688   -0.325986
      3          6           0        7.116684    1.123635   -0.274400
      4          1           0        4.385147    1.100171   -0.727163
      5          1           0        4.671962    0.792849    0.982929
      6          1           0        6.190758   -0.525743   -1.320883
      7          1           0        6.477065   -0.831978    0.388458
      8          1           0        7.110309    1.581688    0.719958
      9          1           0        6.822375    1.889663   -0.999096
     10          1           0        8.143148    0.818819   -0.500937
     11          6           0        3.737350   -0.845066   -0.061076
     12          6           0        2.293611   -0.450211    0.251484
     13          6           0        1.331635   -1.637533    0.199898
     14          1           0        3.776356   -1.306747   -1.057431
     15          1           0        4.063171   -1.614069    0.652661
     16          1           0        1.971253    0.318080   -0.462960
     17          1           0        2.257560    0.011845    1.246381
     18          1           0        1.625943   -2.403561    0.924594
     19          1           0        1.338009   -2.095586   -0.794460
     20          1           0        0.305171   -1.332717    0.426435
     21          6           0       -3.073039    2.710782    0.147637
     22          6           0       -4.103861    2.135852   -0.602951
     23          6           0       -4.239276    0.746279   -0.675741
     24          6           0       -3.322077   -0.041920    0.017643
     25          6           0       -2.284456    0.500968    0.773887
     26          6           0       -2.168223    1.892947    0.832452
     27          1           0       -2.975296    3.791171    0.198657
     28          1           0       -4.808007    2.768529   -1.135814
     29          1           0       -5.027960    0.274777   -1.249397
     30          1           0       -1.597836   -0.155671    1.294267
     31          1           0       -1.366693    2.336678    1.416147
     32          7           0       -3.455283   -1.514273   -0.051888
     33          8           0       -2.634308   -2.186765    0.568105
     34          8           0       -4.378141   -1.967931   -0.725062
 ---------------------------------------------------------------------

 SCF Done:  E(RHF) =  -669.535491503     A.U. after   15 cycles
 E2 =    -0.2091521641D+01 EUMP2 =    -0.67162701314316D+03

 The electronic state is 1-A.
 Alpha  occ. eigenvalues --  -20.60824 -20.60817 -15.85859 -11.31224 -11.27787
 Alpha  occ. eigenvalues --  -11.27781 -11.27528 -11.26808 -11.26797 -11.21661
 Alpha  occ. eigenvalues --  -11.21658 -11.21472 -11.21384 -11.21154 -11.20812
 Alpha  occ. eigenvalues --   -1.59887  -1.39442  -1.19395  -1.08790  -1.08473
 Alpha  occ. eigenvalues --   -1.04798  -1.03542  -0.95966  -0.95623  -0.86969
 Alpha  occ. eigenvalues --   -0.86195  -0.82456  -0.79605  -0.78297  -0.77510
 Alpha  occ. eigenvalues --   -0.72081  -0.71203  -0.70513  -0.65104  -0.65048
 Alpha  occ. eigenvalues --   -0.64813  -0.62189  -0.60936  -0.59329  -0.57595
 Alpha  occ. eigenvalues --   -0.55300  -0.55236  -0.53138  -0.52995  -0.52552
 Alpha  occ. eigenvalues --   -0.52331  -0.49888  -0.48840  -0.48838  -0.47915
 Alpha  occ. eigenvalues --   -0.46651  -0.45829  -0.45766  -0.44852  -0.43758
 Alpha  occ. eigenvalues --   -0.37373  -0.36392
 Alpha virt. eigenvalues --    0.04987   0.11182   0.16512   0.20863   0.22856
 Alpha virt. eigenvalues --    0.24054   0.26494   0.26639   0.27461   0.27809
 Alpha virt. eigenvalues --    0.29056   0.30276   0.31433   0.31583   0.31903

 Mulliken charges:
               1
     1  C   -0.297936
     2  C   -0.299721
     3  C   -0.475658
     4  H    0.148292
     5  H    0.147870
     6  H    0.152701
     7  H    0.152670
     8  H    0.154554
     9  H    0.154547
    10  H    0.160765
    11  C   -0.297859
    12  C   -0.301523
    13  C   -0.479849
    14  H    0.151215
    15  H    0.151032
    16  H    0.149061
    17  H    0.145616
    18  H    0.158059
    19  H    0.158900
    20  H    0.164532
    21  C   -0.170805
    22  C   -0.218364
    23  C   -0.170914
    24  C    0.157742
    25  C   -0.172251
    26  C   -0.219579
    27  H    0.225777
    28  H    0.223583
    29  H    0.275680
    30  H    0.279789
    31  H    0.224341
    32  N    0.488473
    33  O   -0.461036
    34  O   -0.459705
 Sum of Mulliken charges =  -0.00000

 Dipole moment (field-independent basis, Debye):
    X=              0.4128    Y=              5.1136    Z=              0.2077  Tot=              5.1344
 Quadrupole moment (field-independent basis, Debye-Ang):
   XX=            -95.5976   YY=            -96.0666   ZZ=            -92.6101
   XY=            -18.7657   XZ=              2.0924   YZ=             -0.4240

 Normal termination of Gaussian 16 at Thu May  6 20:34:31 2021.
