 Gaussian 16, Revision A.03,
 Gaussian 16:  EM64L-G16RevA.03 25-Dec-2016

 -------------
 #p 6-31g* mp2
 -------------

 ------------------------------------------------------
 Input file generated by CHIRIPA (05-May-2021 14:51:09)
 ------------------------------------------------------
 Symbolic Z-matrix:
 Charge =  0 Multiplicity = 1

                         Standard orientation:
 ---------------------------------------------------------------------
 Center     Atomic      Atomic             Coordinates (Angstroms)
 Number     Number       Type             X           Y           Z
 ---------------------------------------------------------------------
      1          6           0       -4.970720    0.275401    0.007256
      2          6           0       -5.034161    1.802596    0.047709
      3          6           0       -6.467490    2.334188    0.075475
      4          1           0       -5.513989   -0.084505   -0.877206
      5          1           0       -5.496150   -0.129786    0.883122
      6          1           0       -4.507574    2.204810   -0.827245
      7          1           0       -4.490514    2.158917    0.932074
      8          1           0       -6.999863    1.960779    0.956239
      9          1           0       -7.017020    2.006933   -0.813076
     10          1           0       -6.489498    3.428056    0.104223
     11          6           0       -3.544460   -0.271155   -0.020831
     12          6           0       -3.481020   -1.798349   -0.061285
     13          6           0       -2.047690   -2.329941   -0.089050
     14          1           0       -3.019030    0.134032   -0.896698
     15          1           0       -3.001191    0.088751    0.863630
     16          1           0       -4.024666   -2.154670   -0.945649
     17          1           0       -4.007606   -2.200564    0.813670
     18          1           0       -1.498161   -2.002687    0.799500
     19          1           0       -1.515317   -1.956532   -0.969815
     20          1           0       -2.025683   -3.423810   -0.117798
     21          6           0        4.595585    0.639491   -0.233050
     22          6           0        6.001480    0.833460    0.336006
     23          6           0        6.664642    2.121441   -0.152988
     24          1           0        4.648810    0.632453   -1.330347
     25          1           0        3.973202    1.501572    0.044174
     26          1           0        6.620641   -0.029386    0.058963
     27          1           0        5.944927    0.839847    1.432079
     28          1           0        6.070768    2.994438    0.136481
     29          1           0        6.750322    2.120267   -1.244437
     30          1           0        7.668742    2.240108    0.266012
     31          6           0        3.919595   -0.643738    0.246625
     32          6           0        2.513701   -0.837706   -0.322430
     33          6           0        1.850539   -2.125688    0.166564
     34          1           0        4.541978   -1.505818   -0.030598
     35          1           0        3.866370   -0.636699    1.343923
     36          1           0        2.570253   -0.844093   -1.418504
     37          1           0        1.894540    0.025139   -0.045388
     38          1           0        1.764858   -2.124513    1.258012
     39          1           0        2.444411   -2.998683   -0.122906
     40          1           0        0.846438   -2.244354   -0.252435
 ---------------------------------------------------------------------

 SCF Done:  E(RHF) =  -470.732888263     A.U. after   11 cycles
 E2 =    -0.1582492399D+01 EUMP2 =    -0.47231538066199D+03

 The electronic state is 1-A.
 Alpha  occ. eigenvalues --  -11.21611 -11.21611 -11.21568 -11.21514 -11.21417
 Alpha  occ. eigenvalues --  -11.21358 -11.21351 -11.21289 -11.21090 -11.21079
 Alpha  occ. eigenvalues --  -11.21046 -11.20868  -1.08444  -1.08369  -1.03557
 Alpha  occ. eigenvalues --   -1.03450  -0.96039  -0.95870  -0.87098  -0.86851
 Alpha  occ. eigenvalues --   -0.79666  -0.79477  -0.78257  -0.78185  -0.65074
 Alpha  occ. eigenvalues --   -0.65001  -0.60951  -0.60851  -0.59364  -0.59318
 Alpha  occ. eigenvalues --   -0.57734  -0.57401  -0.55309  -0.55172  -0.52974
 Alpha  occ. eigenvalues --   -0.52625  -0.52393  -0.52046  -0.49968  -0.49822
 Alpha  occ. eigenvalues --   -0.48019  -0.47719  -0.46652  -0.46551  -0.45795
 Alpha  occ. eigenvalues --   -0.45731  -0.45715  -0.45654  -0.43843  -0.43626
 Alpha virt. eigenvalues --    0.22464   0.22976   0.23623   0.24769   0.26489
 Alpha virt. eigenvalues --    0.26656   0.26900   0.27541   0.27604   0.29131
 Alpha virt. eigenvalues --    0.30218   0.31363   0.31534   0.32010   0.32051

 Mulliken charges:
               1
     1  C   -0.298288
     2  C   -0.299640
     3  C   -0.475713
     4  H    0.149702
     5  H    0.149563
     6  H    0.151964
     7  H    0.151885
     8  H    0.155195
     9  H    0.155210
    10  H    0.160273
    11  C   -0.298328
    12  C   -0.300356
    13  C   -0.478347
    14  H    0.149556
    15  H    0.149571
    16  H    0.151912
    17  H    0.152031
    18  H    0.158231
    19  H    0.154706
    20  H    0.161095
    21  C   -0.298160
    22  C   -0.299576
    23  C   -0.475659
    24  H    0.149456
    25  H    0.149348
    26  H    0.151866
    27  H    0.151837
    28  H    0.155101
    29  H    0.155104
    30  H    0.160128
    31  C   -0.298177
    32  C   -0.299150
    33  C   -0.484841
    34  H    0.149386
    35  H    0.149368
    36  H    0.151108
    37  H    0.151519
    38  H    0.153432
    39  H    0.153869
    40  H    0.173817
 Sum of Mulliken charges =  -0.00000

 Dipole moment (field-independent basis, Debye):
    X=             -0.0553    Y=             -0.0175    Z=             -0.0026  Tot=              0.0581
 Quadrupole moment (field-independent basis, Debye-Ang):
   XX=            -86.1719   YY=            -85.6101   ZZ=            -83.1498
   XY=             -0.1709   XZ=             -0.1489   YZ=              0.6232

 Normal termination of Gaussian 16 at Thu May  6 02:10:33 2021.
