 Gaussian 16, Revision A.03,
 Gaussian 16:  EM64L-G16RevA.03 25-Dec-2016

 -------------
 #p 6-31g* mp2
 -------------

 ------------------------------------------------------
 Input file generated by CHIRIPA (05-May-2021 14:57:23)
 ------------------------------------------------------
 Symbolic Z-matrix:
 Charge =  0 Multiplicity = 1

                         Standard orientation:
 ---------------------------------------------------------------------
 Center     Atomic      Atomic             Coordinates (Angstroms)
 Number     Number       Type             X           Y           Z
 ---------------------------------------------------------------------
      1          6           0       -0.797939   -0.071433   -0.424065
      2          6           0       -1.538629    1.088065   -0.675987
      3          6           0       -2.928818    1.088699   -0.527921
      4          6           0       -3.548599   -0.093027   -0.124578
      5          6           0       -2.838282   -1.264310    0.133946
      6          6           0       -1.448982   -1.241856   -0.020614
      7          1           0        0.281647   -0.062957   -0.541609
      8          1           0       -1.035691    1.998474   -0.989440
      9          1           0       -3.526633    1.972183   -0.716307
     10          1           0       -3.367770   -2.156645    0.445072
     11          1           0       -0.876310   -2.143822    0.175728
     12          7           0       -5.019859   -0.104577    0.035611
     13          8           0       -5.542135   -1.158517    0.392088
     14          8           0       -5.622899    0.940529   -0.198343
     15          6           0        3.958327   -2.310900   -0.262339
     16          6           0        2.995523   -2.003431    0.704610
     17          6           0        2.626395   -0.676063    0.942069
     18          6           0        3.243064    0.323342    0.190937
     19          6           0        4.205603    0.048942   -0.779380
     20          6           0        4.559235   -1.285540   -0.999947
     21          1           0        4.239055   -3.344795   -0.440241
     22          1           0        2.527187   -2.797687    1.278950
     23          1           0        1.883912   -0.409847    1.684543
     24          1           0        4.654951    0.862319   -1.336087
     25          1           0        5.307263   -1.521371   -1.751534
     26          7           0        2.860488    1.732333    0.433382
     27          8           0        3.418561    2.594554   -0.241724
     28          8           0        2.009799    1.947800    1.293927
 ---------------------------------------------------------------------

 SCF Done:  E(RHF) =  -868.337489166     A.U. after   16 cycles
 E2 =    -0.2601703290D+01 EUMP2 =    -0.87093919245606D+03

 The electronic state is 1-A.
 Alpha  occ. eigenvalues --  -20.61945 -20.61935 -20.60554 -20.60540 -15.86981
 Alpha  occ. eigenvalues --  -15.85602 -11.32394 -11.30921 -11.28954 -11.28912
 Alpha  occ. eigenvalues --  -11.28633 -11.27963 -11.27880 -11.27550 -11.27425
 Alpha  occ. eigenvalues --  -11.27154 -11.26594 -11.26362  -1.61027  -1.59626
 Alpha  occ. eigenvalues --   -1.40569  -1.39181  -1.20575  -1.19087  -1.09937
 Alpha  occ. eigenvalues --   -1.08488  -1.05954  -1.04485  -0.96762  -0.95334
 Alpha  occ. eigenvalues --   -0.87339  -0.85884  -0.83571  -0.82173  -0.78633
 Alpha  occ. eigenvalues --   -0.77225  -0.73176  -0.72428  -0.71822  -0.71619
 Alpha  occ. eigenvalues --   -0.70948  -0.70176  -0.66186  -0.65903  -0.64739
 Alpha  occ. eigenvalues --   -0.64500  -0.63262  -0.61836  -0.56398  -0.55258
 Alpha  occ. eigenvalues --   -0.54069  -0.53968  -0.52807  -0.52575  -0.49956
 Alpha  occ. eigenvalues --   -0.49941  -0.48579  -0.48576  -0.45943  -0.44597
 Alpha  occ. eigenvalues --   -0.38526  -0.37588  -0.37011  -0.36085
 Alpha virt. eigenvalues --    0.03832   0.05311   0.10015   0.11548   0.15323
 Alpha virt. eigenvalues --    0.16800   0.20182   0.21778   0.25826   0.27293
 Alpha virt. eigenvalues --    0.27794   0.28489   0.29849   0.31334   0.31867

 Mulliken charges:
               1
     1  C   -0.170445
     2  C   -0.216469
     3  C   -0.170899
     4  C    0.158124
     5  C   -0.170916
     6  C   -0.224115
     7  H    0.227518
     8  H    0.231505
     9  H    0.276425
    10  H    0.273172
    11  H    0.214344
    12  N    0.488099
    13  O   -0.462390
    14  O   -0.459791
    15  C   -0.169891
    16  C   -0.219876
    17  C   -0.185699
    18  C    0.153940
    19  C   -0.170899
    20  C   -0.217684
    21  H    0.230198
    22  H    0.226033
    23  H    0.280779
    24  H    0.279072
    25  H    0.228219
    26  N    0.486876
    27  O   -0.456600
    28  O   -0.458631
 Sum of Mulliken charges =  -0.00000

 Dipole moment (field-independent basis, Debye):
    X=              6.9029    Y=             -4.7882    Z=             -1.4660  Tot=              8.5280
 Quadrupole moment (field-independent basis, Debye-Ang):
   XX=           -130.8145   YY=           -103.2216   ZZ=           -103.2418
   XY=            -16.2165   XZ=             -3.9216   YZ=             -3.8898

 Normal termination of Gaussian 16 at Fri May  7 11:05:01 2021.
