 Gaussian 16, Revision A.03,
 Gaussian 16:  EM64L-G16RevA.03 25-Dec-2016

 -------------
 #p 6-31g* mp2
 -------------

 ------------------------------------------------------
 Input file generated by CHIRIPA (05-May-2021 14:57:26)
 ------------------------------------------------------
 Symbolic Z-matrix:
 Charge =  0 Multiplicity = 1

                         Standard orientation:
 ---------------------------------------------------------------------
 Center     Atomic      Atomic             Coordinates (Angstroms)
 Number     Number       Type             X           Y           Z
 ---------------------------------------------------------------------
      1          6           0       -2.233836    2.451861    0.291376
      2          6           0       -3.596538    2.375915    0.597638
      3          6           0       -4.308203    1.192331    0.380358
      4          6           0       -3.622567    0.099062   -0.146857
      5          6           0       -2.265402    0.143503   -0.462161
      6          6           0       -1.573780    1.337378   -0.236615
      7          1           0       -1.688782    3.375295    0.463375
      8          1           0       -4.111736    3.239854    1.007790
      9          1           0       -5.363627    1.105983    0.608483
     10          1           0       -1.779121   -0.734397   -0.869887
     11          1           0       -0.515537    1.393471   -0.475402
     12          7           0       -4.365365   -1.159393   -0.381257
     13          8           0       -3.738276   -2.108480   -0.846691
     14          8           0       -5.560595   -1.172853   -0.095106
     15          6           0        1.530489   -1.399611    1.244632
     16          6           0        2.630981   -0.981532    2.000043
     17          6           0        3.727828   -0.374702    1.380988
     18          6           0        3.690564   -0.200789   -0.001639
     19          6           0        2.608782   -0.606574   -0.781624
     20          6           0        1.522915   -1.211130   -0.141348
     21          1           0        0.682696   -1.870128    1.733771
     22          1           0        2.639611   -1.126626    3.076574
     23          1           0        4.592733   -0.041548    1.941671
     24          1           0        2.629142   -0.448415   -1.853066
     25          1           0        0.669615   -1.534820   -0.730540
     26          7           0        4.845936    0.440431   -0.668238
     27          8           0        4.788654    0.582231   -1.887765
     28          8           0        5.786920    0.789077    0.041431
 ---------------------------------------------------------------------

 SCF Done:  E(RHF) =  -868.337842228     A.U. after   16 cycles
 E2 =    -0.2600312747D+01 EUMP2 =    -0.87093815497541D+03

 The electronic state is 1-A.
 Alpha  occ. eigenvalues --  -20.61396 -20.61372 -20.61280 -20.61274 -15.86438
 Alpha  occ. eigenvalues --  -15.86339 -11.31800 -11.31792 -11.28431 -11.28420
 Alpha  occ. eigenvalues --  -11.28364 -11.28293 -11.28100 -11.27996 -11.27463
 Alpha  occ. eigenvalues --  -11.27337 -11.27308 -11.27298  -1.60461  -1.60356
 Alpha  occ. eigenvalues --   -1.40017  -1.39906  -1.19992  -1.19938  -1.09349
 Alpha  occ. eigenvalues --   -1.09317  -1.05436  -1.05320  -0.96177  -0.96156
 Alpha  occ. eigenvalues --   -0.86796  -0.86725  -0.83038  -0.82965  -0.78138
 Alpha  occ. eigenvalues --   -0.77982  -0.72653  -0.72550  -0.71785  -0.71687
 Alpha  occ. eigenvalues --   -0.71067  -0.71012  -0.65637  -0.65609  -0.65440
 Alpha  occ. eigenvalues --   -0.65272  -0.62914  -0.62520  -0.55858  -0.55781
 Alpha  occ. eigenvalues --   -0.53804  -0.53651  -0.53516  -0.53315  -0.49422
 Alpha  occ. eigenvalues --   -0.49399  -0.49316  -0.49302  -0.45424  -0.45292
 Alpha  occ. eigenvalues --   -0.37983  -0.37879  -0.37101  -0.36847
 Alpha virt. eigenvalues --    0.04415   0.04529   0.10542   0.10710   0.15872
 Alpha virt. eigenvalues --    0.15996   0.19011   0.21804   0.24647   0.27213
 Alpha virt. eigenvalues --    0.27822   0.28889   0.29849   0.30992   0.31560

 Mulliken charges:
               1
     1  C   -0.171341
     2  C   -0.217955
     3  C   -0.170913
     4  C    0.160370
     5  C   -0.179201
     6  C   -0.219215
     7  H    0.229027
     8  H    0.225770
     9  H    0.277023
    10  H    0.268478
    11  H    0.227555
    12  N    0.487887
    13  O   -0.463541
    14  O   -0.457453
    15  C   -0.170557
    16  C   -0.219259
    17  C   -0.170116
    18  C    0.158393
    19  C   -0.175363
    20  C   -0.228290
    21  H    0.232061
    22  H    0.226417
    23  H    0.277542
    24  H    0.277250
    25  H    0.225948
    26  N    0.487931
    27  O   -0.459638
    28  O   -0.458811
 Sum of Mulliken charges =  -0.00000

 Dipole moment (field-independent basis, Debye):
    X=             -1.3965    Y=              2.2641    Z=              3.3382  Tot=              4.2685
 Quadrupole moment (field-independent basis, Debye-Ang):
   XX=           -149.1900   YY=           -102.9835   ZZ=           -101.2493
   XY=            -25.6919   XZ=              6.0525   YZ=              0.1811

 Normal termination of Gaussian 16 at Fri May  7 11:14:00 2021.
