 Gaussian 16, Revision A.03,
 Gaussian 16:  EM64L-G16RevA.03 25-Dec-2016

 -------------
 #p 6-31g* mp2
 -------------

 ------------------------------------------------------
 Input file generated by CHIRIPA (05-May-2021 14:51:13)
 ------------------------------------------------------
 Symbolic Z-matrix:
 Charge =  0 Multiplicity = 1

                         Standard orientation:
 ---------------------------------------------------------------------
 Center     Atomic      Atomic             Coordinates (Angstroms)
 Number     Number       Type             X           Y           Z
 ---------------------------------------------------------------------
      1          6           0       -3.497973    1.256280   -0.133227
      2          6           0       -2.178101    1.877135    0.325532
      3          6           0       -2.114812    3.384030    0.074423
      4          1           0       -3.637633    1.457155   -1.204250
      5          1           0       -4.328819    1.751101    0.388540
      6          1           0       -1.349905    1.380347   -0.195917
      7          1           0       -2.041475    1.674594    1.395545
      8          1           0       -2.921264    3.897656    0.607737
      9          1           0       -2.225765    3.601737   -0.992767
     10          1           0       -1.162862    3.807292    0.409835
     11          6           0       -3.576353   -0.249664    0.111149
     12          6           0       -4.896226   -0.870519   -0.347611
     13          6           0       -4.959514   -2.377414   -0.096501
     14          1           0       -2.745507   -0.744485   -0.410618
     15          1           0       -3.436694   -0.450539    1.182171
     16          1           0       -5.032851   -0.667978   -1.417623
     17          1           0       -5.724421   -0.373731    0.173839
     18          1           0       -4.848561   -2.595121    0.970689
     19          1           0       -4.153062   -2.891040   -0.629816
     20          1           0       -5.911464   -2.800676   -0.431913
     21          6           0        4.278826   -0.586747    0.173538
     22          6           0        5.156655    0.517990   -0.415493
     23          6           0        6.637787    0.337206   -0.081788
     24          1           0        4.410448   -0.608631    1.264016
     25          1           0        4.624281   -1.559675   -0.202583
     26          1           0        4.808776    1.488657   -0.039458
     27          1           0        5.022783    0.537373   -1.504675
     28          1           0        7.006766   -0.617088   -0.471376
     29          1           0        6.791542    0.339602    1.002165
     30          1           0        7.247021    1.137872   -0.512632
     31          6           0        2.795500   -0.419869   -0.151460
     32          6           0        1.917671   -1.524606    0.437571
     33          6           0        0.436540   -1.343822    0.103867
     34          1           0        2.450046    0.553059    0.224662
     35          1           0        2.663878   -0.397984   -1.241937
     36          1           0        2.051544   -1.543989    1.526754
     37          1           0        2.265551   -2.495273    0.061538
     38          1           0        0.282783   -1.346218   -0.980086
     39          1           0        0.067560   -0.389529    0.493456
     40          1           0       -0.172695   -2.144489    0.534712
 ---------------------------------------------------------------------

 SCF Done:  E(RHF) =  -470.732969655     A.U. after   11 cycles
 E2 =    -0.1583162885D+01 EUMP2 =    -0.47231613254034D+03

 The electronic state is 1-A.
 Alpha  occ. eigenvalues --  -11.21603 -11.21583 -11.21553 -11.21548 -11.21405
 Alpha  occ. eigenvalues --  -11.21346 -11.21344 -11.21265 -11.21072 -11.21054
 Alpha  occ. eigenvalues --  -11.21032 -11.21011  -1.08432  -1.08374  -1.03530
 Alpha  occ. eigenvalues --   -1.03485  -0.95979  -0.95933  -0.86998  -0.86954
 Alpha  occ. eigenvalues --   -0.79648  -0.79525  -0.78293  -0.78122  -0.65070
 Alpha  occ. eigenvalues --   -0.65001  -0.60975  -0.60848  -0.59379  -0.59279
 Alpha  occ. eigenvalues --   -0.57597  -0.57536  -0.55281  -0.55212  -0.52716
 Alpha  occ. eigenvalues --   -0.52636  -0.52418  -0.52326  -0.49983  -0.49840
 Alpha  occ. eigenvalues --   -0.48084  -0.47751  -0.46717  -0.46501  -0.45934
 Alpha  occ. eigenvalues --   -0.45740  -0.45672  -0.45359  -0.43769  -0.43728
 Alpha virt. eigenvalues --    0.22092   0.22977   0.23931   0.24381   0.25578
 Alpha virt. eigenvalues --    0.26494   0.26927   0.27554   0.27959   0.29574
 Alpha virt. eigenvalues --    0.30235   0.31473   0.31635   0.31842   0.32187

 Mulliken charges:
               1
     1  C   -0.297760
     2  C   -0.305360
     3  C   -0.475042
     4  H    0.149246
     5  H    0.149136
     6  H    0.158201
     7  H    0.150984
     8  H    0.155060
     9  H    0.155179
    10  H    0.159638
    11  C   -0.302736
    12  C   -0.299514
    13  C   -0.475655
    14  H    0.156707
    15  H    0.149024
    16  H    0.151623
    17  H    0.151612
    18  H    0.154960
    19  H    0.155216
    20  H    0.160018
    21  C   -0.298221
    22  C   -0.299632
    23  C   -0.475705
    24  H    0.149681
    25  H    0.149560
    26  H    0.151923
    27  H    0.151877
    28  H    0.155181
    29  H    0.155191
    30  H    0.160252
    31  C   -0.298388
    32  C   -0.300520
    33  C   -0.481478
    34  H    0.149378
    35  H    0.149311
    36  H    0.151909
    37  H    0.151639
    38  H    0.153051
    39  H    0.163644
    40  H    0.160815
 Sum of Mulliken charges =  -0.00000

 Dipole moment (field-independent basis, Debye):
    X=              0.0061    Y=             -0.0040    Z=              0.0002  Tot=              0.0073
 Quadrupole moment (field-independent basis, Debye-Ang):
   XX=            -86.0503   YY=            -85.7485   ZZ=            -83.2211
   XY=             -0.3222   XZ=             -0.5992   YZ=              0.7463

 Normal termination of Gaussian 16 at Wed May  5 21:36:11 2021.
