 Gaussian 16, Revision A.03,
 Gaussian 16:  EM64L-G16RevA.03 25-Dec-2016

 -------------
 #p 6-31g* mp2
 -------------

 ------------------------------------------------------
 Input file generated by CHIRIPA (05-May-2021 14:57:26)
 ------------------------------------------------------
 Symbolic Z-matrix:
 Charge =  0 Multiplicity = 1

                         Standard orientation:
 ---------------------------------------------------------------------
 Center     Atomic      Atomic             Coordinates (Angstroms)
 Number     Number       Type             X           Y           Z
 ---------------------------------------------------------------------
      1          6           0        6.223110    1.199194    0.008773
      2          6           0        5.152273    1.744517   -0.707086
      3          6           0        3.941837    1.052678   -0.810776
      4          6           0        3.836507   -0.187708   -0.183370
      5          6           0        4.885234   -0.757449    0.536948
      6          6           0        6.086413   -0.047849    0.627415
      7          1           0        7.159810    1.743530    0.084186
      8          1           0        5.255579    2.712795   -1.188552
      9          1           0        3.096795    1.451534   -1.358714
     10          1           0        4.752174   -1.724699    1.006140
     11          1           0        6.916358   -0.473798    1.184016
     12          7           0        2.559972   -0.929528   -0.286143
     13          8           0        2.492571   -2.020602    0.275685
     14          8           0        1.650997   -0.405845   -0.926578
     15          6           0       -1.681116   -0.397443    0.911243
     16          6           0       -2.333345    0.765360    1.334337
     17          6           0       -3.644147    1.032090    0.927889
     18          6           0       -4.275611    0.110198    0.094426
     19          6           0       -3.652490   -1.057168   -0.344059
     20          6           0       -2.341605   -1.303398    0.074871
     21          1           0       -0.662822   -0.596683    1.231830
     22          1           0       -1.822861    1.470719    1.983889
     23          1           0       -4.172650    1.924497    1.240479
     24          1           0       -4.187288   -1.741528   -0.991406
     25          1           0       -1.837547   -2.207263   -0.255276
     26          7           0       -5.663341    0.381722   -0.342470
     27          8           0       -6.197776   -0.446320   -1.076883
     28          8           0       -6.190334    1.417442    0.057779
 ---------------------------------------------------------------------

 SCF Done:  E(RHF) =  -868.340164497     A.U. after   16 cycles
 E2 =    -0.2598372680D+01 EUMP2 =    -0.87093853717678D+03

 The electronic state is 1-A.
 Alpha  occ. eigenvalues --  -20.61924 -20.61914 -20.59958 -20.59948 -15.86932
 Alpha  occ. eigenvalues --  -15.85003 -11.32002 -11.30128 -11.28534 -11.28526
 Alpha  occ. eigenvalues --  -11.28213 -11.27474 -11.27463 -11.26737 -11.26647
 Alpha  occ. eigenvalues --  -11.26216 -11.25658 -11.25473  -1.61001  -1.59038
 Alpha  occ. eigenvalues --   -1.40550  -1.38598  -1.20148  -1.18267  -1.09599
 Alpha  occ. eigenvalues --   -1.07664  -1.05500  -1.03646  -0.96480  -0.94547
 Alpha  occ. eigenvalues --   -0.86911  -0.85028  -0.83314  -0.81406  -0.78400
 Alpha  occ. eigenvalues --   -0.76517  -0.73148  -0.72316  -0.71242  -0.71226
 Alpha  occ. eigenvalues --   -0.70360  -0.69279  -0.65796  -0.65493  -0.63902
 Alpha  occ. eigenvalues --   -0.63623  -0.62846  -0.61010  -0.56008  -0.54043
 Alpha  occ. eigenvalues --   -0.53836  -0.53581  -0.51976  -0.51721  -0.49930
 Alpha  occ. eigenvalues --   -0.49898  -0.47995  -0.47959  -0.46011  -0.44059
 Alpha  occ. eigenvalues --   -0.38111  -0.37091  -0.36151  -0.35264
 Alpha virt. eigenvalues --    0.04076   0.06032   0.10569   0.12414   0.15642
 Alpha virt. eigenvalues --    0.17615   0.20766   0.22639   0.26700   0.27631
 Alpha virt. eigenvalues --    0.28447   0.29447   0.30422   0.31842   0.32191

 Mulliken charges:
               1
     1  C   -0.169633
     2  C   -0.218640
     3  C   -0.171165
     4  C    0.156931
     5  C   -0.170819
     6  C   -0.218603
     7  H    0.228441
     8  H    0.226179
     9  H    0.276894
    10  H    0.276057
    11  H    0.225805
    12  N    0.486479
    13  O   -0.463204
    14  O   -0.462256
    15  C   -0.163357
    16  C   -0.221165
    17  C   -0.172481
    18  C    0.156884
    19  C   -0.173005
    20  C   -0.217625
    21  H    0.234777
    22  H    0.217642
    23  H    0.271000
    24  H    0.272640
    25  H    0.230935
    26  N    0.488320
    27  O   -0.462778
    28  O   -0.464252
 Sum of Mulliken charges =  -0.00000

 Dipole moment (field-independent basis, Debye):
    X=             10.0131    Y=              1.5776    Z=              1.8455  Tot=             10.3032
 Quadrupole moment (field-independent basis, Debye-Ang):
   XX=           -112.9864   YY=           -100.0848   ZZ=           -103.1020
   XY=             13.0816   XZ=             -4.1811   YZ=             -0.4366

 Normal termination of Gaussian 16 at Thu May  6 05:11:29 2021.
