 Gaussian 16, Revision A.03,
 Gaussian 16:  EM64L-G16RevA.03 25-Dec-2016

 -------------
 #p 6-31g* mp2
 -------------

 ------------------------------------------------------
 Input file generated by CHIRIPA (05-May-2021 14:53:12)
 ------------------------------------------------------
 Symbolic Z-matrix:
 Charge =  0 Multiplicity = 1

                         Standard orientation:
 ---------------------------------------------------------------------
 Center     Atomic      Atomic             Coordinates (Angstroms)
 Number     Number       Type             X           Y           Z
 ---------------------------------------------------------------------
      1          6           0        3.054914    0.760592    0.100319
      2          6           0        3.195181    2.183216   -0.442315
      3          6           0        2.319658    3.189835    0.304660
      4          1           0        2.002421    0.452362    0.035514
      5          1           0        3.317077    0.755125    1.167387
      6          1           0        2.934164    2.185740   -1.508374
      7          1           0        4.247494    2.488024   -0.376389
      8          1           0        2.584030    3.216804    1.366724
      9          1           0        1.263238    2.912802    0.228308
     10          1           0        2.435474    4.200312   -0.099547
     11          6           0        3.924024   -0.257179   -0.636239
     12          6           0        3.783756   -1.679803   -0.093605
     13          6           0        4.659279   -2.686422   -0.840580
     14          1           0        3.661860   -0.251711   -1.703308
     15          1           0        4.976516    0.051051   -0.571434
     16          1           0        2.731444   -1.984611   -0.159532
     17          1           0        4.044773   -1.682327    0.972453
     18          1           0        5.715699   -2.409389   -0.764228
     19          1           0        4.394908   -2.713390   -1.902645
     20          1           0        4.543463   -3.696899   -0.436374
     21          6           0       -0.745064   -0.479284    1.746012
     22          6           0       -1.020689    0.770652    1.181908
     23          6           0       -2.115662    0.938866    0.329099
     24          6           0       -2.917671   -0.169321    0.060785
     25          6           0       -2.669102   -1.427393    0.607373
     26          6           0       -1.568698   -1.572390    1.457452
     27          1           0        0.107647   -0.600938    2.407434
     28          1           0       -0.382764    1.621339    1.404233
     29          1           0       -2.352022    1.895292   -0.121236
     30          1           0       -3.323143   -2.256787    0.367051
     31          1           0       -1.357053   -2.544284    1.894114
     32          7           0       -4.079745   -0.003530   -0.840602
     33          8           0       -4.771013   -0.995559   -1.061201
     34          8           0       -4.277307    1.115307   -1.309441
 ---------------------------------------------------------------------

 SCF Done:  E(RHF) =  -669.535625472     A.U. after   15 cycles
 E2 =    -0.2092226029D+01 EUMP2 =    -0.67162785150108D+03

 The electronic state is 1-A.
 Alpha  occ. eigenvalues --  -20.60778 -20.60773 -15.85832 -11.31207 -11.27780
 Alpha  occ. eigenvalues --  -11.27771 -11.27505 -11.26785 -11.26746 -11.22329
 Alpha  occ. eigenvalues --  -11.22224 -11.22122 -11.22017 -11.21976 -11.21564
 Alpha  occ. eigenvalues --   -1.59854  -1.39407  -1.19381  -1.09120  -1.08766
 Alpha  occ. eigenvalues --   -1.04786  -1.04223  -0.96683  -0.95601  -0.87702
 Alpha  occ. eigenvalues --   -0.86178  -0.82434  -0.80296  -0.78947  -0.77480
 Alpha  occ. eigenvalues --   -0.72049  -0.71178  -0.70470  -0.65760  -0.65028
 Alpha  occ. eigenvalues --   -0.64782  -0.62182  -0.61573  -0.60039  -0.58298
 Alpha  occ. eigenvalues --   -0.55989  -0.55258  -0.53364  -0.53218  -0.53110
 Alpha  occ. eigenvalues --   -0.52784  -0.50616  -0.48824  -0.48805  -0.48587
 Alpha  occ. eigenvalues --   -0.47307  -0.46476  -0.46381  -0.44811  -0.44463
 Alpha  occ. eigenvalues --   -0.37329  -0.36373
 Alpha virt. eigenvalues --    0.05034   0.11130   0.16458   0.20262   0.22544
 Alpha virt. eigenvalues --    0.23622   0.25534   0.26205   0.26398   0.28414
 Alpha virt. eigenvalues --    0.29048   0.30379   0.31061   0.31327   0.31914

 Mulliken charges:
               1
     1  C   -0.305616
     2  C   -0.299171
     3  C   -0.480203
     4  H    0.152795
     5  H    0.144820
     6  H    0.156244
     7  H    0.154930
     8  H    0.153966
     9  H    0.148912
    10  H    0.166270
    11  C   -0.298027
    12  C   -0.300802
    13  C   -0.475923
    14  H    0.152908
    15  H    0.151342
    16  H    0.151335
    17  H    0.149169
    18  H    0.156466
    19  H    0.157569
    20  H    0.160483
    21  C   -0.171681
    22  C   -0.222760
    23  C   -0.173430
    24  C    0.158527
    25  C   -0.170893
    26  C   -0.219194
    27  H    0.227877
    28  H    0.231722
    29  H    0.275612
    30  H    0.275708
    31  H    0.223682
    32  N    0.488110
    33  O   -0.460436
    34  O   -0.460312
 Sum of Mulliken charges =  -0.00000

 Dipole moment (field-independent basis, Debye):
    X=              4.2026    Y=             -0.5883    Z=              3.0948  Tot=              5.2522
 Quadrupole moment (field-independent basis, Debye-Ang):
   XX=           -118.4902   YY=            -90.3853   ZZ=            -94.7600
   XY=              3.0142   XZ=             -8.8107   YZ=             -1.5827

 Normal termination of Gaussian 16 at Thu May  6 13:41:16 2021.
