 Gaussian 16, Revision A.03,
 Gaussian 16:  EM64L-G16RevA.03 25-Dec-2016

 -------------
 #p 6-31g* mp2
 -------------

 ------------------------------------------------------
 Input file generated by CHIRIPA (05-May-2021 14:55:22)
 ------------------------------------------------------
 Symbolic Z-matrix:
 Charge =  0 Multiplicity = 1

                         Standard orientation:
 ---------------------------------------------------------------------
 Center     Atomic      Atomic             Coordinates (Angstroms)
 Number     Number       Type             X           Y           Z
 ---------------------------------------------------------------------
      1          6           0       -4.209762    0.316911   -1.920268
      2          6           0       -3.011023    1.004145   -1.702883
      3          6           0       -2.231906    0.733200   -0.574117
      4          6           0       -2.683628   -0.235579    0.320704
      5          6           0       -3.873321   -0.937198    0.131890
      6          6           0       -4.636333   -0.649862   -1.003804
      7          1           0       -4.808743    0.533754   -2.799811
      8          1           0       -2.677271    1.755469   -2.412931
      9          1           0       -1.299789    1.250312   -0.381320
     10          1           0       -4.179982   -1.680737    0.857511
     11          1           0       -5.566860   -1.185141   -1.170059
     12          7           0       -1.867336   -0.531093    1.519345
     13          8           0       -2.287287   -1.389161    2.292648
     14          8           0       -0.823032    0.100948    1.662841
     15          6           0        3.657331   -0.517629   -0.067456
     16          6           0        4.684831   -1.171745   -0.991772
     17          6           0        4.773463   -2.686008   -0.799551
     18          1           0        3.917363   -0.741599    0.976175
     19          1           0        2.672067   -0.969375   -0.247948
     20          1           0        5.667600   -0.717935   -0.810566
     21          1           0        4.422430   -0.946032   -2.033317
     22          1           0        3.805741   -3.157084   -1.000058
     23          1           0        5.057987   -2.927689    0.229641
     24          1           0        5.513888   -3.133161   -1.470136
     25          6           0        3.557164    0.996029   -0.247818
     26          6           0        2.529665    1.650145    0.676498
     27          6           0        2.441033    3.164407    0.484278
     28          1           0        4.542429    1.447775   -0.067327
     29          1           0        3.297132    1.219999   -1.291449
     30          1           0        2.792066    1.424432    1.718043
     31          1           0        1.546895    1.196334    0.495291
     32          1           0        2.156509    3.406088   -0.544915
     33          1           0        3.408754    3.635483    0.684784
     34          1           0        1.700608    3.611561    1.154863
 ---------------------------------------------------------------------

 SCF Done:  E(RHF) =  -669.535830794     A.U. after   15 cycles
 E2 =    -0.2091300983D+01 EUMP2 =    -0.67162713177627D+03

 The electronic state is 1-A.
 Alpha  occ. eigenvalues --  -20.60897 -20.60890 -15.85935 -11.31278 -11.27847
 Alpha  occ. eigenvalues --  -11.27840 -11.27583 -11.26857 -11.26847 -11.21170
 Alpha  occ. eigenvalues --  -11.20851 -11.20775 -11.20748 -11.20671 -11.20605
 Alpha  occ. eigenvalues --   -1.59963  -1.39518  -1.19450  -1.08849  -1.07862
 Alpha  occ. eigenvalues --   -1.04849  -1.02993  -0.95689  -0.95481  -0.86498
 Alpha  occ. eigenvalues --   -0.86249  -0.82523  -0.79034  -0.77701  -0.77503
 Alpha  occ. eigenvalues --   -0.72157  -0.71280  -0.70558  -0.65107  -0.64856
 Alpha  occ. eigenvalues --   -0.64501  -0.62200  -0.60402  -0.58830  -0.57062
 Alpha  occ. eigenvalues --   -0.55351  -0.54796  -0.53180  -0.52941  -0.52180
 Alpha  occ. eigenvalues --   -0.51894  -0.49448  -0.48927  -0.48911  -0.47339
 Alpha  occ. eigenvalues --   -0.46059  -0.45217  -0.45158  -0.44819  -0.43244
 Alpha  occ. eigenvalues --   -0.37429  -0.36452
 Alpha virt. eigenvalues --    0.04946   0.11197   0.16436   0.20736   0.23099
 Alpha virt. eigenvalues --    0.24291   0.26462   0.27478   0.27652   0.28479
 Alpha virt. eigenvalues --    0.28953   0.30541   0.31595   0.32068   0.32371

 Mulliken charges:
               1
     1  C   -0.170496
     2  C   -0.219434
     3  C   -0.172010
     4  C    0.157365
     5  C   -0.170723
     6  C   -0.218636
     7  H    0.225964
     8  H    0.224088
     9  H    0.278674
    10  H    0.275824
    11  H    0.223786
    12  N    0.491992
    13  O   -0.459380
    14  O   -0.464527
    15  C   -0.297451
    16  C   -0.299197
    17  C   -0.475197
    18  H    0.152793
    19  H    0.151776
    20  H    0.150722
    21  H    0.148687
    22  H    0.154988
    23  H    0.156431
    24  H    0.157980
    25  C   -0.298143
    26  C   -0.307220
    27  C   -0.476531
    28  H    0.147202
    29  H    0.143152
    30  H    0.157181
    31  H    0.168241
    32  H    0.146546
    33  H    0.153861
    34  H    0.161695
 Sum of Mulliken charges =  -0.00000

 Dipole moment (field-independent basis, Debye):
    X=             -3.0473    Y=              0.9518    Z=             -4.0778  Tot=              5.1788
 Quadrupole moment (field-independent basis, Debye-Ang):
   XX=            -77.3667   YY=            -95.0388   ZZ=            -97.1668
   XY=              0.6568   XZ=             10.5668   YZ=              0.3040

 Normal termination of Gaussian 16 at Thu May  6 09:24:37 2021.
