 Gaussian 16, Revision A.03,
 Gaussian 16:  EM64L-G16RevA.03 25-Dec-2016

 -------------
 #p 6-31g* mp2
 -------------

 ------------------------------------------------------
 Input file generated by CHIRIPA (05-May-2021 14:55:20)
 ------------------------------------------------------
 Symbolic Z-matrix:
 Charge =  0 Multiplicity = 1

                         Standard orientation:
 ---------------------------------------------------------------------
 Center     Atomic      Atomic             Coordinates (Angstroms)
 Number     Number       Type             X           Y           Z
 ---------------------------------------------------------------------
      1          6           0       -0.654455   -1.972702    1.154420
      2          6           0       -0.695059   -1.863105   -0.239446
      3          6           0       -1.637682   -1.037612   -0.859582
      4          6           0       -2.528651   -0.332852   -0.051636
      5          6           0       -2.513341   -0.421051    1.339506
      6          6           0       -1.562125   -1.252594    1.938065
      7          1           0        0.081135   -2.616315    1.627776
      8          1           0        0.008614   -2.421176   -0.850549
      9          1           0       -1.691303   -0.934242   -1.936549
     10          1           0       -3.227822    0.147639    1.922195
     11          1           0       -1.532917   -1.335766    3.020782
     12          7           0       -3.531113    0.544263   -0.696725
     13          8           0       -4.305060    1.154708    0.037441
     14          8           0       -3.523913    0.604693   -1.924297
     15          6           0        2.536876    1.089797    0.270318
     16          6           0        2.812701    2.560910   -0.042308
     17          6           0        1.827469    3.506281    0.645722
     18          1           0        1.512107    0.841814   -0.038384
     19          1           0        2.580921    0.938753    1.357811
     20          1           0        2.769515    2.708857   -1.128983
     21          1           0        3.836998    2.805370    0.267000
     22          1           0        1.875364    3.387903    1.733056
     23          1           0        0.801816    3.290842    0.329142
     24          1           0        2.042984    4.552785    0.408570
     25          6           0        3.513513    0.132374   -0.410306
     26          6           0        3.237689   -1.338738   -0.097680
     27          6           0        4.222921   -2.284108   -0.785709
     28          1           0        3.469468    0.283419   -1.497798
     29          1           0        4.538283    0.380358   -0.101603
     30          1           0        2.213392   -1.583198   -0.406987
     31          1           0        3.280874   -1.486686    0.988996
     32          1           0        5.248574   -2.068670   -0.469129
     33          1           0        4.175027   -2.165731   -1.873043
     34          1           0        4.007406   -3.330613   -0.548557
 ---------------------------------------------------------------------

 SCF Done:  E(RHF) =  -669.535152773     A.U. after   15 cycles
 E2 =    -0.2092832648D+01 EUMP2 =    -0.67162798542085D+03

 The electronic state is 1-A.
 Alpha  occ. eigenvalues --  -20.60805 -20.60800 -15.85860 -11.31238 -11.27822
 Alpha  occ. eigenvalues --  -11.27804 -11.27541 -11.26821 -11.26802 -11.22365
 Alpha  occ. eigenvalues --  -11.21889 -11.21802 -11.21794 -11.21673 -11.21168
 Alpha  occ. eigenvalues --   -1.59881  -1.39434  -1.19416  -1.08898  -1.08786
 Alpha  occ. eigenvalues --   -1.04825  -1.03981  -0.96402  -0.95633  -0.87421
 Alpha  occ. eigenvalues --   -0.86223  -0.82467  -0.80089  -0.78666  -0.77514
 Alpha  occ. eigenvalues --   -0.72078  -0.71206  -0.70503  -0.65576  -0.65064
 Alpha  occ. eigenvalues --   -0.64807  -0.62205  -0.61349  -0.59805  -0.58014
 Alpha  occ. eigenvalues --   -0.55679  -0.55302  -0.53233  -0.53053  -0.52938
 Alpha  occ. eigenvalues --   -0.52804  -0.50342  -0.48845  -0.48832  -0.48374
 Alpha  occ. eigenvalues --   -0.47118  -0.46197  -0.46097  -0.44837  -0.44215
 Alpha  occ. eigenvalues --   -0.37345  -0.36394
 Alpha virt. eigenvalues --    0.05017   0.11089   0.16478   0.20428   0.22749
 Alpha virt. eigenvalues --    0.23934   0.25778   0.26424   0.27514   0.27835
 Alpha virt. eigenvalues --    0.28770   0.30097   0.31264   0.31512   0.31754

 Mulliken charges:
               1
     1  C   -0.167909
     2  C   -0.218138
     3  C   -0.173374
     4  C    0.158111
     5  C   -0.170364
     6  C   -0.218620
     7  H    0.227334
     8  H    0.224703
     9  H    0.275738
    10  H    0.275908
    11  H    0.223725
    12  N    0.488057
    13  O   -0.460138
    14  O   -0.460487
    15  C   -0.300919
    16  C   -0.300159
    17  C   -0.475977
    18  H    0.153985
    19  H    0.147066
    20  H    0.153287
    21  H    0.151564
    22  H    0.153647
    23  H    0.158120
    24  H    0.161992
    25  C   -0.297723
    26  C   -0.304601
    27  C   -0.475835
    28  H    0.150674
    29  H    0.151324
    30  H    0.147353
    31  H    0.149168
    32  H    0.158844
    33  H    0.156738
    34  H    0.156908
 Sum of Mulliken charges =  -0.00000

 Dipole moment (field-independent basis, Debye):
    X=              3.5213    Y=             -3.0221    Z=              2.2865  Tot=              5.1730
 Quadrupole moment (field-independent basis, Debye-Ang):
   XX=           -112.6636   YY=            -93.6887   ZZ=            -90.5489
   XY=              6.8476   XZ=             -7.1815   YZ=              0.2971

 Normal termination of Gaussian 16 at Thu May  6 19:07:42 2021.
