 Gaussian 16, Revision A.03,
 Gaussian 16:  EM64L-G16RevA.03 25-Dec-2016

 -------------
 #p 6-31g* mp2
 -------------

 ------------------------------------------------------
 Input file generated by CHIRIPA (05-May-2021 14:57:23)
 ------------------------------------------------------
 Symbolic Z-matrix:
 Charge =  0 Multiplicity = 1

                         Standard orientation:
 ---------------------------------------------------------------------
 Center     Atomic      Atomic             Coordinates (Angstroms)
 Number     Number       Type             X           Y           Z
 ---------------------------------------------------------------------
      1          6           0       -3.957177    1.100141    1.900003
      2          6           0       -3.935931    1.646428    0.612509
      3          6           0       -3.465801    0.896157   -0.469443
      4          6           0       -3.022449   -0.403009   -0.226758
      5          6           0       -3.031090   -0.975318    1.044336
      6          6           0       -3.505486   -0.206684    2.111434
      7          1           0       -4.324042    1.690102    2.734720
      8          1           0       -4.286102    2.661061    0.445346
      9          1           0       -3.438299    1.294341   -1.476473
     10          1           0       -2.675512   -1.989539    1.179756
     11          1           0       -3.520827   -0.633530    3.110240
     12          7           0       -2.522486   -1.207007   -1.364310
     13          8           0       -2.137388   -2.349224   -1.124149
     14          8           0       -2.525179   -0.679740   -2.474543
     15          6           0        1.553149    2.098980   -0.744828
     16          6           0        2.934959    2.314977   -0.723213
     17          6           0        3.804159    1.309012   -0.290695
     18          6           0        3.254861    0.093730    0.115080
     19          6           0        1.882690   -0.151901    0.105040
     20          6           0        1.032343    0.868400   -0.331361
     21          1           0        0.885257    2.886005   -1.082326
     22          1           0        3.342237    3.269665   -1.043745
     23          1           0        4.877934    1.449382   -0.263817
     24          1           0        1.506328   -1.114083    0.430580
     25          1           0       -0.040367    0.697839   -0.347083
     26          7           0        4.165065   -0.978829    0.575023
     27          8           0        3.656115   -2.040626    0.927431
     28          8           0        5.370198   -0.737392    0.574409
 ---------------------------------------------------------------------

 SCF Done:  E(RHF) =  -868.337660202     A.U. after   16 cycles
 E2 =    -0.2600423834D+01 EUMP2 =    -0.87093808403536D+03

 The electronic state is 1-A.
 Alpha  occ. eigenvalues --  -20.61613 -20.61600 -20.60489 -20.60479 -15.86663
 Alpha  occ. eigenvalues --  -15.85540 -11.32100 -11.30893 -11.28668 -11.28600
 Alpha  occ. eigenvalues --  -11.28317 -11.27641 -11.27579 -11.27484 -11.27433
 Alpha  occ. eigenvalues --  -11.27241 -11.26513 -11.26465  -1.60698  -1.59563
 Alpha  occ. eigenvalues --   -1.40241  -1.39116  -1.20259  -1.19072  -1.09626
 Alpha  occ. eigenvalues --   -1.08476  -1.05633  -1.04474  -0.96446  -0.95310
 Alpha  occ. eigenvalues --   -0.87023  -0.85879  -0.83254  -0.82145  -0.78315
 Alpha  occ. eigenvalues --   -0.77189  -0.72851  -0.72068  -0.71760  -0.71296
 Alpha  occ. eigenvalues --   -0.70884  -0.70197  -0.65873  -0.65593  -0.64730
 Alpha  occ. eigenvalues --   -0.64495  -0.62959  -0.61828  -0.56083  -0.55012
 Alpha  occ. eigenvalues --   -0.54010  -0.53691  -0.52801  -0.52545  -0.49626
 Alpha  occ. eigenvalues --   -0.49616  -0.48520  -0.48512  -0.45617  -0.44524
 Alpha  occ. eigenvalues --   -0.38222  -0.37249  -0.37062  -0.36066
 Alpha virt. eigenvalues --    0.04178   0.05352   0.10372   0.11584   0.15677
 Alpha virt. eigenvalues --    0.16839   0.20673   0.21445   0.26589   0.26811
 Alpha virt. eigenvalues --    0.27613   0.28530   0.30334   0.30810   0.31742

 Mulliken charges:
               1
     1  C   -0.170378
     2  C   -0.217863
     3  C   -0.178526
     4  C    0.151217
     5  C   -0.174369
     6  C   -0.217201
     7  H    0.229197
     8  H    0.225459
     9  H    0.276097
    10  H    0.279487
    11  H    0.228253
    12  N    0.487939
    13  O   -0.456240
    14  O   -0.459114
    15  C   -0.171344
    16  C   -0.218592
    17  C   -0.171291
    18  C    0.158390
    19  C   -0.170814
    20  C   -0.217140
    21  H    0.223016
    22  H    0.221912
    23  H    0.274724
    24  H    0.278102
    25  H    0.222271
    26  N    0.488114
    27  O   -0.459594
    28  O   -0.461714
 Sum of Mulliken charges =  -0.00000

 Dipole moment (field-independent basis, Debye):
    X=             -5.2026    Y=              6.5170    Z=              2.4900  Tot=              8.7027
 Quadrupole moment (field-independent basis, Debye-Ang):
   XX=           -112.3226   YY=           -102.2483   ZZ=           -105.8217
   XY=              5.9263   XZ=            -18.1399   YZ=             -5.2270

 Normal termination of Gaussian 16 at Thu May  6 21:10:59 2021.
