 Gaussian 16, Revision A.03,
 Gaussian 16:  EM64L-G16RevA.03 25-Dec-2016

 -------------
 #p 6-31g* mp2
 -------------

 ------------------------------------------------------
 Input file generated by CHIRIPA (05-May-2021 14:57:21)
 ------------------------------------------------------
 Symbolic Z-matrix:
 Charge =  0 Multiplicity = 1

                         Standard orientation:
 ---------------------------------------------------------------------
 Center     Atomic      Atomic             Coordinates (Angstroms)
 Number     Number       Type             X           Y           Z
 ---------------------------------------------------------------------
      1          6           0        1.909667    0.675331    0.037500
      2          6           0        2.745489    0.992014   -1.038434
      3          6           0        4.084681    0.590627   -1.039288
      4          6           0        4.557013   -0.129320    0.057010
      5          6           0        3.749205   -0.460173    1.143873
      6          6           0        2.413305   -0.048475    1.123306
      7          1           0        0.870629    0.991143    0.029843
      8          1           0        2.357081    1.554021   -1.883025
      9          1           0        4.753754    0.822262   -1.859107
     10          1           0        4.165094   -1.021578    1.971689
     11          1           0        1.766501   -0.295834    1.960267
     12          7           0        5.973014   -0.559708    0.067445
     13          8           0        6.364905   -1.192995    1.045201
     14          8           0        6.664172   -0.255610   -0.902328
     15          6           0       -6.030865   -1.797563   -0.137454
     16          6           0       -4.909726   -1.840265   -0.972764
     17          6           0       -3.957361   -0.817436   -0.935742
     18          6           0       -4.158591    0.237813   -0.047347
     19          6           0       -5.265171    0.308844    0.797476
     20          6           0       -6.204703   -0.725036    0.743448
     21          1           0       -6.765702   -2.596414   -0.172819
     22          1           0       -4.772129   -2.671970   -1.657876
     23          1           0       -3.080201   -0.825359   -1.571309
     24          1           0       -5.375017    1.150925    1.469972
     25          1           0       -7.074430   -0.689239    1.393324
     26          7           0       -3.157158    1.326486    0.000850
     27          8           0       -3.357505    2.245189    0.792356
     28          8           0       -2.190849    1.240470   -0.753794
 ---------------------------------------------------------------------

 SCF Done:  E(RHF) =  -868.340391195     A.U. after   16 cycles
 E2 =    -0.2598017001D+01 EUMP2 =    -0.87093840819620D+03

 The electronic state is 1-A.
 Alpha  occ. eigenvalues --  -20.61906 -20.61854 -20.60210 -20.60204 -15.86901
 Alpha  occ. eigenvalues --  -15.85259 -11.31980 -11.30448 -11.28520 -11.28500
 Alpha  occ. eigenvalues --  -11.28188 -11.27455 -11.27443 -11.27038 -11.27011
 Alpha  occ. eigenvalues --  -11.26496 -11.25940 -11.25884  -1.60941  -1.59291
 Alpha  occ. eigenvalues --   -1.40502  -1.38849  -1.20123  -1.18594  -1.09569
 Alpha  occ. eigenvalues --   -1.07976  -1.05479  -1.03986  -0.96451  -0.94844
 Alpha  occ. eigenvalues --   -0.86890  -0.85365  -0.83294  -0.81700  -0.78375
 Alpha  occ. eigenvalues --   -0.76813  -0.73133  -0.72245  -0.71479  -0.71220
 Alpha  occ. eigenvalues --   -0.70614  -0.69565  -0.65776  -0.65473  -0.64225
 Alpha  occ. eigenvalues --   -0.63968  -0.62829  -0.61350  -0.55983  -0.54307
 Alpha  occ. eigenvalues --   -0.53824  -0.53563  -0.52316  -0.52059  -0.49899
 Alpha  occ. eigenvalues --   -0.49856  -0.48245  -0.48219  -0.45963  -0.44295
 Alpha  occ. eigenvalues --   -0.38083  -0.37070  -0.36503  -0.35618
 Alpha virt. eigenvalues --    0.04104   0.05737   0.10589   0.12054   0.15643
 Alpha virt. eigenvalues --    0.17294   0.20767   0.22429   0.26707   0.27598
 Alpha virt. eigenvalues --    0.28096   0.29421   0.30398   0.31695   0.32309

 Mulliken charges:
               1
     1  C   -0.178759
     2  C   -0.221237
     3  C   -0.171999
     4  C    0.156935
     5  C   -0.171868
     6  C   -0.220897
     7  H    0.248636
     8  H    0.225782
     9  H    0.273061
    10  H    0.272477
    11  H    0.221456
    12  N    0.488297
    13  O   -0.462937
    14  O   -0.462434
    15  C   -0.169712
    16  C   -0.218449
    17  C   -0.171051
    18  C    0.157065
    19  C   -0.170541
    20  C   -0.218529
    21  H    0.228430
    22  H    0.225936
    23  H    0.274752
    24  H    0.276623
    25  H    0.225922
    26  N    0.489211
    27  O   -0.455990
    28  O   -0.470182
 Sum of Mulliken charges =  -0.00000

 Dipole moment (field-independent basis, Debye):
    X=             -9.1103    Y=             -2.2947    Z=             -0.2095  Tot=              9.3972
 Quadrupole moment (field-independent basis, Debye-Ang):
   XX=           -120.5685   YY=           -106.0391   ZZ=            -98.9477
   XY=             22.3920   XZ=             -2.7472   YZ=              0.0541

 Normal termination of Gaussian 16 at Wed May  5 22:33:45 2021.
