 Gaussian 16, Revision A.03,
 Gaussian 16:  EM64L-G16RevA.03 25-Dec-2016

 -------------
 #p 6-31g* mp2
 -------------

 ------------------------------------------------------
 Input file generated by CHIRIPA (05-May-2021 14:55:25)
 ------------------------------------------------------
 Symbolic Z-matrix:
 Charge =  0 Multiplicity = 1

                         Standard orientation:
 ---------------------------------------------------------------------
 Center     Atomic      Atomic             Coordinates (Angstroms)
 Number     Number       Type             X           Y           Z
 ---------------------------------------------------------------------
      1          6           0        3.312663    0.965789    1.256947
      2          6           0        3.455476    0.758484   -0.118971
      3          6           0        2.663958   -0.184945   -0.780779
      4          6           0        1.735421   -0.906724   -0.032352
      5          6           0        1.569568   -0.723038    1.339524
      6          6           0        2.371824    0.225671    1.980527
      7          1           0        3.931703    1.700718    1.762975
      8          1           0        4.185326    1.331825   -0.683457
      9          1           0        2.753727   -0.365602   -1.845074
     10          1           0        0.833399   -1.309794    1.875424
     11          1           0        2.258734    0.384552    3.049177
     12          7           0        0.891793   -1.908285   -0.721966
     13          8           0        0.081027   -2.531323   -0.039969
     14          8           0        1.057298   -2.051307   -1.931425
     15          6           0       -2.711156    0.255573   -0.174077
     16          6           0       -3.875718    0.014455    0.786988
     17          6           0       -4.489135   -1.377804    0.634905
     18          1           0       -3.061480    0.118435   -1.206264
     19          1           0       -1.939035   -0.507089   -0.002122
     20          1           0       -4.644805    0.778176    0.614216
     21          1           0       -3.522627    0.152371    1.816999
     22          1           0       -3.739607   -2.152167    0.827705
     23          1           0       -4.868161   -1.522805   -0.381911
     24          1           0       -5.319809   -1.528783    1.331357
     25          6           0       -2.087463    1.643064   -0.034063
     26          6           0       -0.922903    1.884182   -0.995128
     27          6           0       -0.309486    3.276441   -0.843045
     28          1           0       -2.859585    2.405727   -0.206018
     29          1           0       -1.737140    1.780202    0.998124
     30          1           0       -1.275992    1.746265   -2.025139
     31          1           0       -0.153814    1.120460   -0.822356
     32          1           0        0.069541    3.421442    0.173771
     33          1           0       -1.059013    4.050804   -1.035845
     34          1           0        0.521189    3.427421   -1.539497
 ---------------------------------------------------------------------

 SCF Done:  E(RHF) =  -669.535552643     A.U. after   15 cycles
 E2 =    -0.2094803129D+01 EUMP2 =    -0.67163035577224D+03

 The electronic state is 1-A.
 Alpha  occ. eigenvalues --  -20.61014 -20.61002 -15.86011 -11.31317 -11.27902
 Alpha  occ. eigenvalues --  -11.27887 -11.27637 -11.26916 -11.26903 -11.21334
 Alpha  occ. eigenvalues --  -11.21064 -11.21053 -11.21045 -11.20684 -11.20351
 Alpha  occ. eigenvalues --   -1.60055  -1.39613  -1.19519  -1.08918  -1.07999
 Alpha  occ. eigenvalues --   -1.04905  -1.03128  -0.95756  -0.95574  -0.86590
 Alpha  occ. eigenvalues --   -0.86305  -0.82590  -0.79223  -0.77799  -0.77629
 Alpha  occ. eigenvalues --   -0.72246  -0.71379  -0.70611  -0.65166  -0.64904
 Alpha  occ. eigenvalues --   -0.64637  -0.62249  -0.60560  -0.58977  -0.57184
 Alpha  occ. eigenvalues --   -0.55404  -0.54877  -0.53251  -0.52992  -0.52296
 Alpha  occ. eigenvalues --   -0.51982  -0.49513  -0.49011  -0.49003  -0.47524
 Alpha  occ. eigenvalues --   -0.46278  -0.45541  -0.45312  -0.44624  -0.43368
 Alpha  occ. eigenvalues --   -0.37420  -0.36499
 Alpha virt. eigenvalues --    0.04844   0.11098   0.16303   0.21226   0.23075
 Alpha virt. eigenvalues --    0.24640   0.26605   0.27269   0.27615   0.28287
 Alpha virt. eigenvalues --    0.28374   0.31037   0.31587   0.31961   0.32153

 Mulliken charges:
               1
     1  C   -0.170670
     2  C   -0.215780
     3  C   -0.172443
     4  C    0.157648
     5  C   -0.172930
     6  C   -0.217485
     7  H    0.226513
     8  H    0.224372
     9  H    0.276173
    10  H    0.275753
    11  H    0.224187
    12  N    0.490569
    13  O   -0.459228
    14  O   -0.457191
    15  C   -0.307847
    16  C   -0.298104
    17  C   -0.477216
    18  H    0.151743
    19  H    0.162266
    20  H    0.148849
    21  H    0.146445
    22  H    0.164756
    23  H    0.155850
    24  H    0.155960
    25  C   -0.297130
    26  C   -0.303448
    27  C   -0.473385
    28  H    0.147964
    29  H    0.143845
    30  H    0.154829
    31  H    0.152738
    32  H    0.151418
    33  H    0.155141
    34  H    0.155837
 Sum of Mulliken charges =  -0.00000

 Dipole moment (field-independent basis, Debye):
    X=              3.1386    Y=              3.3286    Z=              2.3626  Tot=              5.1490
 Quadrupole moment (field-independent basis, Debye-Ang):
   XX=            -84.0223   YY=           -102.7050   ZZ=            -90.7857
   XY=              3.6895   XZ=              2.6902   YZ=             -3.5508

 Normal termination of Gaussian 16 at Thu May  6 03:14:40 2021.
