 Gaussian 16, Revision A.03,
 Gaussian 16:  EM64L-G16RevA.03 25-Dec-2016

 -------------
 #p 6-31g* mp2
 -------------

 ------------------------------------------------------
 Input file generated by CHIRIPA (05-May-2021 14:57:27)
 ------------------------------------------------------
 Symbolic Z-matrix:
 Charge =  0 Multiplicity = 1

                         Standard orientation:
 ---------------------------------------------------------------------
 Center     Atomic      Atomic             Coordinates (Angstroms)
 Number     Number       Type             X           Y           Z
 ---------------------------------------------------------------------
      1          6           0        1.514823   -0.873032    2.209728
      2          6           0        2.024534   -1.845771    1.343416
      3          6           0        2.713315   -1.474115    0.184969
      4          6           0        2.874849   -0.114590   -0.077494
      5          6           0        2.378734    0.878186    0.766043
      6          6           0        1.693235    0.483450    1.918789
      7          1           0        0.981037   -1.170708    3.107423
      8          1           0        1.887477   -2.899976    1.566828
      9          1           0        3.118259   -2.206342   -0.502987
     10          1           0        2.531169    1.921246    0.516626
     11          1           0        1.298472    1.241076    2.589767
     12          7           0        3.602293    0.291083   -1.300873
     13          8           0        3.731256    1.495432   -1.509553
     14          8           0        4.029725   -0.602982   -2.027912
     15          6           0       -3.525014   -2.090228   -0.906704
     16          6           0       -2.825741   -1.964885    0.298214
     17          6           0       -2.394251   -0.711185    0.741613
     18          6           0       -2.680510    0.401066   -0.048477
     19          6           0       -3.375136    0.308637   -1.253568
     20          6           0       -3.797000   -0.955069   -1.677390
     21          1           0       -3.856467   -3.068019   -1.243543
     22          1           0       -2.613100   -2.844731    0.898795
     23          1           0       -1.851062   -0.585511    1.670359
     24          1           0       -3.572221    1.203972   -1.830588
     25          1           0       -4.339873   -1.049411   -2.613570
     26          7           0       -2.228806    1.733599    0.410567
     27          8           0       -2.493569    2.698078   -0.303798
     28          8           0       -1.618552    1.788327    1.476039
 ---------------------------------------------------------------------

 SCF Done:  E(RHF) =  -868.338759465     A.U. after   16 cycles
 E2 =    -0.2600545301D+01 EUMP2 =    -0.87093930476526D+03

 The electronic state is 1-A.
 Alpha  occ. eigenvalues --  -20.61320 -20.61273 -20.60529 -20.60507 -15.86338
 Alpha  occ. eigenvalues --  -15.85567 -11.31573 -11.30919 -11.28188 -11.28102
 Alpha  occ. eigenvalues --  -11.27861 -11.27498 -11.27319 -11.27225 -11.27167
 Alpha  occ. eigenvalues --  -11.27086 -11.26615 -11.26320  -1.60358  -1.59595
 Alpha  occ. eigenvalues --   -1.39920  -1.39148  -1.19739  -1.19068  -1.09157
 Alpha  occ. eigenvalues --   -1.08491  -1.05134  -1.04432  -0.96017  -0.95328
 Alpha  occ. eigenvalues --   -0.86538  -0.85844  -0.82867  -0.82131  -0.77930
 Alpha  occ. eigenvalues --   -0.77167  -0.72582  -0.71786  -0.71663  -0.70917
 Alpha  occ. eigenvalues --   -0.70862  -0.70211  -0.65407  -0.65150  -0.64714
 Alpha  occ. eigenvalues --   -0.64409  -0.62499  -0.61753  -0.55642  -0.55007
 Alpha  occ. eigenvalues --   -0.53461  -0.53257  -0.52775  -0.52502  -0.49339
 Alpha  occ. eigenvalues --   -0.49300  -0.48547  -0.48538  -0.45355  -0.44555
 Alpha  occ. eigenvalues --   -0.37706  -0.37157  -0.36659  -0.35991
 Alpha virt. eigenvalues --    0.04608   0.05288   0.10923   0.11605   0.16087
 Alpha virt. eigenvalues --    0.16780   0.20605   0.21929   0.26458   0.27295
 Alpha virt. eigenvalues --    0.28008   0.29034   0.30592   0.31249   0.32491

 Mulliken charges:
               1
     1  C   -0.180626
     2  C   -0.218917
     3  C   -0.173078
     4  C    0.158571
     5  C   -0.173527
     6  C   -0.208819
     7  H    0.220956
     8  H    0.218181
     9  H    0.273084
    10  H    0.279944
    11  H    0.238097
    12  N    0.487822
    13  O   -0.458019
    14  O   -0.462971
    15  C   -0.169838
    16  C   -0.218554
    17  C   -0.166300
    18  C    0.158292
    19  C   -0.169488
    20  C   -0.218242
    21  H    0.226694
    22  H    0.220228
    23  H    0.268640
    24  H    0.277536
    25  H    0.225629
    26  N    0.489926
    27  O   -0.455765
    28  O   -0.469456
 Sum of Mulliken charges =  -0.00000

 Dipole moment (field-independent basis, Debye):
    X=             -4.2834    Y=             -5.8537    Z=              2.5942  Tot=              7.7035
 Quadrupole moment (field-independent basis, Debye-Ang):
   XX=           -111.4719   YY=           -103.3426   ZZ=           -102.6005
   XY=              7.0349   XZ=             19.3871   YZ=             -1.1213

 Normal termination of Gaussian 16 at Thu May  6 22:58:34 2021.
