 Gaussian 16, Revision A.03,
 Gaussian 16:  EM64L-G16RevA.03 25-Dec-2016

 -------------
 #p 6-31g* mp2
 -------------

 ------------------------------------------------------
 Input file generated by CHIRIPA (05-May-2021 14:55:18)
 ------------------------------------------------------
 Symbolic Z-matrix:
 Charge =  0 Multiplicity = 1

                         Standard orientation:
 ---------------------------------------------------------------------
 Center     Atomic      Atomic             Coordinates (Angstroms)
 Number     Number       Type             X           Y           Z
 ---------------------------------------------------------------------
      1          6           0       -4.787855    2.155657    0.214604
      2          6           0       -5.162462    0.941486    0.799394
      3          6           0       -4.370377   -0.199037    0.637047
      4          6           0       -3.204916   -0.089055   -0.119851
      5          6           0       -2.804895    1.106372   -0.715021
      6          6           0       -3.612340    2.234087   -0.539407
      7          1           0       -5.409132    3.036668    0.345872
      8          1           0       -6.074852    0.877631    1.385492
      9          1           0       -4.636745   -1.151610    1.078716
     10          1           0       -1.889791    1.138995   -1.293759
     11          1           0       -3.318938    3.175708   -0.994722
     12          7           0       -2.358241   -1.289696   -0.298742
     13          8           0       -1.336186   -1.166602   -0.970225
     14          8           0       -2.732703   -2.331117    0.235913
     15          6           0        3.677703   -0.478927    0.438516
     16          6           0        3.165535   -1.683827   -0.351348
     17          6           0        1.958540   -2.352640    0.307169
     18          1           0        3.944167   -0.800953    1.454508
     19          1           0        2.865008    0.252820    0.545608
     20          1           0        3.979352   -2.412470   -0.458111
     21          1           0        2.900440   -1.358932   -1.365638
     22          1           0        1.128577   -1.644653    0.399451
     23          1           0        2.213620   -2.704177    1.312135
     24          1           0        1.608776   -3.211522   -0.274078
     25          6           0        4.884110    0.200333   -0.207176
     26          6           0        5.396278    1.405233    0.582688
     27          6           0        6.603273    2.074047   -0.075830
     28          1           0        5.696805   -0.531412   -0.314269
     29          1           0        4.617645    0.522360   -1.223168
     30          1           0        5.661374    1.080338    1.596978
     31          1           0        4.582461    2.133876    0.689450
     32          1           0        6.348193    2.425583   -1.080795
     33          1           0        7.433236    1.366061   -0.168112
     34          1           0        6.953038    2.932928    0.505418
 ---------------------------------------------------------------------

 SCF Done:  E(RHF) =  -669.535886394     A.U. after   15 cycles
 E2 =    -0.2090860465D+01 EUMP2 =    -0.67162674685911D+03

 The electronic state is 1-A.
 Alpha  occ. eigenvalues --  -20.60924 -20.60918 -15.85954 -11.31291 -11.27859
 Alpha  occ. eigenvalues --  -11.27851 -11.27594 -11.26866 -11.26856 -11.21201
 Alpha  occ. eigenvalues --  -11.20818 -11.20762 -11.20615 -11.20495 -11.19484
 Alpha  occ. eigenvalues --   -1.59984  -1.39540  -1.19461  -1.08862  -1.07727
 Alpha  occ. eigenvalues --   -1.04859  -1.02719  -0.95703  -0.95142  -0.86260
 Alpha  occ. eigenvalues --   -0.86157  -0.82535  -0.78828  -0.77588  -0.77499
 Alpha  occ. eigenvalues --   -0.72175  -0.71301  -0.70569  -0.65116  -0.64862
 Alpha  occ. eigenvalues --   -0.64365  -0.62207  -0.60112  -0.58592  -0.56749
 Alpha  occ. eigenvalues --   -0.55363  -0.54432  -0.53189  -0.52951  -0.51808
 Alpha  occ. eigenvalues --   -0.51582  -0.49238  -0.48931  -0.48792  -0.47126
 Alpha  occ. eigenvalues --   -0.45904  -0.45112  -0.45009  -0.44731  -0.42977
 Alpha  occ. eigenvalues --   -0.37439  -0.36461
 Alpha virt. eigenvalues --    0.04915   0.11194   0.16395   0.21325   0.23504
 Alpha virt. eigenvalues --    0.25196   0.27227   0.27314   0.28113   0.28224
 Alpha virt. eigenvalues --    0.28964   0.30876   0.32170   0.32390   0.32536

 Mulliken charges:
               1
     1  C   -0.170627
     2  C   -0.218534
     3  C   -0.170754
     4  C    0.158301
     5  C   -0.170975
     6  C   -0.218494
     7  H    0.225994
     8  H    0.223847
     9  H    0.275958
    10  H    0.275390
    11  H    0.223765
    12  N    0.488046
    13  O   -0.459487
    14  O   -0.458405
    15  C   -0.297206
    16  C   -0.299929
    17  C   -0.475177
    18  H    0.147552
    19  H    0.147220
    20  H    0.147108
    21  H    0.152666
    22  H    0.168611
    23  H    0.145795
    24  H    0.165128
    25  C   -0.297529
    26  C   -0.298742
    27  C   -0.475201
    28  H    0.148796
    29  H    0.148403
    30  H    0.151328
    31  H    0.149598
    32  H    0.154149
    33  H    0.155111
    34  H    0.158297
 Sum of Mulliken charges =  -0.00000

 Dipole moment (field-independent basis, Debye):
    X=             -3.2976    Y=              4.1810    Z=              0.5841  Tot=              5.3568
 Quadrupole moment (field-independent basis, Debye-Ang):
   XX=            -75.2945   YY=            -94.5548   ZZ=            -93.9667
   XY=            -12.5159   XZ=             -3.3338   YZ=             -2.3187

 Normal termination of Gaussian 16 at Thu May  6 14:01:28 2021.
