 Gaussian 16, Revision A.03,
 Gaussian 16:  EM64L-G16RevA.03 25-Dec-2016

 -------------
 #p 6-31g* mp2
 -------------

 ------------------------------------------------------
 Input file generated by CHIRIPA (05-May-2021 14:51:09)
 ------------------------------------------------------
 Symbolic Z-matrix:
 Charge =  0 Multiplicity = 1

                         Standard orientation:
 ---------------------------------------------------------------------
 Center     Atomic      Atomic             Coordinates (Angstroms)
 Number     Number       Type             X           Y           Z
 ---------------------------------------------------------------------
      1          6           0       -3.140797   -0.513120   -0.722919
      2          6           0       -2.959899   -1.768452    0.131132
      3          6           0       -3.599264   -3.007523   -0.496332
      4          1           0       -4.213586   -0.334848   -0.878770
      5          1           0       -2.705455   -0.688205   -1.716507
      6          1           0       -3.394225   -1.590565    1.123268
      7          1           0       -1.887422   -1.943648    0.285128
      8          1           0       -3.159536   -3.212831   -1.477703
      9          1           0       -4.674901   -2.857742   -0.634801
     10          1           0       -3.458033   -3.893349    0.130745
     11          6           0       -2.507033    0.733879   -0.108863
     12          6           0       -2.687930    1.989211   -0.962914
     13          6           0       -2.048566    3.228281   -0.335450
     14          1           0       -2.942375    0.908963    0.884725
     15          1           0       -1.434244    0.555607    0.046988
     16          1           0       -3.760408    2.164406   -1.116910
     17          1           0       -2.253605    1.811323   -1.955049
     18          1           0       -0.972929    3.078501   -0.196981
     19          1           0       -2.488293    3.433590    0.645921
     20          1           0       -2.189797    4.114107   -0.962527
     21          6           0        2.297691   -0.409886    0.881527
     22          6           0        1.307010    0.622513    1.420679
     23          6           0        0.260446    0.008076    2.350715
     24          1           0        1.745147   -1.194411    0.346589
     25          1           0        2.799926   -0.901756    1.726050
     26          1           0        0.807795    1.113264    0.575361
     27          1           0        1.861994    1.404772    1.954232
     28          1           0        0.741581   -0.465483    3.212603
     29          1           0       -0.318607   -0.758647    1.825897
     30          1           0       -0.437488    0.763712    2.724563
     31          6           0        3.350138    0.189128   -0.049745
     32          6           0        4.340820   -0.843271   -0.588898
     33          6           0        5.387384   -0.228834   -1.518933
     34          1           0        2.847904    0.680998   -0.894269
     35          1           0        3.902683    0.973653    0.485194
     36          1           0        3.785836   -1.625531   -1.122451
     37          1           0        4.840035   -1.334023    0.256420
     38          1           0        5.966437    0.537889   -0.994116
     39          1           0        4.906248    0.244724   -2.380822
     40          1           0        6.085318   -0.984470   -1.892781
 ---------------------------------------------------------------------

 SCF Done:  E(RHF) =  -470.731797783     A.U. after   11 cycles
 E2 =    -0.1585035344D+01 EUMP2 =    -0.47231683312646D+03

 The electronic state is 1-A.
 Alpha  occ. eigenvalues --  -11.21636 -11.21631 -11.21617 -11.21584 -11.21444
 Alpha  occ. eigenvalues --  -11.21386 -11.21384 -11.21273 -11.21094 -11.21094
 Alpha  occ. eigenvalues --  -11.21070 -11.20973  -1.08503  -1.08395  -1.03571
 Alpha  occ. eigenvalues --   -1.03520  -0.96039  -0.95936  -0.87026  -0.86981
 Alpha  occ. eigenvalues --   -0.79678  -0.79548  -0.78291  -0.78249  -0.65359
 Alpha  occ. eigenvalues --   -0.64862  -0.61060  -0.60860  -0.59458  -0.59260
 Alpha  occ. eigenvalues --   -0.57624  -0.57564  -0.55416  -0.55168  -0.52716
 Alpha  occ. eigenvalues --   -0.52653  -0.52470  -0.52329  -0.49965  -0.49931
 Alpha  occ. eigenvalues --   -0.47988  -0.47931  -0.46885  -0.46428  -0.46012
 Alpha  occ. eigenvalues --   -0.45772  -0.45660  -0.45335  -0.43793  -0.43776
 Alpha virt. eigenvalues --    0.20517   0.22977   0.23385   0.24101   0.25756
 Alpha virt. eigenvalues --    0.26322   0.26870   0.27744   0.28307   0.29708
 Alpha virt. eigenvalues --    0.30002   0.31387   0.31589   0.32057   0.32516

 Mulliken charges:
               1
     1  C   -0.297772
     2  C   -0.302983
     3  C   -0.475382
     4  H    0.149604
     5  H    0.148663
     6  H    0.152857
     7  H    0.153587
     8  H    0.154989
     9  H    0.155455
    10  H    0.160434
    11  C   -0.306911
    12  C   -0.299049
    13  C   -0.478807
    14  H    0.149425
    15  H    0.161688
    16  H    0.151745
    17  H    0.150960
    18  H    0.157746
    19  H    0.155080
    20  H    0.160351
    21  C   -0.298030
    22  C   -0.307369
    23  C   -0.482096
    24  H    0.148399
    25  H    0.150257
    26  H    0.155682
    27  H    0.152922
    28  H    0.155234
    29  H    0.161215
    30  H    0.161966
    31  C   -0.298303
    32  C   -0.299659
    33  C   -0.475733
    34  H    0.149095
    35  H    0.149995
    36  H    0.151831
    37  H    0.152105
    38  H    0.155299
    39  H    0.155148
    40  H    0.160359
 Sum of Mulliken charges =  -0.00000

 Dipole moment (field-independent basis, Debye):
    X=             -0.0017    Y=             -0.0067    Z=              0.0237  Tot=              0.0247
 Quadrupole moment (field-independent basis, Debye-Ang):
   XX=            -84.4741   YY=            -85.8196   ZZ=            -84.5184
   XY=             -0.6806   XZ=              0.4267   YZ=              0.1442

 Normal termination of Gaussian 16 at Wed May  5 16:36:33 2021.
