 Gaussian 16, Revision A.03,
 Gaussian 16:  EM64L-G16RevA.03 25-Dec-2016

 -------------
 #p 6-31g* mp2
 -------------

 ------------------------------------------------------
 Input file generated by CHIRIPA (05-May-2021 14:51:10)
 ------------------------------------------------------
 Symbolic Z-matrix:
 Charge =  0 Multiplicity = 1

                         Standard orientation:
 ---------------------------------------------------------------------
 Center     Atomic      Atomic             Coordinates (Angstroms)
 Number     Number       Type             X           Y           Z
 ---------------------------------------------------------------------
      1          6           0       -2.039980    1.139148   -0.044364
      2          6           0       -2.620521    2.289299    0.779110
      3          6           0       -1.646679    3.458259    0.930630
      4          1           0       -1.113864    0.787505    0.430612
      5          1           0       -1.758652    1.514384   -1.038067
      6          1           0       -2.901949    1.911699    1.770489
      7          1           0       -3.545465    2.638117    0.302224
      8          1           0       -1.374219    3.862238   -0.049762
      9          1           0       -0.727047    3.131693    1.426846
     10          1           0       -2.082023    4.269305    1.522695
     11          6           0       -3.001725   -0.036893   -0.204689
     12          6           0       -2.421184   -1.187044   -1.028163
     13          6           0       -3.395025   -2.356005   -1.179682
     14          1           0       -3.283053   -0.412129    0.789015
     15          1           0       -3.927841    0.314749   -0.679664
     16          1           0       -1.496240   -1.535863   -0.551276
     17          1           0       -2.139756   -0.809444   -2.019542
     18          1           0       -4.314658   -2.029438   -1.675899
     19          1           0       -3.667486   -2.759984   -0.199291
     20          1           0       -2.959682   -3.167050   -1.771748
     21          6           0        3.127471   -0.233410   -0.213856
     22          6           0        2.965753    1.266275   -0.464408
     23          6           0        4.187540    1.887557   -1.141934
     24          1           0        4.017869   -0.400973    0.407479
     25          1           0        3.314331   -0.739918   -1.170897
     26          1           0        2.777879    1.769626    0.492648
     27          1           0        2.075528    1.430302   -1.085059
     28          1           0        4.374552    1.411982   -2.110159
     29          1           0        5.080893    1.753235   -0.523486
     30          1           0        4.050487    2.960073   -1.311594
     31          6           0        1.914235   -0.868844    0.462908
     32          6           0        2.075951   -2.368530    0.713461
     33          6           0        0.854165   -2.989811    1.390987
     34          1           0        1.727374   -0.362336    1.419949
     35          1           0        1.023835   -0.701283   -0.158427
     36          1           0        2.966177   -2.532556    1.334113
     37          1           0        2.263826   -2.871880   -0.243596
     38          1           0       -0.039188   -2.855489    0.772539
     39          1           0        0.667153   -2.514237    2.359211
     40          1           0        0.991217   -4.062328    1.560646
 ---------------------------------------------------------------------

 SCF Done:  E(RHF) =  -470.733029175     A.U. after   11 cycles
 E2 =    -0.1584233392D+01 EUMP2 =    -0.47231726256690D+03

 The electronic state is 1-A.
 Alpha  occ. eigenvalues --  -11.21634 -11.21617 -11.21589 -11.21576 -11.21416
 Alpha  occ. eigenvalues --  -11.21383 -11.21357 -11.21311 -11.21110 -11.21092
 Alpha  occ. eigenvalues --  -11.21062 -11.21044  -1.08469  -1.08401  -1.03563
 Alpha  occ. eigenvalues --   -1.03512  -0.96010  -0.95960  -0.87023  -0.86981
 Alpha  occ. eigenvalues --   -0.79665  -0.79546  -0.78432  -0.78075  -0.65205
 Alpha  occ. eigenvalues --   -0.64942  -0.61094  -0.60801  -0.59402  -0.59299
 Alpha  occ. eigenvalues --   -0.57678  -0.57522  -0.55363  -0.55184  -0.52696
 Alpha  occ. eigenvalues --   -0.52666  -0.52463  -0.52360  -0.50010  -0.49852
 Alpha  occ. eigenvalues --   -0.48091  -0.47812  -0.46874  -0.46473  -0.46312
 Alpha  occ. eigenvalues --   -0.45757  -0.45699  -0.45024  -0.43799  -0.43768
 Alpha virt. eigenvalues --    0.20650   0.22823   0.23485   0.24574   0.25298
 Alpha virt. eigenvalues --    0.26333   0.27006   0.27389   0.28282   0.30247
 Alpha virt. eigenvalues --    0.30760   0.31489   0.31651   0.31871   0.32272

 Mulliken charges:
               1
     1  C   -0.303783
     2  C   -0.299519
     3  C   -0.475657
     4  H    0.156263
     5  H    0.148464
     6  H    0.151826
     7  H    0.151752
     8  H    0.155078
     9  H    0.155509
    10  H    0.159995
    11  C   -0.297355
    12  C   -0.310993
    13  C   -0.475431
    14  H    0.149659
    15  H    0.149610
    16  H    0.161323
    17  H    0.151514
    18  H    0.155554
    19  H    0.155630
    20  H    0.160022
    21  C   -0.297889
    22  C   -0.300210
    23  C   -0.475745
    24  H    0.149629
    25  H    0.149584
    26  H    0.151589
    27  H    0.153237
    28  H    0.155112
    29  H    0.155089
    30  H    0.160442
    31  C   -0.306289
    32  C   -0.299051
    33  C   -0.482571
    34  H    0.148587
    35  H    0.157999
    36  H    0.152145
    37  H    0.152018
    38  H    0.161106
    39  H    0.154837
    40  H    0.160920
 Sum of Mulliken charges =  -0.00000

 Dipole moment (field-independent basis, Debye):
    X=              0.0102    Y=             -0.0080    Z=             -0.0018  Tot=              0.0131
 Quadrupole moment (field-independent basis, Debye-Ang):
   XX=            -85.5203   YY=            -85.7919   ZZ=            -83.5009
   XY=             -1.0701   XZ=              0.9314   YZ=             -0.0726

 Normal termination of Gaussian 16 at Wed May  5 19:46:32 2021.
