 Gaussian 16, Revision A.03,
 Gaussian 16:  EM64L-G16RevA.03 25-Dec-2016

 -------------
 #p 6-31g* mp2
 -------------

 ------------------------------------------------------
 Input file generated by CHIRIPA (05-May-2021 14:55:22)
 ------------------------------------------------------
 Symbolic Z-matrix:
 Charge =  0 Multiplicity = 1

                         Standard orientation:
 ---------------------------------------------------------------------
 Center     Atomic      Atomic             Coordinates (Angstroms)
 Number     Number       Type             X           Y           Z
 ---------------------------------------------------------------------
      1          6           0       -1.168250   -1.469490    1.442453
      2          6           0       -2.520713   -1.825907    1.460654
      3          6           0       -3.459381   -1.087582    0.733793
      4          6           0       -3.008719    0.006157   -0.003723
      5          6           0       -1.668088    0.386338   -0.041931
      6          6           0       -0.746997   -0.366449    0.692541
      7          1           0       -0.445898   -2.048656    2.010053
      8          1           0       -2.850727   -2.682058    2.042154
      9          1           0       -4.512466   -1.341384    0.730169
     10          1           0       -1.369282    1.244905   -0.630994
     11          1           0        0.302709   -0.087332    0.676550
     12          7           0       -3.993141    0.795445   -0.777247
     13          8           0       -3.570638    1.754713   -1.419067
     14          8           0       -5.168594    0.439875   -0.727069
     15          6           0        3.715496   -0.348651   -0.724912
     16          6           0        3.653985   -1.800771   -0.249991
     17          6           0        3.799514   -2.803810   -1.394773
     18          1           0        2.923136   -0.178236   -1.466579
     19          1           0        4.669840   -0.179625   -1.242648
     20          1           0        2.700630   -1.966637    0.267908
     21          1           0        4.446462   -1.967699    0.490773
     22          1           0        4.757211   -2.667095   -1.907341
     23          1           0        3.001460   -2.666027   -2.131473
     24          1           0        3.752685   -3.835644   -1.032854
     25          6           0        3.571479    0.665904    0.408078
     26          6           0        3.632990    2.118023   -0.066843
     27          6           0        3.487463    3.121062    1.077940
     28          1           0        2.617135    0.496877    0.925815
     29          1           0        4.363840    0.495487    1.149745
     30          1           0        2.840514    2.284950   -0.807607
     31          1           0        4.586345    2.283888   -0.584742
     32          1           0        4.285516    2.983279    1.814640
     33          1           0        2.529765    2.984346    1.590507
     34          1           0        3.534292    4.152895    0.716020
 ---------------------------------------------------------------------

 SCF Done:  E(RHF) =  -669.535488338     A.U. after   15 cycles
 E2 =    -0.2091568912D+01 EUMP2 =    -0.67162705724973D+03

 The electronic state is 1-A.
 Alpha  occ. eigenvalues --  -20.60766 -20.60761 -15.85820 -11.31189 -11.27760
 Alpha  occ. eigenvalues --  -11.27757 -11.27501 -11.26773 -11.26752 -11.22489
 Alpha  occ. eigenvalues --  -11.22402 -11.22334 -11.22222 -11.21741 -11.21696
 Alpha  occ. eigenvalues --   -1.59842  -1.39395  -1.19362  -1.09302  -1.08756
 Alpha  occ. eigenvalues --   -1.04767  -1.04298  -0.96737  -0.95590  -0.87745
 Alpha  occ. eigenvalues --   -0.86168  -0.82424  -0.80365  -0.79128  -0.77471
 Alpha  occ. eigenvalues --   -0.72038  -0.71165  -0.70470  -0.66040  -0.65014
 Alpha  occ. eigenvalues --   -0.64715  -0.62113  -0.61697  -0.60101  -0.58348
 Alpha  occ. eigenvalues --   -0.56040  -0.55259  -0.53393  -0.53167  -0.53093
 Alpha  occ. eigenvalues --   -0.52847  -0.50676  -0.48801  -0.48793  -0.48671
 Alpha  occ. eigenvalues --   -0.47416  -0.46637  -0.46586  -0.44800  -0.44582
 Alpha  occ. eigenvalues --   -0.37342  -0.36369
 Alpha virt. eigenvalues --    0.05065   0.11246   0.16551   0.18233   0.22947
 Alpha virt. eigenvalues --    0.23448   0.24926   0.26213   0.27077   0.28064
 Alpha virt. eigenvalues --    0.29358   0.30719   0.31124   0.31278   0.32164

 Mulliken charges:
               1
     1  C   -0.173718
     2  C   -0.218492
     3  C   -0.171131
     4  C    0.159038
     5  C   -0.173711
     6  C   -0.227876
     7  H    0.226243
     8  H    0.223503
     9  H    0.275635
    10  H    0.275900
    11  H    0.236897
    12  N    0.488047
    13  O   -0.460436
    14  O   -0.460459
    15  C   -0.300005
    16  C   -0.298621
    17  C   -0.476277
    18  H    0.150175
    19  H    0.154522
    20  H    0.142368
    21  H    0.154240
    22  H    0.158061
    23  H    0.157592
    24  H    0.161258
    25  C   -0.303200
    26  C   -0.300562
    27  C   -0.475994
    28  H    0.140479
    29  H    0.154211
    30  H    0.151639
    31  H    0.156121
    32  H    0.156781
    33  H    0.153268
    34  H    0.164505
 Sum of Mulliken charges =  -0.00000

 Dipole moment (field-independent basis, Debye):
    X=              3.6792    Y=             -2.7509    Z=              2.6584  Tot=              5.3077
 Quadrupole moment (field-independent basis, Debye-Ang):
   XX=           -111.1731   YY=            -93.7872   ZZ=            -95.4323
   XY=             11.2566   XZ=             -9.6586   YZ=             -1.6704

 Normal termination of Gaussian 16 at Thu May  6 12:33:13 2021.
