 Gaussian 16, Revision A.03,
 Gaussian 16:  EM64L-G16RevA.03 25-Dec-2016

 -------------
 #p 6-31g* mp2
 -------------

 ------------------------------------------------------
 Input file generated by CHIRIPA (05-May-2021 14:55:23)
 ------------------------------------------------------
 Symbolic Z-matrix:
 Charge =  0 Multiplicity = 1

                         Standard orientation:
 ---------------------------------------------------------------------
 Center     Atomic      Atomic             Coordinates (Angstroms)
 Number     Number       Type             X           Y           Z
 ---------------------------------------------------------------------
      1          6           0        3.433594    1.586275    0.996005
      2          6           0        2.507039    1.722643   -0.042947
      3          6           0        1.932231    0.593778   -0.634391
      4          6           0        2.308492   -0.661868   -0.159974
      5          6           0        3.228802   -0.830410    0.873424
      6          6           0        3.790889    0.312429    1.450074
      7          1           0        3.875178    2.468633    1.449706
      8          1           0        2.227684    2.710679   -0.397619
      9          1           0        1.212418    0.670518   -1.440244
     10          1           0        3.487514   -1.828507    1.205522
     11          1           0        4.510201    0.203502    2.256777
     12          7           0        1.706702   -1.864344   -0.778279
     13          8           0        2.054873   -2.959446   -0.342201
     14          8           0        0.898243   -1.688973   -1.687276
     15          6           0       -2.565476    1.126974    0.253888
     16          6           0       -2.072148    1.924251   -0.953987
     17          6           0       -1.039597    2.987639   -0.578699
     18          1           0       -2.999629    1.818340    0.989055
     19          1           0       -1.706451    0.648360    0.744192
     20          1           0       -2.932016    2.400094   -1.442677
     21          1           0       -1.639292    1.230888   -1.686448
     22          1           0       -0.163884    2.526161   -0.110975
     23          1           0       -1.463952    3.702010    0.134181
     24          1           0       -0.700540    3.545648   -1.457064
     25          6           0       -3.598169    0.060059   -0.105228
     26          6           0       -4.091497   -0.737218    1.102647
     27          6           0       -5.124048   -1.800605    0.727359
     28          1           0       -4.457194    0.538674   -0.595532
     29          1           0       -3.164016   -0.631306   -0.840396
     30          1           0       -4.524353   -0.043854    1.835107
     31          1           0       -3.231629   -1.213060    1.591337
     32          1           0       -4.699693   -2.514976    0.014479
     33          1           0       -5.999761   -1.339127    0.259635
     34          1           0       -5.463106   -2.358614    1.605724
 ---------------------------------------------------------------------

 SCF Done:  E(RHF) =  -669.534723515     A.U. after   15 cycles
 E2 =    -0.2093232931D+01 EUMP2 =    -0.67162795644541D+03

 The electronic state is 1-A.
 Alpha  occ. eigenvalues --  -20.60861 -20.60852 -15.85910 -11.31260 -11.27823
 Alpha  occ. eigenvalues --  -11.27806 -11.27548 -11.26835 -11.26783 -11.21762
 Alpha  occ. eigenvalues --  -11.21511 -11.21349 -11.21321 -11.21099 -11.20729
 Alpha  occ. eigenvalues --   -1.59932  -1.39486  -1.19436  -1.08827  -1.08344
 Alpha  occ. eigenvalues --   -1.04847  -1.03510  -0.95990  -0.95660  -0.87019
 Alpha  occ. eigenvalues --   -0.86222  -0.82505  -0.79594  -0.78108  -0.77550
 Alpha  occ. eigenvalues --   -0.72128  -0.71256  -0.70537  -0.65124  -0.64959
 Alpha  occ. eigenvalues --   -0.64826  -0.62281  -0.60822  -0.59382  -0.57572
 Alpha  occ. eigenvalues --   -0.55419  -0.55192  -0.53192  -0.52973  -0.52663
 Alpha  occ. eigenvalues --   -0.52347  -0.49897  -0.48884  -0.48881  -0.47895
 Alpha  occ. eigenvalues --   -0.46601  -0.45666  -0.45540  -0.44890  -0.43740
 Alpha  occ. eigenvalues --   -0.37410  -0.36362
 Alpha virt. eigenvalues --    0.04942   0.11151   0.16316   0.20490   0.22949
 Alpha virt. eigenvalues --    0.24209   0.26446   0.26766   0.27412   0.28306
 Alpha virt. eigenvalues --    0.29278   0.30184   0.31551   0.31637   0.32174

 Mulliken charges:
               1
     1  C   -0.172035
     2  C   -0.220910
     3  C   -0.172236
     4  C    0.157303
     5  C   -0.170970
     6  C   -0.218565
     7  H    0.226277
     8  H    0.228496
     9  H    0.280308
    10  H    0.275777
    11  H    0.223793
    12  N    0.488043
    13  O   -0.459884
    14  O   -0.461403
    15  C   -0.297628
    16  C   -0.302942
    17  C   -0.488266
    18  H    0.147906
    19  H    0.150130
    20  H    0.154016
    21  H    0.157441
    22  H    0.155782
    23  H    0.157637
    24  H    0.155843
    25  C   -0.300887
    26  C   -0.299610
    27  C   -0.476341
    28  H    0.148046
    29  H    0.159229
    30  H    0.149324
    31  H    0.153529
    32  H    0.159529
    33  H    0.153789
    34  H    0.159479
 Sum of Mulliken charges =  -0.00000

 Dipole moment (field-independent basis, Debye):
    X=              2.1323    Y=              4.1140    Z=              2.1717  Tot=              5.1174
 Quadrupole moment (field-independent basis, Debye-Ang):
   XX=            -83.8479   YY=            -99.5709   ZZ=            -94.1034
   XY=              5.8801   XZ=              6.7362   YZ=             -4.0466

 Normal termination of Gaussian 16 at Thu May  6 07:52:38 2021.
