 Gaussian 16, Revision A.03,
 Gaussian 16:  EM64L-G16RevA.03 25-Dec-2016

 -------------
 #p 6-31g* mp2
 -------------

 ------------------------------------------------------
 Input file generated by CHIRIPA (05-May-2021 14:57:22)
 ------------------------------------------------------
 Symbolic Z-matrix:
 Charge =  0 Multiplicity = 1

                         Standard orientation:
 ---------------------------------------------------------------------
 Center     Atomic      Atomic             Coordinates (Angstroms)
 Number     Number       Type             X           Y           Z
 ---------------------------------------------------------------------
      1          6           0        1.996164    2.749201    0.684577
      2          6           0        1.895836    1.742982    1.651003
      3          6           0        2.244836    0.424827    1.342436
      4          6           0        2.692347    0.147058    0.051751
      5          6           0        2.803214    1.127571   -0.932927
      6          6           0        2.448735    2.438831   -0.602035
      7          1           0        1.722924    3.770498    0.932950
      8          1           0        1.544678    1.981110    2.651017
      9          1           0        2.176790   -0.373573    2.071371
     10          1           0        3.156577    0.859534   -1.921213
     11          1           0        2.527660    3.218239   -1.354591
     12          7           0        3.064718   -1.244764   -0.286732
     13          8           0        3.456180   -1.463594   -1.431069
     14          8           0        2.958069   -2.090491    0.598712
     15          6           0       -4.817724    0.875649   -0.235253
     16          6           0       -4.549403    0.045204    0.857855
     17          6           0       -3.341111   -0.653351    0.939101
     18          6           0       -2.419569   -0.497495   -0.095190
     19          6           0       -2.657669    0.322353   -1.197210
     20          6           0       -3.872667    1.011334   -1.257494
     21          1           0       -5.758958    1.414585   -0.290225
     22          1           0       -5.281492   -0.062082    1.653203
     23          1           0       -3.107591   -1.302912    1.773941
     24          1           0       -1.908354    0.409158   -1.974648
     25          1           0       -4.078344    1.655571   -2.107612
     26          7           0       -1.136856   -1.231956   -0.020273
     27          8           0       -0.341465   -1.077640   -0.944491
     28          8           0       -0.951142   -1.948035    0.961245
 ---------------------------------------------------------------------

 SCF Done:  E(RHF) =  -868.337393562     A.U. after   16 cycles
 E2 =    -0.2602025172D+01 EUMP2 =    -0.87093941873413D+03

 The electronic state is 1-A.
 Alpha  occ. eigenvalues --  -20.60882 -20.60865 -20.59273 -20.59220 -15.85902
 Alpha  occ. eigenvalues --  -15.84321 -11.31338 -11.30011 -11.27913 -11.27909
 Alpha  occ. eigenvalues --  -11.27671 -11.26946 -11.26936 -11.26667 -11.26599
 Alpha  occ. eigenvalues --  -11.26567 -11.25843 -11.25817  -1.59929  -1.58283
 Alpha  occ. eigenvalues --   -1.39485  -1.37846  -1.19516  -1.18246  -1.08900
 Alpha  occ. eigenvalues --   -1.07592  -1.04929  -1.03738  -0.95723  -0.94373
 Alpha  occ. eigenvalues --   -0.86323  -0.85117  -0.82557  -0.81233  -0.77592
 Alpha  occ. eigenvalues --   -0.76186  -0.72150  -0.71275  -0.70623  -0.70578
 Alpha  occ. eigenvalues --   -0.69502  -0.69412  -0.65168  -0.64930  -0.63928
 Alpha  occ. eigenvalues --   -0.63787  -0.62274  -0.61084  -0.55428  -0.54285
 Alpha  occ. eigenvalues --   -0.53262  -0.53021  -0.52031  -0.51859  -0.48900
 Alpha  occ. eigenvalues --   -0.48852  -0.47350  -0.47284  -0.44876  -0.43196
 Alpha  occ. eigenvalues --   -0.37515  -0.36542  -0.36194  -0.35369
 Alpha virt. eigenvalues --    0.04920   0.06446   0.11116   0.12284   0.16400
 Alpha virt. eigenvalues --    0.17818   0.21253   0.22242   0.27155   0.28113
 Alpha virt. eigenvalues --    0.28157   0.29211   0.30799   0.31732   0.32381

 Mulliken charges:
               1
     1  C   -0.173835
     2  C   -0.222098
     3  C   -0.171671
     4  C    0.175710
     5  C   -0.169171
     6  C   -0.220964
     7  H    0.218975
     8  H    0.218281
     9  H    0.279248
    10  H    0.273197
    11  H    0.217200
    12  N    0.495033
    13  O   -0.465928
    14  O   -0.456314
    15  C   -0.171182
    16  C   -0.218837
    17  C   -0.171789
    18  C    0.158874
    19  C   -0.170530
    20  C   -0.219005
    21  H    0.225524
    22  H    0.223544
    23  H    0.275915
    24  H    0.275915
    25  H    0.223015
    26  N    0.488679
    27  O   -0.461524
    28  O   -0.456262
 Sum of Mulliken charges =  -0.00000

 Dipole moment (field-independent basis, Debye):
    X=             -5.9484    Y=              7.0767    Z=              0.9028  Tot=              9.2886
 Quadrupole moment (field-independent basis, Debye-Ang):
   XX=            -91.1381   YY=           -106.6574   ZZ=            -96.9626
   XY=              9.2858   XZ=              1.5863   YZ=             -3.5198

 Normal termination of Gaussian 16 at Fri May  7 03:17:08 2021.
