 Gaussian 16, Revision A.03,
 Gaussian 16:  EM64L-G16RevA.03 25-Dec-2016

 -------------
 #p 6-31g* mp2
 -------------

 ------------------------------------------------------
 Input file generated by CHIRIPA (05-May-2021 14:57:23)
 ------------------------------------------------------
 Symbolic Z-matrix:
 Charge =  0 Multiplicity = 1

                         Standard orientation:
 ---------------------------------------------------------------------
 Center     Atomic      Atomic             Coordinates (Angstroms)
 Number     Number       Type             X           Y           Z
 ---------------------------------------------------------------------
      1          6           0        0.763332   -1.291313    0.580291
      2          6           0        1.421598   -1.684547   -0.589570
      3          6           0        2.683213   -1.169374   -0.901776
      4          6           0        3.259868   -0.258819   -0.017666
      5          6           0        2.629308    0.152467    1.155589
      6          6           0        1.368222   -0.375676    1.447607
      7          1           0       -0.216516   -1.696549    0.814979
      8          1           0        0.954238   -2.395484   -1.264987
      9          1           0        3.215132   -1.456598   -1.800654
     10          1           0        3.120545    0.862838    1.809406
     11          1           0        0.859342   -0.068482    2.356848
     12          7           0        4.595204    0.293436   -0.337499
     13          8           0        5.081836    1.094223    0.457842
     14          8           0        5.129923   -0.084950   -1.377469
     15          6           0       -2.098063    2.690069   -0.083977
     16          6           0       -2.938904    2.252233   -1.112474
     17          6           0       -3.466444    0.957641   -1.095687
     18          6           0       -3.130831    0.123592   -0.030316
     19          6           0       -2.295817    0.530580    1.009109
     20          6           0       -1.779764    1.829362    0.971670
     21          1           0       -1.692718    3.697366   -0.105038
     22          1           0       -3.187809    2.918495   -1.933561
     23          1           0       -4.119811    0.592883   -1.878939
     24          1           0       -2.065710   -0.156482    1.814351
     25          1           0       -1.127007    2.166687    1.771775
     26          7           0       -3.683234   -1.249152   -0.001614
     27          8           0       -3.372351   -1.964618    0.948175
     28          8           0       -4.416631   -1.583650   -0.929448
 ---------------------------------------------------------------------

 SCF Done:  E(RHF) =  -868.337542285     A.U. after   16 cycles
 E2 =    -0.2602058018D+01 EUMP2 =    -0.87093960030340D+03

 The electronic state is 1-A.
 Alpha  occ. eigenvalues --  -20.61872 -20.61830 -20.60944 -20.60933 -15.86867
 Alpha  occ. eigenvalues --  -15.85998 -11.32080 -11.31335 -11.28714 -11.28558
 Alpha  occ. eigenvalues --  -11.28249 -11.27986 -11.27893 -11.27613 -11.27557
 Alpha  occ. eigenvalues --  -11.27515 -11.27009 -11.26815  -1.60911  -1.60020
 Alpha  occ. eigenvalues --   -1.40473  -1.39574  -1.20226  -1.19517  -1.09628
 Alpha  occ. eigenvalues --   -1.08902  -1.05616  -1.04933  -0.96504  -0.95734
 Alpha  occ. eigenvalues --   -0.87018  -0.86334  -0.83342  -0.82583  -0.78446
 Alpha  occ. eigenvalues --   -0.77646  -0.73084  -0.72248  -0.72216  -0.71369
 Alpha  occ. eigenvalues --   -0.71346  -0.70528  -0.65880  -0.65611  -0.65165
 Alpha  occ. eigenvalues --   -0.64977  -0.62982  -0.62270  -0.56077  -0.55381
 Alpha  occ. eigenvalues --   -0.54004  -0.53685  -0.53148  -0.53027  -0.49866
 Alpha  occ. eigenvalues --   -0.49819  -0.48973  -0.48970  -0.45891  -0.44987
 Alpha  occ. eigenvalues --   -0.38181  -0.37869  -0.36857  -0.36398
 Alpha virt. eigenvalues --    0.04032   0.04924   0.10374   0.11067   0.15642
 Alpha virt. eigenvalues --    0.16412   0.18941   0.22085   0.25143   0.26638
 Alpha virt. eigenvalues --    0.27692   0.29042   0.30207   0.31356   0.32492

 Mulliken charges:
               1
     1  C   -0.173763
     2  C   -0.220891
     3  C   -0.170221
     4  C    0.157639
     5  C   -0.172287
     6  C   -0.220040
     7  H    0.237421
     8  H    0.228182
     9  H    0.276312
    10  H    0.273385
    11  H    0.213578
    12  N    0.488090
    13  O   -0.461914
    14  O   -0.459662
    15  C   -0.169575
    16  C   -0.217532
    17  C   -0.170441
    18  C    0.158327
    19  C   -0.175436
    20  C   -0.212244
    21  H    0.230221
    22  H    0.227326
    23  H    0.277504
    24  H    0.267493
    25  H    0.221746
    26  N    0.487882
    27  O   -0.466863
    28  O   -0.454238
 Sum of Mulliken charges =  -0.00000

 Dipole moment (field-independent basis, Debye):
    X=             -2.9593    Y=              2.9893    Z=              0.7508  Tot=              4.2728
 Quadrupole moment (field-independent basis, Debye-Ang):
   XX=           -147.6529   YY=           -101.5138   ZZ=            -98.2026
   XY=            -21.1626   XZ=              6.6106   YZ=              1.3456

 Normal termination of Gaussian 16 at Fri May  7 04:53:48 2021.
