 Gaussian 16, Revision A.03,
 Gaussian 16:  EM64L-G16RevA.03 25-Dec-2016

 -------------
 #p 6-31g* mp2
 -------------

 ------------------------------------------------------
 Input file generated by CHIRIPA (05-May-2021 14:53:17)
 ------------------------------------------------------
 Symbolic Z-matrix:
 Charge =  0 Multiplicity = 1

                         Standard orientation:
 ---------------------------------------------------------------------
 Center     Atomic      Atomic             Coordinates (Angstroms)
 Number     Number       Type             X           Y           Z
 ---------------------------------------------------------------------
      1          6           0        2.749241   -0.122885    0.145205
      2          6           0        3.595922   -1.049160   -0.728369
      3          6           0        4.005015   -2.332842   -0.005461
      4          1           0        3.312608    0.129932    1.053856
      5          1           0        1.850080   -0.661717    0.474697
      6          1           0        4.492537   -0.508294   -1.057250
      7          1           0        3.030549   -1.299648   -1.635135
      8          1           0        3.120665   -2.896662    0.308598
      9          1           0        4.590959   -2.100812    0.889767
     10          1           0        4.609560   -2.980335   -0.648219
     11          6           0        2.332475    1.164634   -0.563546
     12          6           0        1.485794    2.090908    0.310028
     13          6           0        1.076701    3.374590   -0.412881
     14          1           0        3.231637    1.703465   -0.893039
     15          1           0        1.769108    0.911816   -1.472197
     16          1           0        2.051167    2.341396    1.216794
     17          1           0        0.589180    1.550042    0.638909
     18          1           0        0.490757    3.142560   -1.308108
     19          1           0        1.961051    3.938410   -0.726939
     20          1           0        0.472156    4.022083    0.229878
     21          6           0       -1.365612   -0.259260    2.604812
     22          6           0       -1.278100   -1.483115    1.933215
     23          6           0       -1.618749   -1.576660    0.580531
     24          6           0       -2.044930   -0.421209   -0.072611
     25          6           0       -2.142623    0.812553    0.568932
     26          6           0       -1.796834    0.882655    1.921730
     27          1           0       -1.098991   -0.195698    3.655653
     28          1           0       -0.943527   -2.371581    2.461168
     29          1           0       -1.560267   -2.511417    0.036263
     30          1           0       -2.479510    1.680939    0.015911
     31          1           0       -1.865769    1.834449    2.440750
     32          7           0       -2.408281   -0.507832   -1.504698
     33          8           0       -2.780903    0.524712   -2.057548
     34          8           0       -2.313571   -1.606630   -2.047201
 ---------------------------------------------------------------------

 SCF Done:  E(RHF) =  -669.534716448     A.U. after   15 cycles
 E2 =    -0.2094506307D+01 EUMP2 =    -0.67162922275520D+03

 The electronic state is 1-A.
 Alpha  occ. eigenvalues --  -20.60897 -20.60892 -15.85952 -11.31349 -11.27936
 Alpha  occ. eigenvalues --  -11.27887 -11.27644 -11.26953 -11.26892 -11.21610
 Alpha  occ. eigenvalues --  -11.21496 -11.21411 -11.21320 -11.21197 -11.21143
 Alpha  occ. eigenvalues --   -1.59973  -1.39525  -1.19540  -1.08911  -1.08438
 Alpha  occ. eigenvalues --   -1.04950  -1.03567  -0.96037  -0.95739  -0.87050
 Alpha  occ. eigenvalues --   -0.86320  -0.82572  -0.79635  -0.78260  -0.77613
 Alpha  occ. eigenvalues --   -0.72166  -0.71302  -0.70612  -0.65181  -0.65089
 Alpha  occ. eigenvalues --   -0.64918  -0.62276  -0.61001  -0.59420  -0.57656
 Alpha  occ. eigenvalues --   -0.55416  -0.55327  -0.53372  -0.53008  -0.52720
 Alpha  occ. eigenvalues --   -0.52458  -0.49969  -0.48929  -0.48921  -0.47954
 Alpha  occ. eigenvalues --   -0.46665  -0.45781  -0.45640  -0.44921  -0.43816
 Alpha  occ. eigenvalues --   -0.37499  -0.36413
 Alpha virt. eigenvalues --    0.04903   0.11060   0.16368   0.21061   0.22843
 Alpha virt. eigenvalues --    0.24062   0.26550   0.26935   0.27444   0.27883
 Alpha virt. eigenvalues --    0.28691   0.30477   0.31450   0.31803   0.31948

 Mulliken charges:
               1
     1  C   -0.300353
     2  C   -0.300334
     3  C   -0.474779
     4  H    0.146438
     5  H    0.148965
     6  H    0.152407
     7  H    0.155815
     8  H    0.151373
     9  H    0.153595
    10  H    0.161705
    11  C   -0.298045
    12  C   -0.310639
    13  C   -0.477514
    14  H    0.149291
    15  H    0.153245
    16  H    0.146604
    17  H    0.162982
    18  H    0.161121
    19  H    0.156739
    20  H    0.152692
    21  C   -0.168618
    22  C   -0.217921
    23  C   -0.171900
    24  C    0.161573
    25  C   -0.173890
    26  C   -0.219122
    27  H    0.226967
    28  H    0.224791
    29  H    0.276377
    30  H    0.277270
    31  H    0.225338
    32  N    0.487922
    33  O   -0.460088
    34  O   -0.460007
 Sum of Mulliken charges =  -0.00000

 Dipole moment (field-independent basis, Debye):
    X=              1.1344    Y=              0.2427    Z=              5.0246  Tot=              5.1568
 Quadrupole moment (field-independent basis, Debye-Ang):
   XX=           -100.1143   YY=            -91.3265   ZZ=            -95.9394
   XY=             -1.7126   XZ=            -10.6631   YZ=             -1.7605

 Normal termination of Gaussian 16 at Wed May  5 22:01:45 2021.
