 Gaussian 16, Revision A.03,
 Gaussian 16:  EM64L-G16RevA.03 25-Dec-2016

 -------------
 #p 6-31g* mp2
 -------------

 ------------------------------------------------------
 Input file generated by CHIRIPA (05-May-2021 14:51:11)
 ------------------------------------------------------
 Symbolic Z-matrix:
 Charge =  0 Multiplicity = 1

                         Standard orientation:
 ---------------------------------------------------------------------
 Center     Atomic      Atomic             Coordinates (Angstroms)
 Number     Number       Type             X           Y           Z
 ---------------------------------------------------------------------
      1          6           0       -4.458335   -0.015343    0.360969
      2          6           0       -5.452824   -0.395145   -0.736632
      3          6           0       -6.906377   -0.324462   -0.267611
      4          1           0       -4.600069   -0.682510    1.222215
      5          1           0       -4.681989    1.001257    0.712961
      6          1           0       -5.226495   -1.410203   -1.087414
      7          1           0       -5.308577    0.272881   -1.595440
      8          1           0       -7.155418    0.688847    0.063725
      9          1           0       -7.072869   -1.003800    0.574637
     10          1           0       -7.600303   -0.599868   -1.067910
     11          6           0       -3.001073   -0.081198   -0.092659
     12          6           0       -2.006585    0.298604    1.004941
     13          6           0       -0.553031    0.227922    0.535920
     14          1           0       -2.777420   -1.097798   -0.444652
     15          1           0       -2.859340    0.585969   -0.953905
     16          1           0       -2.150832   -0.369422    1.863749
     17          1           0       -2.232913    1.313662    1.355723
     18          1           0       -0.386539    0.907259   -0.306328
     19          1           0       -0.303991   -0.785388    0.204584
     20          1           0        0.140894    0.503328    1.336220
     21          6           0        3.923710    0.766285    0.039768
     22          6           0        2.929967    1.805719   -0.479880
     23          6           0        3.331791    3.237394   -0.124020
     24          1           0        4.009963    0.864040    1.130615
     25          1           0        4.918882    0.982161   -0.373058
     26          1           0        1.936685    1.587129   -0.067295
     27          1           0        2.845925    1.705351   -1.569595
     28          1           0        4.311281    3.479527   -0.548957
     29          1           0        3.396875    3.360633    0.961880
     30          1           0        2.607596    3.964135   -0.505134
     31          6           0        3.535698   -0.669744   -0.308077
     32          6           0        4.529443   -1.709178    0.211572
     33          6           0        4.127617   -3.140853   -0.144290
     34          1           0        2.540526   -0.885620    0.104749
     35          1           0        3.449446   -0.767499   -1.398925
     36          1           0        4.613483   -1.608810    1.301286
     37          1           0        5.522723   -1.490588   -0.201014
     38          1           0        4.062534   -3.264093   -1.230190
     39          1           0        3.148128   -3.382986    0.280647
     40          1           0        4.851813   -3.867595    0.236825
 ---------------------------------------------------------------------

 SCF Done:  E(RHF) =  -470.732598364     A.U. after   11 cycles
 E2 =    -0.1583361000D+01 EUMP2 =    -0.47231595936363D+03

 The electronic state is 1-A.
 Alpha  occ. eigenvalues --  -11.21660 -11.21626 -11.21532 -11.21446 -11.21394
 Alpha  occ. eigenvalues --  -11.21385 -11.21289 -11.21230 -11.21162 -11.21091
 Alpha  occ. eigenvalues --  -11.21030 -11.20979  -1.08478  -1.08323  -1.03590
 Alpha  occ. eigenvalues --   -1.03431  -0.96045  -0.95892  -0.87080  -0.86902
 Alpha  occ. eigenvalues --   -0.79714  -0.79463  -0.78308  -0.78095  -0.65109
 Alpha  occ. eigenvalues --   -0.64966  -0.61055  -0.60795  -0.59422  -0.59243
 Alpha  occ. eigenvalues --   -0.57645  -0.57508  -0.55382  -0.55136  -0.52816
 Alpha  occ. eigenvalues --   -0.52570  -0.52455  -0.52317  -0.50088  -0.49755
 Alpha  occ. eigenvalues --   -0.47995  -0.47799  -0.46781  -0.46385  -0.45932
 Alpha  occ. eigenvalues --   -0.45740  -0.45657  -0.45487  -0.43767  -0.43669
 Alpha virt. eigenvalues --    0.21827   0.22967   0.24111   0.24485   0.25590
 Alpha virt. eigenvalues --    0.26571   0.27047   0.27511   0.27926   0.29486
 Alpha virt. eigenvalues --    0.30363   0.31104   0.31785   0.31904   0.32352

 Mulliken charges:
               1
     1  C   -0.298352
     2  C   -0.299671
     3  C   -0.475732
     4  H    0.149716
     5  H    0.149613
     6  H    0.152014
     7  H    0.152022
     8  H    0.155221
     9  H    0.155209
    10  H    0.160363
    11  C   -0.298866
    12  C   -0.300235
    13  C   -0.479415
    14  H    0.149733
    15  H    0.150031
    16  H    0.151972
    17  H    0.152241
    18  H    0.158677
    19  H    0.156621
    20  H    0.160308
    21  C   -0.297246
    22  C   -0.310528
    23  C   -0.474915
    24  H    0.148408
    25  H    0.148880
    26  H    0.165903
    27  H    0.150333
    28  H    0.154655
    29  H    0.154347
    30  H    0.159236
    31  C   -0.303190
    32  C   -0.299373
    33  C   -0.475528
    34  H    0.155572
    35  H    0.149023
    36  H    0.151533
    37  H    0.151726
    38  H    0.155046
    39  H    0.154651
    40  H    0.159998
 Sum of Mulliken charges =  -0.00000

 Dipole moment (field-independent basis, Debye):
    X=             -0.0892    Y=             -0.0152    Z=              0.0029  Tot=              0.0905
 Quadrupole moment (field-independent basis, Debye-Ang):
   XX=            -86.0737   YY=            -85.1534   ZZ=            -84.0299
   XY=             -0.2671   XZ=             -0.2335   YZ=             -0.5394

 Normal termination of Gaussian 16 at Wed May  5 16:44:16 2021.
