 Gaussian 16, Revision A.03,
 Gaussian 16:  EM64L-G16RevA.03 25-Dec-2016

 -------------
 #p 6-31g* mp2
 -------------

 ------------------------------------------------------
 Input file generated by CHIRIPA (05-May-2021 14:53:12)
 ------------------------------------------------------
 Symbolic Z-matrix:
 Charge =  0 Multiplicity = 1

                         Standard orientation:
 ---------------------------------------------------------------------
 Center     Atomic      Atomic             Coordinates (Angstroms)
 Number     Number       Type             X           Y           Z
 ---------------------------------------------------------------------
      1          6           0        3.947556   -0.169433   -0.251502
      2          6           0        5.232566   -0.684067    0.398026
      3          6           0        5.680356   -2.033174   -0.165169
      4          1           0        3.149662   -0.911013   -0.108782
      5          1           0        4.102639   -0.081915   -1.335792
      6          1           0        5.075545   -0.769272    1.480939
      7          1           0        6.027444    0.058911    0.253910
      8          1           0        5.864430   -1.959207   -1.241852
      9          1           0        4.907122   -2.792095   -0.007851
     10          1           0        6.600749   -2.382359    0.313168
     11          6           0        3.487178    1.178340    0.301027
     12          6           0        2.202168    1.692973   -0.348501
     13          6           0        1.754378    3.042080    0.214694
     14          1           0        3.332095    1.090822    1.385317
     15          1           0        4.285072    1.919920    0.158308
     16          1           0        1.407290    0.949996   -0.204385
     17          1           0        2.359189    1.778179   -1.431414
     18          1           0        2.527611    3.801002    0.057376
     19          1           0        1.570304    2.968113    1.291377
     20          1           0        0.833985    3.391265   -0.263642
     21          6           0       -3.761279    1.978683   -0.054105
     22          6           0       -2.398638    1.723819   -0.240589
     23          6           0       -1.912594    0.413091   -0.223274
     24          6           0       -2.821333   -0.623496   -0.015985
     25          6           0       -4.184589   -0.401784    0.172871
     26          6           0       -4.648341    0.916940    0.151668
     27          1           0       -4.130191    2.999994   -0.069065
     28          1           0       -1.707427    2.546417   -0.400605
     29          1           0       -0.862645    0.187359   -0.364948
     30          1           0       -4.849320   -1.242503    0.330167
     31          1           0       -5.707106    1.111891    0.296777
     32          7           0       -2.318579   -2.015338    0.004404
     33          8           0       -3.139698   -2.911086    0.188895
     34          8           0       -1.112922   -2.184161   -0.164493
 ---------------------------------------------------------------------

 SCF Done:  E(RHF) =  -669.535492048     A.U. after   15 cycles
 E2 =    -0.2091724766D+01 EUMP2 =    -0.67162721681426D+03

 The electronic state is 1-A.
 Alpha  occ. eigenvalues --  -20.60767 -20.60761 -15.85817 -11.31154 -11.27727
 Alpha  occ. eigenvalues --  -11.27700 -11.27465 -11.26742 -11.26713 -11.22176
 Alpha  occ. eigenvalues --  -11.21833 -11.21608 -11.21479 -11.21295 -11.20834
 Alpha  occ. eigenvalues --   -1.59841  -1.39396  -1.19327  -1.08729  -1.08592
 Alpha  occ. eigenvalues --   -1.04728  -1.03744  -0.96183  -0.95568  -0.87204
 Alpha  occ. eigenvalues --   -0.86128  -0.82401  -0.79850  -0.78332  -0.77450
 Alpha  occ. eigenvalues --   -0.72038  -0.71163  -0.70449  -0.65235  -0.64978
 Alpha  occ. eigenvalues --   -0.64733  -0.62154  -0.61093  -0.59608  -0.57775
 Alpha  occ. eigenvalues --   -0.55450  -0.55222  -0.53061  -0.53020  -0.52835
 Alpha  occ. eigenvalues --   -0.52520  -0.50100  -0.48796  -0.48792  -0.48135
 Alpha  occ. eigenvalues --   -0.46861  -0.45879  -0.45750  -0.44807  -0.43972
 Alpha  occ. eigenvalues --   -0.37312  -0.36327
 Alpha virt. eigenvalues --    0.05077   0.11319   0.16570   0.19078   0.23044
 Alpha virt. eigenvalues --    0.23851   0.24983   0.26105   0.26928   0.28410
 Alpha virt. eigenvalues --    0.29389   0.29657   0.31387   0.31627   0.32651

 Mulliken charges:
               1
     1  C   -0.301420
     2  C   -0.299902
     3  C   -0.476541
     4  H    0.158833
     5  H    0.149348
     6  H    0.152573
     7  H    0.150269
     8  H    0.154819
     9  H    0.159901
    10  H    0.159762
    11  C   -0.297457
    12  C   -0.307533
    13  C   -0.477949
    14  H    0.151307
    15  H    0.150105
    16  H    0.151936
    17  H    0.154689
    18  H    0.160179
    19  H    0.158555
    20  H    0.149969
    21  C   -0.171323
    22  C   -0.225376
    23  C   -0.182103
    24  C    0.159617
    25  C   -0.170259
    26  C   -0.218859
    27  H    0.225850
    28  H    0.228631
    29  H    0.287991
    30  H    0.275451
    31  H    0.223302
    32  N    0.487055
    33  O   -0.460334
    34  O   -0.461087
 Sum of Mulliken charges =  -0.00000

 Dipole moment (field-independent basis, Debye):
    X=             -1.6216    Y=              4.8361    Z=             -0.0452  Tot=              5.1010
 Quadrupole moment (field-independent basis, Debye-Ang):
   XX=            -79.9416   YY=           -101.6438   ZZ=            -95.0967
   XY=            -10.5054   XZ=             -0.8717   YZ=             -0.9395

 Normal termination of Gaussian 16 at Wed May  5 23:23:35 2021.
