 Gaussian 16, Revision A.03,
 Gaussian 16:  EM64L-G16RevA.03 25-Dec-2016

 -------------
 #p 6-31g* mp2
 -------------

 ------------------------------------------------------
 Input file generated by CHIRIPA (05-May-2021 14:53:14)
 ------------------------------------------------------
 Symbolic Z-matrix:
 Charge =  0 Multiplicity = 1

                         Standard orientation:
 ---------------------------------------------------------------------
 Center     Atomic      Atomic             Coordinates (Angstroms)
 Number     Number       Type             X           Y           Z
 ---------------------------------------------------------------------
      1          6           0       -5.910852   -0.324368   -0.353776
      2          6           0       -7.285964   -0.349310    0.314379
      3          6           0       -8.284023   -1.244807   -0.420301
      4          1           0       -6.020474    0.020379   -1.391117
      5          1           0       -5.517098   -1.348938   -0.404859
      6          1           0       -7.676402    0.675174    0.365435
      7          1           0       -7.173030   -0.693855    1.350309
      8          1           0       -7.919915   -2.276564   -0.459075
      9          1           0       -8.426147   -0.899757   -1.449544
     10          1           0       -9.260337   -1.247947    0.074332
     11          6           0       -4.902149    0.566540    0.369086
     12          6           0       -3.527038    0.591482   -0.299069
     13          6           0       -2.528978    1.486979    0.435611
     14          1           0       -5.295903    1.591110    0.420169
     15          1           0       -4.792527    0.221793    1.406427
     16          1           0       -3.639971    0.936027   -1.334999
     17          1           0       -3.136599   -0.433002   -0.350125
     18          1           0       -2.386854    1.141929    1.464854
     19          1           0       -2.893087    2.518736    0.474385
     20          1           0       -1.552664    1.490119   -0.059022
     21          6           0        1.771017    0.485585    0.108143
     22          6           0        2.189490   -0.831679    0.323127
     23          6           0        3.545960   -1.164607    0.262337
     24          6           0        4.460958   -0.150688   -0.017013
     25          6           0        4.075218    1.170905   -0.235844
     26          6           0        2.713554    1.480917   -0.170165
     27          1           0        0.715261    0.735311    0.157265
     28          1           0        1.459729   -1.606725    0.539455
     29          1           0        3.897453   -2.176298    0.424679
     30          1           0        4.826143    1.921831   -0.449479
     31          1           0        2.391448    2.504770   -0.337554
     32          7           0        5.899740   -0.491015   -0.083957
     33          8           0        6.686045    0.420551   -0.331764
     34          8           0        6.213910   -1.662886    0.112647
 ---------------------------------------------------------------------

 SCF Done:  E(RHF) =  -669.535545377     A.U. after   15 cycles
 E2 =    -0.2090617976D+01 EUMP2 =    -0.67162616335256D+03

 The electronic state is 1-A.
 Alpha  occ. eigenvalues --  -20.60724 -20.60719 -15.85778 -11.31134 -11.27707
 Alpha  occ. eigenvalues --  -11.27703 -11.27412 -11.26715 -11.26704 -11.22577
 Alpha  occ. eigenvalues --  -11.22341 -11.22148 -11.22109 -11.21984 -11.21496
 Alpha  occ. eigenvalues --   -1.59800  -1.39354  -1.19306  -1.09161  -1.08699
 Alpha  occ. eigenvalues --   -1.04710  -1.04302  -0.96769  -0.95537  -0.87789
 Alpha  occ. eigenvalues --   -0.86106  -0.82373  -0.80370  -0.78928  -0.77421
 Alpha  occ. eigenvalues --   -0.71996  -0.71123  -0.70430  -0.65785  -0.64957
 Alpha  occ. eigenvalues --   -0.64717  -0.62060  -0.61688  -0.60216  -0.58370
 Alpha  occ. eigenvalues --   -0.56044  -0.55248  -0.53440  -0.53167  -0.53038
 Alpha  occ. eigenvalues --   -0.52801  -0.50689  -0.48759  -0.48751  -0.48676
 Alpha  occ. eigenvalues --   -0.47384  -0.46480  -0.46377  -0.44761  -0.44548
 Alpha  occ. eigenvalues --   -0.37280  -0.36318
 Alpha virt. eigenvalues --    0.05115   0.11338   0.16604   0.19779   0.22392
 Alpha virt. eigenvalues --    0.23701   0.25926   0.25992   0.26813   0.27343
 Alpha virt. eigenvalues --    0.28589   0.30419   0.30681   0.31383   0.32451

 Mulliken charges:
               1
     1  C   -0.298792
     2  C   -0.300187
     3  C   -0.476078
     4  H    0.150825
     5  H    0.149833
     6  H    0.152783
     7  H    0.152505
     8  H    0.155623
     9  H    0.155874
    10  H    0.161771
    11  C   -0.299274
    12  C   -0.299033
    13  C   -0.482241
    14  H    0.151412
    15  H    0.150556
    16  H    0.154900
    17  H    0.150706
    18  H    0.157233
    19  H    0.161239
    20  H    0.152015
    21  C   -0.178063
    22  C   -0.221489
    23  C   -0.170670
    24  C    0.158197
    25  C   -0.170760
    26  C   -0.221664
    27  H    0.238032
    28  H    0.223651
    29  H    0.275336
    30  H    0.275440
    31  H    0.223505
    32  N    0.487999
    33  O   -0.460575
    34  O   -0.460608
 Sum of Mulliken charges =  -0.00000

 Dipole moment (field-independent basis, Debye):
    X=             -5.3478    Y=              1.2151    Z=              0.2431  Tot=              5.4895
 Quadrupole moment (field-independent basis, Debye-Ang):
   XX=           -139.9929   YY=            -90.2610   ZZ=            -95.2687
   XY=              6.5252   XZ=              0.7075   YZ=             -1.9112

 Normal termination of Gaussian 16 at Wed May  5 18:37:48 2021.
