 Gaussian 16, Revision A.03,
 Gaussian 16:  EM64L-G16RevA.03 25-Dec-2016

 -------------
 #p 6-31g* mp2
 -------------

 ------------------------------------------------------
 Input file generated by CHIRIPA (05-May-2021 14:51:11)
 ------------------------------------------------------
 Symbolic Z-matrix:
 Charge =  0 Multiplicity = 1

                         Standard orientation:
 ---------------------------------------------------------------------
 Center     Atomic      Atomic             Coordinates (Angstroms)
 Number     Number       Type             X           Y           Z
 ---------------------------------------------------------------------
      1          6           0        3.974186   -0.745024   -0.240551
      2          6           0        5.268163   -1.377071    0.273380
      3          6           0        5.271545   -2.901022    0.149459
      4          1           0        3.123745   -1.161508    0.316438
      5          1           0        3.828199   -1.028650   -1.292044
      6          1           0        5.412378   -1.091204    1.323188
      7          1           0        6.115639   -0.958892   -0.284766
      8          1           0        5.152378   -3.202769   -0.896174
      9          1           0        4.445121   -3.335833    0.720916
     10          1           0        6.205792   -3.332081    0.522595
     11          6           0        3.955688    0.778013   -0.123316
     12          6           0        2.661711    1.410060   -0.637246
     13          6           0        2.658328    2.934011   -0.513326
     14          1           0        4.101675    1.061639    0.928178
     15          1           0        4.806129    1.194498   -0.680304
     16          1           0        1.814235    0.991881   -0.079101
     17          1           0        2.517496    1.124194   -1.687055
     18          1           0        3.484753    3.368822   -1.084783
     19          1           0        2.777495    3.235758    0.532307
     20          1           0        1.724081    3.365070   -0.886462
     21          6           0       -4.439985   -0.293876   -0.347992
     22          6           0       -5.762353   -0.800612    0.228674
     23          6           0       -6.702106   -1.352456   -0.843766
     24          1           0       -4.647247    0.486666   -1.092803
     25          1           0       -3.943749   -1.114251   -0.884768
     26          1           0       -6.255291    0.020103    0.765379
     27          1           0       -5.551911   -1.579905    0.972337
     28          1           0       -6.233799   -2.188552   -1.373137
     29          1           0       -6.941176   -0.579453   -1.581271
     30          1           0       -7.641305   -1.709178   -0.409584
     31          6           0       -3.489889    0.260886    0.711859
     32          6           0       -2.167521    0.767624    0.135193
     33          6           0       -1.227767    1.319466    1.207633
     34          1           0       -3.986125    1.081262    1.248635
     35          1           0       -3.282626   -0.519655    1.456669
     36          1           0       -2.377963    1.546915   -0.608470
     37          1           0       -1.674582   -0.053093   -0.401513
     38          1           0       -0.988697    0.546464    1.945138
     39          1           0       -1.696075    2.155562    1.737004
     40          1           0       -0.288569    1.676188    0.773450
 ---------------------------------------------------------------------

 SCF Done:  E(RHF) =  -470.733265848     A.U. after   11 cycles
 E2 =    -0.1582507121D+01 EUMP2 =    -0.47231577296909D+03

 The electronic state is 1-A.
 Alpha  occ. eigenvalues --  -11.21603 -11.21601 -11.21600 -11.21583 -11.21405
 Alpha  occ. eigenvalues --  -11.21401 -11.21345 -11.21341 -11.21084 -11.21073
 Alpha  occ. eigenvalues --  -11.21071 -11.21057  -1.08438  -1.08420  -1.03559
 Alpha  occ. eigenvalues --   -1.03506  -0.96013  -0.95954  -0.87003  -0.86995
 Alpha  occ. eigenvalues --   -0.79627  -0.79563  -0.78243  -0.78241  -0.65082
 Alpha  occ. eigenvalues --   -0.65049  -0.60999  -0.60912  -0.59503  -0.59205
 Alpha  occ. eigenvalues --   -0.57715  -0.57457  -0.55280  -0.55258  -0.52729
 Alpha  occ. eigenvalues --   -0.52627  -0.52415  -0.52392  -0.49947  -0.49896
 Alpha  occ. eigenvalues --   -0.47979  -0.47852  -0.46641  -0.46595  -0.45789
 Alpha  occ. eigenvalues --   -0.45776  -0.45710  -0.45699  -0.43796  -0.43742
 Alpha virt. eigenvalues --    0.21407   0.23070   0.23466   0.24962   0.26486
 Alpha virt. eigenvalues --    0.26674   0.27118   0.27549   0.27604   0.28803
 Alpha virt. eigenvalues --    0.31029   0.31403   0.31503   0.31767   0.31968

 Mulliken charges:
               1
     1  C   -0.298421
     2  C   -0.299664
     3  C   -0.475703
     4  H    0.149770
     5  H    0.149460
     6  H    0.151999
     7  H    0.151955
     8  H    0.155148
     9  H    0.155098
    10  H    0.160267
    11  C   -0.297653
    12  C   -0.306406
    13  C   -0.476370
    14  H    0.149663
    15  H    0.149586
    16  H    0.157580
    17  H    0.152021
    18  H    0.155487
    19  H    0.155610
    20  H    0.160374
    21  C   -0.298276
    22  C   -0.299652
    23  C   -0.475708
    24  H    0.149655
    25  H    0.149578
    26  H    0.151924
    27  H    0.151915
    28  H    0.155198
    29  H    0.155183
    30  H    0.160247
    31  C   -0.298267
    32  C   -0.299534
    33  C   -0.483537
    34  H    0.149572
    35  H    0.149534
    36  H    0.151878
    37  H    0.152325
    38  H    0.154326
    39  H    0.155331
    40  H    0.168508
 Sum of Mulliken charges =  -0.00000

 Dipole moment (field-independent basis, Debye):
    X=              0.0062    Y=              0.0064    Z=             -0.0030  Tot=              0.0094
 Quadrupole moment (field-independent basis, Debye-Ang):
   XX=            -85.1306   YY=            -85.3018   ZZ=            -84.3458
   XY=             -0.5158   XZ=             -0.8265   YZ=             -0.5014

 Normal termination of Gaussian 16 at Wed May  5 19:49:42 2021.
