 Gaussian 16, Revision A.03,
 Gaussian 16:  EM64L-G16RevA.03 25-Dec-2016

 -------------
 #p 6-31g* mp2
 -------------

 ------------------------------------------------------
 Input file generated by CHIRIPA (05-May-2021 14:53:12)
 ------------------------------------------------------
 Symbolic Z-matrix:
 Charge =  0 Multiplicity = 1

                         Standard orientation:
 ---------------------------------------------------------------------
 Center     Atomic      Atomic             Coordinates (Angstroms)
 Number     Number       Type             X           Y           Z
 ---------------------------------------------------------------------
      1          6           0       -3.911142    0.845437   -0.344781
      2          6           0       -2.936585    2.009384   -0.161892
      3          6           0       -3.549502    3.358414   -0.539045
      4          1           0       -4.247093    0.817665   -1.390396
      5          1           0       -4.806208    1.026270    0.266407
      6          1           0       -2.043025    1.825740   -0.772172
      7          1           0       -2.602767    2.034271    0.883365
      8          1           0       -4.429313    3.567804    0.077957
      9          1           0       -3.866391    3.358087   -1.586987
     10          1           0       -2.835656    4.176431   -0.400729
     11          6           0       -3.312962   -0.509853    0.028177
     12          6           0       -4.287519   -1.673801   -0.154713
     13          6           0       -3.674602   -3.022831    0.222440
     14          1           0       -2.417896   -0.690686   -0.583011
     15          1           0       -2.977011   -0.482082    1.073792
     16          1           0       -4.621337   -1.698688   -1.199970
     17          1           0       -5.181079   -1.490156    0.455567
     18          1           0       -3.357713   -3.022504    1.270383
     19          1           0       -2.794791   -3.232220   -0.394561
     20          1           0       -4.388448   -3.840848    0.084124
     21          6           0        0.440056   -0.480116    0.879217
     22          6           0        1.264901    0.422265    1.558819
     23          6           0        2.586279    0.623639    1.148995
     24          6           0        3.052185   -0.097345    0.050631
     25          6           0        2.254979   -1.003420   -0.647066
     26          6           0        0.936852   -1.188830   -0.219619
     27          1           0       -0.585160   -0.630348    1.204424
     28          1           0        0.881771    0.974037    2.412520
     29          1           0        3.246561    1.316048    1.656949
     30          1           0        2.665228   -1.538956   -1.494600
     31          1           0        0.298541   -1.890280   -0.749311
     32          7           0        4.449349    0.107391   -0.392560
     33          8           0        4.835898   -0.540036   -1.363156
     34          8           0        5.131440    0.911413    0.239054
 ---------------------------------------------------------------------

 SCF Done:  E(RHF) =  -669.535196739     A.U. after   15 cycles
 E2 =    -0.2092550235D+01 EUMP2 =    -0.67162774697354D+03

 The electronic state is 1-A.
 Alpha  occ. eigenvalues --  -20.60694 -20.60689 -15.85749 -11.31086 -11.27671
 Alpha  occ. eigenvalues --  -11.27664 -11.27292 -11.26656 -11.26638 -11.22712
 Alpha  occ. eigenvalues --  -11.22636 -11.22448 -11.22328 -11.22167 -11.21720
 Alpha  occ. eigenvalues --   -1.59771  -1.39325  -1.19258  -1.09495  -1.08641
 Alpha  occ. eigenvalues --   -1.04664  -1.04476  -0.96948  -0.95486  -0.87954
 Alpha  occ. eigenvalues --   -0.86057  -0.82336  -0.80562  -0.79363  -0.77385
 Alpha  occ. eigenvalues --   -0.71966  -0.71095  -0.70333  -0.66117  -0.64903
 Alpha  occ. eigenvalues --   -0.64671  -0.62025  -0.61853  -0.60312  -0.58580
 Alpha  occ. eigenvalues --   -0.56242  -0.55176  -0.53574  -0.53337  -0.52984
 Alpha  occ. eigenvalues --   -0.52753  -0.50880  -0.48863  -0.48725  -0.48721
 Alpha  occ. eigenvalues --   -0.47596  -0.46805  -0.46761  -0.44765  -0.44738
 Alpha  occ. eigenvalues --   -0.37194  -0.36278
 Alpha virt. eigenvalues --    0.05143   0.11310   0.16603   0.19486   0.22575
 Alpha virt. eigenvalues --    0.22957   0.24076   0.25884   0.26953   0.28146
 Alpha virt. eigenvalues --    0.29367   0.30095   0.30848   0.31440   0.31638

 Mulliken charges:
               1
     1  C   -0.297655
     2  C   -0.301703
     3  C   -0.476305
     4  H    0.153682
     5  H    0.152468
     6  H    0.156059
     7  H    0.146513
     8  H    0.156210
     9  H    0.157617
    10  H    0.163003
    11  C   -0.306181
    12  C   -0.299331
    13  C   -0.477404
    14  H    0.148301
    15  H    0.143687
    16  H    0.156161
    17  H    0.156014
    18  H    0.154387
    19  H    0.150385
    20  H    0.166509
    21  C   -0.172195
    22  C   -0.221466
    23  C   -0.170697
    24  C    0.157864
    25  C   -0.170825
    26  C   -0.224613
    27  H    0.236569
    28  H    0.222902
    29  H    0.275127
    30  H    0.275116
    31  H    0.223361
    32  N    0.488089
    33  O   -0.460861
    34  O   -0.460784
 Sum of Mulliken charges =  -0.00000

 Dipole moment (field-independent basis, Debye):
    X=             -5.2163    Y=             -0.6685    Z=              1.4923  Tot=              5.4666
 Quadrupole moment (field-independent basis, Debye-Ang):
   XX=           -124.4781   YY=            -93.5611   ZZ=            -91.4035
   XY=             -0.8866   XZ=              4.9877   YZ=              2.9318

 Normal termination of Gaussian 16 at Thu May  6 10:24:07 2021.
