 Gaussian 16, Revision A.03,
 Gaussian 16:  EM64L-G16RevA.03 25-Dec-2016

 -------------
 #p 6-31g* mp2
 -------------

 ------------------------------------------------------
 Input file generated by CHIRIPA (05-May-2021 14:51:12)
 ------------------------------------------------------
 Symbolic Z-matrix:
 Charge =  0 Multiplicity = 1

                         Standard orientation:
 ---------------------------------------------------------------------
 Center     Atomic      Atomic             Coordinates (Angstroms)
 Number     Number       Type             X           Y           Z
 ---------------------------------------------------------------------
      1          6           0       -3.437919   -0.278538   -0.414494
      2          6           0       -4.640254    0.512583    0.101745
      3          6           0       -5.507457    1.073029   -1.025931
      4          1           0       -2.829370    0.370470   -1.059009
      5          1           0       -3.794581   -1.102407   -1.048077
      6          1           0       -4.281495    1.333882    0.735287
      7          1           0       -5.245909   -0.138329    0.745260
      8          1           0       -5.893210    0.263473   -1.653955
      9          1           0       -4.923316    1.744049   -1.663985
     10          1           0       -6.361192    1.634945   -0.634461
     11          6           0       -2.561381   -0.845183    0.700998
     12          6           0       -1.359046   -1.636304    0.184759
     13          6           0       -0.491843   -2.196751    1.312435
     14          1           0       -2.204719   -0.021314    1.334581
     15          1           0       -3.169931   -1.494192    1.345513
     16          1           0       -0.753391   -0.985392   -0.458756
     17          1           0       -1.717805   -2.457604   -0.448783
     18          1           0       -1.075984   -2.867770    1.950489
     19          1           0       -0.106091   -1.387194    1.940459
     20          1           0        0.361891   -2.758666    0.920965
     21          6           0        3.259709    0.033797   -0.630027
     22          6           0        3.374551   -1.358882   -0.009347
     23          6           0        3.896167   -2.404421   -0.995531
     24          1           0        2.593416   -0.014241   -1.502203
     25          1           0        4.244991    0.342426   -1.006007
     26          1           0        2.389635   -1.664216    0.366590
     27          1           0        4.040496   -1.307484    0.861567
     28          1           0        4.889529   -2.126302   -1.362248
     29          1           0        3.229289   -2.485060   -1.860037
     30          1           0        3.970427   -3.392630   -0.531000
     31          6           0        2.739592    1.089925    0.343523
     32          6           0        2.624749    2.482603   -0.277157
     33          6           0        2.103133    3.528143    0.709027
     34          1           0        1.754310    0.781296    0.719503
     35          1           0        3.405885    1.137963    1.215700
     36          1           0        1.958804    2.431205   -1.148072
     37          1           0        3.609665    2.787937   -0.653094
     38          1           0        2.770011    3.608782    1.573533
     39          1           0        1.109771    3.250023    1.075744
     40          1           0        2.028873    4.516351    0.244496
 ---------------------------------------------------------------------

 SCF Done:  E(RHF) =  -470.733134891     A.U. after   11 cycles
 E2 =    -0.1583256571D+01 EUMP2 =    -0.47231639146252D+03

 The electronic state is 1-A.
 Alpha  occ. eigenvalues --  -11.21691 -11.21639 -11.21623 -11.21510 -11.21466
 Alpha  occ. eigenvalues --  -11.21406 -11.21404 -11.21340 -11.21140 -11.21102
 Alpha  occ. eigenvalues --  -11.21100 -11.21046  -1.08496  -1.08419  -1.03601
 Alpha  occ. eigenvalues --   -1.03513  -0.96044  -0.95976  -0.87069  -0.86984
 Alpha  occ. eigenvalues --   -0.79681  -0.79559  -0.78303  -0.78235  -0.65212
 Alpha  occ. eigenvalues --   -0.64985  -0.61049  -0.60903  -0.59473  -0.59275
 Alpha  occ. eigenvalues --   -0.57689  -0.57544  -0.55339  -0.55260  -0.52776
 Alpha  occ. eigenvalues --   -0.52656  -0.52480  -0.52381  -0.49998  -0.49904
 Alpha  occ. eigenvalues --   -0.48027  -0.47846  -0.46716  -0.46570  -0.45862
 Alpha  occ. eigenvalues --   -0.45774  -0.45756  -0.45660  -0.43825  -0.43761
 Alpha virt. eigenvalues --    0.19812   0.23214   0.23840   0.24376   0.26149
 Alpha virt. eigenvalues --    0.26790   0.27069   0.27542   0.27856   0.29511
 Alpha virt. eigenvalues --    0.30500   0.31534   0.31622   0.31857   0.32167

 Mulliken charges:
               1
     1  C   -0.298318
     2  C   -0.299720
     3  C   -0.475750
     4  H    0.149481
     5  H    0.149711
     6  H    0.152026
     7  H    0.152082
     8  H    0.155239
     9  H    0.155228
    10  H    0.160436
    11  C   -0.298367
    12  C   -0.301467
    13  C   -0.480386
    14  H    0.149373
    15  H    0.150154
    16  H    0.152161
    17  H    0.152496
    18  H    0.156160
    19  H    0.156440
    20  H    0.163658
    21  C   -0.297476
    22  C   -0.309201
    23  C   -0.475614
    24  H    0.149113
    25  H    0.149415
    26  H    0.162617
    27  H    0.151562
    28  H    0.155165
    29  H    0.154887
    30  H    0.159831
    31  C   -0.300584
    32  C   -0.299569
    33  C   -0.475581
    34  H    0.150898
    35  H    0.149860
    36  H    0.151568
    37  H    0.152226
    38  H    0.155385
    39  H    0.154509
    40  H    0.160352
 Sum of Mulliken charges =  -0.00000

 Dipole moment (field-independent basis, Debye):
    X=             -0.0321    Y=             -0.0190    Z=              0.0193  Tot=              0.0420
 Quadrupole moment (field-independent basis, Debye-Ang):
   XX=            -84.2197   YY=            -84.9491   ZZ=            -85.5604
   XY=              1.4006   XZ=              0.0225   YZ=             -0.1708

 Normal termination of Gaussian 16 at Wed May  5 15:17:21 2021.
