 Gaussian 16, Revision A.03,
 Gaussian 16:  EM64L-G16RevA.03 25-Dec-2016

 -------------
 #p 6-31g* mp2
 -------------

 ------------------------------------------------------
 Input file generated by CHIRIPA (05-May-2021 14:53:16)
 ------------------------------------------------------
 Symbolic Z-matrix:
 Charge =  0 Multiplicity = 1

                         Standard orientation:
 ---------------------------------------------------------------------
 Center     Atomic      Atomic             Coordinates (Angstroms)
 Number     Number       Type             X           Y           Z
 ---------------------------------------------------------------------
      1          6           0       -4.787214   -0.303208   -0.235937
      2          6           0       -5.370913    1.109263   -0.282931
      3          6           0       -6.686361    1.179777   -1.059087
      4          1           0       -4.628777   -0.661946   -1.262167
      5          1           0       -5.521098   -0.980653    0.222188
      6          1           0       -4.635603    1.784107   -0.739571
      7          1           0       -5.527800    1.464754    0.743533
      8          1           0       -7.438916    0.529405   -0.601619
      9          1           0       -6.541649    0.850572   -2.093149
     10          1           0       -7.085972    2.198466   -1.080132
     11          6           0       -3.472109   -0.389857    0.536539
     12          6           0       -2.888410   -1.802327    0.583533
     13          6           0       -1.572962   -1.872841    1.359689
     14          1           0       -2.738225    0.287588    0.078414
     15          1           0       -3.630546   -0.031118    1.562770
     16          1           0       -2.731523   -2.157818   -0.442931
     17          1           0       -3.623720   -2.477172    1.040173
     18          1           0       -1.717674   -1.543637    2.393751
     19          1           0       -0.820407   -1.222469    0.902221
     20          1           0       -1.173351   -2.891530    1.380734
     21          6           0        3.786836   -2.107808   -0.745343
     22          6           0        2.457234   -1.739331   -0.515338
     23          6           0        2.135014   -0.424307   -0.166864
     24          6           0        3.172108    0.500676   -0.056718
     25          6           0        4.506457    0.164311   -0.279561
     26          6           0        4.805408   -1.156488   -0.626929
     27          1           0        4.028107   -3.131594   -1.015617
     28          1           0        1.664137   -2.476026   -0.606576
     29          1           0        1.114180   -0.111905    0.016772
     30          1           0        5.275356    0.920944   -0.180977
     31          1           0        5.838886   -1.439809   -0.804971
     32          7           0        2.843304    1.895891    0.311612
     33          8           0        3.775304    2.692009    0.402205
     34          8           0        1.659814    2.166922    0.502739
 ---------------------------------------------------------------------

 SCF Done:  E(RHF) =  -669.535442810     A.U. after   15 cycles
 E2 =    -0.2091151097D+01 EUMP2 =    -0.67162659390663D+03

 The electronic state is 1-A.
 Alpha  occ. eigenvalues --  -20.60752 -20.60747 -15.85803 -11.31159 -11.27729
 Alpha  occ. eigenvalues --  -11.27716 -11.27471 -11.26748 -11.26725 -11.21983
 Alpha  occ. eigenvalues --  -11.21698 -11.21547 -11.21512 -11.21426 -11.21018
 Alpha  occ. eigenvalues --   -1.59826  -1.39380  -1.19332  -1.08729  -1.08577
 Alpha  occ. eigenvalues --   -1.04736  -1.03730  -0.96192  -0.95566  -0.87215
 Alpha  occ. eigenvalues --   -0.86134  -0.82398  -0.79794  -0.78346  -0.77446
 Alpha  occ. eigenvalues --   -0.72023  -0.71148  -0.70456  -0.65219  -0.64983
 Alpha  occ. eigenvalues --   -0.64740  -0.62145  -0.61096  -0.59575  -0.57778
 Alpha  occ. eigenvalues --   -0.55526  -0.55201  -0.53070  -0.52909  -0.52875
 Alpha  occ. eigenvalues --   -0.52550  -0.50137  -0.48780  -0.48777  -0.48100
 Alpha  occ. eigenvalues --   -0.46815  -0.45897  -0.45798  -0.44787  -0.43961
 Alpha  occ. eigenvalues --   -0.37315  -0.36332
 Alpha virt. eigenvalues --    0.05080   0.11311   0.16568   0.19809   0.22911
 Alpha virt. eigenvalues --    0.23885   0.25541   0.26840   0.27089   0.28079
 Alpha virt. eigenvalues --    0.29283   0.30315   0.31464   0.31585   0.31924

 Mulliken charges:
               1
     1  C   -0.298529
     2  C   -0.300352
     3  C   -0.475882
     4  H    0.148655
     5  H    0.149102
     6  H    0.154993
     7  H    0.153227
     8  H    0.154528
     9  H    0.154663
    10  H    0.161457
    11  C   -0.299466
    12  C   -0.299691
    13  C   -0.479607
    14  H    0.152957
    15  H    0.152625
    16  H    0.149196
    17  H    0.153953
    18  H    0.162801
    19  H    0.148799
    20  H    0.156930
    21  C   -0.170884
    22  C   -0.220587
    23  C   -0.178676
    24  C    0.160588
    25  C   -0.170633
    26  C   -0.218699
    27  H    0.225497
    28  H    0.224862
    29  H    0.282575
    30  H    0.275497
    31  H    0.223354
    32  N    0.487689
    33  O   -0.460448
    34  O   -0.460494
 Sum of Mulliken charges =  -0.00000

 Dipole moment (field-independent basis, Debye):
    X=              1.0497    Y=             -4.8713    Z=             -1.2477  Tot=              5.1370
 Quadrupole moment (field-independent basis, Debye-Ang):
   XX=            -82.9424   YY=           -100.1165   ZZ=            -94.9052
   XY=            -13.7382   XZ=             -5.6594   YZ=             -0.4750

 Normal termination of Gaussian 16 at Wed May  5 21:59:20 2021.
