 Gaussian 16, Revision A.03,
 Gaussian 16:  EM64L-G16RevA.03 25-Dec-2016

 -------------
 #p 6-31g* mp2
 -------------

 ------------------------------------------------------
 Input file generated by CHIRIPA (05-May-2021 14:57:23)
 ------------------------------------------------------
 Symbolic Z-matrix:
 Charge =  0 Multiplicity = 1

                         Standard orientation:
 ---------------------------------------------------------------------
 Center     Atomic      Atomic             Coordinates (Angstroms)
 Number     Number       Type             X           Y           Z
 ---------------------------------------------------------------------
      1          6           0       -1.739588   -1.260166   -0.141990
      2          6           0       -2.416019   -0.848475   -1.295017
      3          6           0       -3.641684   -0.182751   -1.199600
      4          6           0       -4.164257    0.055928    0.070534
      5          6           0       -3.514366   -0.341798    1.237901
      6          6           0       -2.289950   -1.005962    1.118567
      7          1           0       -0.787947   -1.776711   -0.225401
      8          1           0       -1.990984   -1.044544   -2.275296
      9          1           0       -4.186579    0.146954   -2.075844
     10          1           0       -3.963173   -0.132128    2.201243
     11          1           0       -1.766850   -1.324535    2.015741
     12          7           0       -5.461152    0.759875    0.184207
     13          8           0       -5.900339    0.958146    1.314889
     14          8           0       -6.013915    1.100027   -0.859529
     15          6           0        2.943491   -2.247197   -0.219885
     16          6           0        4.107774   -2.044392    0.528336
     17          6           0        4.674519   -0.770292    0.628421
     18          6           0        4.047868    0.283150   -0.035549
     19          6           0        2.887188    0.113029   -0.788657
     20          6           0        2.337981   -1.169740   -0.874839
     21          1           0        2.510040   -3.240315   -0.292234
     22          1           0        4.580182   -2.879305    1.038037
     23          1           0        5.575273   -0.585107    1.200930
     24          1           0        2.439041    0.964856   -1.285619
     25          1           0        1.433720   -1.324286   -1.456623
     26          7           0        4.638573    1.636571    0.063048
     27          8           0        4.067266    2.548154   -0.531312
     28          8           0        5.661688    1.760172    0.732820
 ---------------------------------------------------------------------

 SCF Done:  E(RHF) =  -868.336462730     A.U. after   16 cycles
 E2 =    -0.2599953136D+01 EUMP2 =    -0.87093641586654D+03

 The electronic state is 1-A.
 Alpha  occ. eigenvalues --  -20.61355 -20.61350 -20.61097 -20.61091 -15.86417
 Alpha  occ. eigenvalues --  -15.86155 -11.31964 -11.31651 -11.28601 -11.28542
 Alpha  occ. eigenvalues --  -11.28414 -11.28247 -11.28212 -11.28097 -11.27739
 Alpha  occ. eigenvalues --  -11.27582 -11.27360 -11.27282  -1.60427  -1.60169
 Alpha  occ. eigenvalues --   -1.39975  -1.39718  -1.20179  -1.19849  -1.09553
 Alpha  occ. eigenvalues --   -1.09243  -1.05613  -1.05268  -0.96344  -0.96052
 Alpha  occ. eigenvalues --   -0.87017  -0.86675  -0.83176  -0.82871  -0.78182
 Alpha  occ. eigenvalues --   -0.77877  -0.72632  -0.72372  -0.71754  -0.71492
 Alpha  occ. eigenvalues --   -0.71302  -0.71033  -0.65837  -0.65673  -0.65507
 Alpha  occ. eigenvalues --   -0.65272  -0.62955  -0.62607  -0.56161  -0.55852
 Alpha  occ. eigenvalues --   -0.53917  -0.53714  -0.53569  -0.53373  -0.49407
 Alpha  occ. eigenvalues --   -0.49373  -0.49143  -0.49117  -0.45340  -0.45094
 Alpha  occ. eigenvalues --   -0.38198  -0.37874  -0.37196  -0.36860
 Alpha virt. eigenvalues --    0.04361   0.04656   0.10288   0.10765   0.15741
 Alpha virt. eigenvalues --    0.16137   0.18506   0.21860   0.25125   0.26507
 Alpha virt. eigenvalues --    0.27446   0.28875   0.30434   0.30511   0.31884

 Mulliken charges:
               1
     1  C   -0.171980
     2  C   -0.219765
     3  C   -0.169644
     4  C    0.159287
     5  C   -0.169839
     6  C   -0.218059
     7  H    0.218229
     8  H    0.219666
     9  H    0.277329
    10  H    0.277696
    11  H    0.225037
    12  N    0.488004
    13  O   -0.458674
    14  O   -0.459096
    15  C   -0.173156
    16  C   -0.218322
    17  C   -0.169396
    18  C    0.158822
    19  C   -0.169217
    20  C   -0.221394
    21  H    0.224426
    22  H    0.226018
    23  H    0.278484
    24  H    0.278374
    25  H    0.215552
    26  N    0.487979
    27  O   -0.458161
    28  O   -0.458199
 Sum of Mulliken charges =  -0.00000

 Dipole moment (field-independent basis, Debye):
    X=              2.5694    Y=             -7.0934    Z=             -0.6227  Tot=              7.5701
 Quadrupole moment (field-independent basis, Debye-Ang):
   XX=           -156.3176   YY=           -108.5777   ZZ=            -98.6864
   XY=            -10.9588   XZ=              3.4607   YZ=             -1.9183

 Normal termination of Gaussian 16 at Thu May  6 00:11:56 2021.
