 Gaussian 16, Revision A.03,
 Gaussian 16:  EM64L-G16RevA.03 25-Dec-2016

 -------------
 #p 6-31g* mp2
 -------------

 ------------------------------------------------------
 Input file generated by CHIRIPA (05-May-2021 14:51:08)
 ------------------------------------------------------
 Symbolic Z-matrix:
 Charge =  0 Multiplicity = 1

                         Standard orientation:
 ---------------------------------------------------------------------
 Center     Atomic      Atomic             Coordinates (Angstroms)
 Number     Number       Type             X           Y           Z
 ---------------------------------------------------------------------
      1          6           0       -2.591080    1.203579    0.308626
      2          6           0       -1.932735    2.491962   -0.185980
      3          6           0       -2.064825    3.643734    0.810899
      4          1           0       -3.653795    1.396210    0.509815
      5          1           0       -2.139015    0.913682    1.267266
      6          1           0       -2.384948    2.778589   -1.144085
      7          1           0       -0.871507    2.296193   -0.386198
      8          1           0       -1.597025    3.382456    1.765623
      9          1           0       -3.119064    3.867593    1.003430
     10          1           0       -1.587280    4.554873    0.437221
     11          6           0       -2.467409    0.043017   -0.677036
     12          6           0       -3.125755   -1.245366   -0.182429
     13          6           0       -2.993664   -2.397138   -1.179308
     14          1           0       -2.919474    0.332914   -1.635676
     15          1           0       -1.404695   -0.149614   -0.878225
     16          1           0       -4.186982   -1.049597    0.017788
     17          1           0       -2.673542   -1.531994    0.775675
     18          1           0       -1.939425   -2.620997   -1.371839
     19          1           0       -3.461465   -2.135860   -2.134032
     20          1           0       -3.471209   -3.308278   -0.805630
     21          6           0        2.119608   -0.941360    0.744978
     22          6           0        1.140663   -2.007159    0.251296
     23          6           0        0.328413   -2.634236    1.384794
     24          1           0        2.800480   -1.390654    1.480842
     25          1           0        1.560774   -0.157138    1.274219
     26          1           0        1.701024   -2.788439   -0.278057
     27          1           0        0.462166   -1.555323   -0.483620
     28          1           0       -0.255564   -1.870488    1.908494
     29          1           0        0.990332   -3.110610    2.115224
     30          1           0       -0.364939   -3.393373    1.009515
     31          6           0        2.938882   -0.305236   -0.376568
     32          6           0        3.917826    0.760563    0.117114
     33          6           0        4.730077    1.387640   -1.016384
     34          1           0        3.497715   -1.089458   -0.905809
     35          1           0        2.258011    0.144057   -1.112432
     36          1           0        4.596324    0.308727    0.852029
     37          1           0        3.357466    1.541843    0.646467
     38          1           0        4.068157    1.864015   -1.746815
     39          1           0        5.314053    0.623892   -1.540084
     40          1           0        5.423429    2.146778   -0.641105
 ---------------------------------------------------------------------

 SCF Done:  E(RHF) =  -470.732826517     A.U. after   11 cycles
 E2 =    -0.1584617274D+01 EUMP2 =    -0.47231744379115D+03

 The electronic state is 1-A.
 Alpha  occ. eigenvalues --  -11.21668 -11.21656 -11.21645 -11.21557 -11.21474
 Alpha  occ. eigenvalues --  -11.21436 -11.21413 -11.21366 -11.21138 -11.21114
 Alpha  occ. eigenvalues --  -11.21100 -11.21052  -1.08525  -1.08429  -1.03634
 Alpha  occ. eigenvalues --   -1.03504  -0.96056  -0.95983  -0.87057  -0.87014
 Alpha  occ. eigenvalues --   -0.79716  -0.79562  -0.78377  -0.78201  -0.65449
 Alpha  occ. eigenvalues --   -0.64833  -0.61277  -0.60681  -0.59383  -0.59360
 Alpha  occ. eigenvalues --   -0.57652  -0.57604  -0.55353  -0.55251  -0.52726
 Alpha  occ. eigenvalues --   -0.52684  -0.52476  -0.52411  -0.50022  -0.49932
 Alpha  occ. eigenvalues --   -0.48043  -0.47870  -0.47017  -0.46484  -0.46079
 Alpha  occ. eigenvalues --   -0.45861  -0.45701  -0.45276  -0.43839  -0.43802
 Alpha virt. eigenvalues --    0.19011   0.22414   0.23773   0.25019   0.25204
 Alpha virt. eigenvalues --    0.25987   0.26804   0.27911   0.29006   0.29880
 Alpha virt. eigenvalues --    0.30645   0.31356   0.31585   0.31949   0.32526

 Mulliken charges:
               1
     1  C   -0.298256
     2  C   -0.299737
     3  C   -0.475716
     4  H    0.150147
     5  H    0.148842
     6  H    0.152305
     7  H    0.151041
     8  H    0.155061
     9  H    0.155482
    10  H    0.160381
    11  C   -0.304381
    12  C   -0.302702
    13  C   -0.478965
    14  H    0.149721
    15  H    0.154412
    16  H    0.151758
    17  H    0.157024
    18  H    0.158178
    19  H    0.154963
    20  H    0.160002
    21  C   -0.298444
    22  C   -0.307785
    23  C   -0.478420
    24  H    0.150222
    25  H    0.149136
    26  H    0.152663
    27  H    0.158574
    28  H    0.155662
    29  H    0.155629
    30  H    0.162917
    31  C   -0.298590
    32  C   -0.299709
    33  C   -0.475779
    34  H    0.149943
    35  H    0.149282
    36  H    0.152126
    37  H    0.151933
    38  H    0.155354
    39  H    0.155284
    40  H    0.160442
 Sum of Mulliken charges =  -0.00000

 Dipole moment (field-independent basis, Debye):
    X=              0.0148    Y=             -0.0172    Z=              0.0060  Tot=              0.0235
 Quadrupole moment (field-independent basis, Debye-Ang):
   XX=            -83.8788   YY=            -85.2838   ZZ=            -85.4722
   XY=             -1.1530   XZ=              0.9240   YZ=             -0.4265

 Normal termination of Gaussian 16 at Wed May  5 22:56:24 2021.
