 Gaussian 16, Revision A.03,
 Gaussian 16:  EM64L-G16RevA.03 25-Dec-2016

 -------------
 #p 6-31g* mp2
 -------------

 ------------------------------------------------------
 Input file generated by CHIRIPA (05-May-2021 14:53:13)
 ------------------------------------------------------
 Symbolic Z-matrix:
 Charge =  0 Multiplicity = 1

                         Standard orientation:
 ---------------------------------------------------------------------
 Center     Atomic      Atomic             Coordinates (Angstroms)
 Number     Number       Type             X           Y           Z
 ---------------------------------------------------------------------
      1          6           0       -4.845377   -0.005635   -0.330986
      2          6           0       -5.407708   -1.310602    0.233664
      3          6           0       -6.509794   -1.907330   -0.642188
      4          1           0       -5.662064    0.720918   -0.440934
      5          1           0       -4.453067   -0.190080   -1.340673
      6          1           0       -5.797590   -1.124053    1.242528
      7          1           0       -4.589554   -2.034068    0.342460
      8          1           0       -6.130111   -2.121657   -1.646432
      9          1           0       -7.345010   -1.206472   -0.741249
     10          1           0       -6.897521   -2.839660   -0.219946
     11          6           0       -3.742721    0.603104    0.533488
     12          6           0       -3.180390    1.908071   -0.031162
     13          6           0       -2.078304    2.504799    0.844690
     14          1           0       -4.135031    0.787549    1.543175
     15          1           0       -2.926034   -0.123449    0.643436
     16          1           0       -3.998544    2.631537   -0.139957
     17          1           0       -2.790509    1.721522   -1.040026
     18          1           0       -1.243088    1.803941    0.943751
     19          1           0       -2.457987    2.719126    1.848934
     20          1           0       -1.690578    3.437129    0.422448
     21          6           0        0.837480   -0.096968   -0.182948
     22          6           0        1.617197    0.926773   -0.731143
     23          6           0        3.012771    0.861705   -0.679321
     24          6           0        3.598084   -0.246575   -0.069063
     25          6           0        2.848490   -1.282511    0.486125
     26          6           0        1.454527   -1.196404    0.422869
     27          1           0       -0.246010   -0.038249   -0.227646
     28          1           0        1.140715    1.781801   -1.202245
     29          1           0        3.640452    1.640170   -1.095767
     30          1           0        3.352187   -2.122290    0.949245
     31          1           0        0.851510   -1.992930    0.849437
     32          7           0        5.074663   -0.326596   -0.008149
     33          8           0        5.566080   -1.313592    0.534976
     34          8           0        5.712630    0.599195   -0.504683
 ---------------------------------------------------------------------

 SCF Done:  E(RHF) =  -669.535201232     A.U. after   15 cycles
 E2 =    -0.2091888732D+01 EUMP2 =    -0.67162708996358D+03

 The electronic state is 1-A.
 Alpha  occ. eigenvalues --  -20.60762 -20.60757 -15.85815 -11.31193 -11.27755
 Alpha  occ. eigenvalues --  -11.27748 -11.27479 -11.26778 -11.26765 -11.22699
 Alpha  occ. eigenvalues --  -11.22479 -11.22360 -11.22240 -11.22141 -11.21689
 Alpha  occ. eigenvalues --   -1.59837  -1.39390  -1.19362  -1.09397  -1.08758
 Alpha  occ. eigenvalues --   -1.04763  -1.04449  -0.96892  -0.95592  -0.87900
 Alpha  occ. eigenvalues --   -0.86159  -0.82425  -0.80511  -0.79187  -0.77464
 Alpha  occ. eigenvalues --   -0.72033  -0.71159  -0.70522  -0.66043  -0.65014
 Alpha  occ. eigenvalues --   -0.64763  -0.62118  -0.61846  -0.60266  -0.58491
 Alpha  occ. eigenvalues --   -0.56242  -0.55225  -0.53560  -0.53320  -0.53065
 Alpha  occ. eigenvalues --   -0.52851  -0.50830  -0.48824  -0.48788  -0.48776
 Alpha  occ. eigenvalues --   -0.47561  -0.46721  -0.46645  -0.44793  -0.44703
 Alpha  occ. eigenvalues --   -0.37324  -0.36364
 Alpha virt. eigenvalues --    0.05028   0.11256   0.16414   0.18517   0.22681
 Alpha virt. eigenvalues --    0.23887   0.25065   0.26066   0.26804   0.27940
 Alpha virt. eigenvalues --    0.29527   0.30163   0.30914   0.31203   0.31528

 Mulliken charges:
               1
     1  C   -0.298696
     2  C   -0.299847
     3  C   -0.476234
     4  H    0.152996
     5  H    0.149208
     6  H    0.153813
     7  H    0.149873
     8  H    0.155775
     9  H    0.156826
    10  H    0.162330
    11  C   -0.299383
    12  C   -0.302462
    13  C   -0.481218
    14  H    0.154481
    15  H    0.140895
    16  H    0.157997
    17  H    0.147453
    18  H    0.151259
    19  H    0.161403
    20  H    0.162096
    21  C   -0.175163
    22  C   -0.219234
    23  C   -0.170847
    24  C    0.158662
    25  C   -0.170851
    26  C   -0.220315
    27  H    0.232228
    28  H    0.224905
    29  H    0.275671
    30  H    0.275631
    31  H    0.223423
    32  N    0.488026
    33  O   -0.460372
    34  O   -0.460327
 Sum of Mulliken charges =  -0.00000

 Dipole moment (field-independent basis, Debye):
    X=             -5.4104    Y=              0.3264    Z=             -0.1838  Tot=              5.4234
 Quadrupole moment (field-independent basis, Debye-Ang):
   XX=           -131.8146   YY=            -91.0119   ZZ=            -94.2284
   XY=              1.6955   XZ=             -1.5365   YZ=             -2.3388

 Normal termination of Gaussian 16 at Thu May  6 20:19:38 2021.
