 Gaussian 16, Revision A.03,
 Gaussian 16:  EM64L-G16RevA.03 25-Dec-2016

 -------------
 #p 6-31g* mp2
 -------------

 ------------------------------------------------------
 Input file generated by CHIRIPA (05-May-2021 14:53:17)
 ------------------------------------------------------
 Symbolic Z-matrix:
 Charge =  0 Multiplicity = 1

                         Standard orientation:
 ---------------------------------------------------------------------
 Center     Atomic      Atomic             Coordinates (Angstroms)
 Number     Number       Type             X           Y           Z
 ---------------------------------------------------------------------
      1          6           0       -3.791899    0.517221   -0.702863
      2          6           0       -2.719403    1.434240   -0.113953
      3          6           0       -2.049785    2.314675   -1.169528
      4          1           0       -3.338449   -0.116697   -1.477121
      5          1           0       -4.552263    1.130108   -1.206462
      6          1           0       -1.962013    0.819885    0.389578
      7          1           0       -3.175419    2.065915    0.659127
      8          1           0       -2.789330    2.951787   -1.665274
      9          1           0       -1.569029    1.698678   -1.936354
     10          1           0       -1.286519    2.962180   -0.726785
     11          6           0       -4.470411   -0.369140    0.340072
     12          6           0       -5.542906   -1.286159   -0.248838
     13          6           0       -6.212524   -2.166594    0.806738
     14          1           0       -3.710047   -0.982027    0.843671
     15          1           0       -4.923861    0.264778    1.114331
     16          1           0       -5.086891   -1.917834   -1.021918
     17          1           0       -6.300297   -0.671804   -0.752369
     18          1           0       -6.693280   -1.550597    1.573564
     19          1           0       -5.472980   -2.803706    1.302483
     20          1           0       -6.975790   -2.814099    0.363994
     21          6           0        1.541571    1.531260    1.140930
     22          6           0        2.516830    0.943638    1.953390
     23          6           0        3.455987    0.061685    1.410538
     24          6           0        3.390451   -0.211473    0.045115
     25          6           0        2.430876    0.358079   -0.790420
     26          6           0        1.501777    1.237123   -0.225972
     27          1           0        0.815917    2.215253    1.571019
     28          1           0        2.550128    1.170229    3.015272
     29          1           0        4.221677   -0.407271    2.016521
     30          1           0        2.422913    0.112810   -1.845502
     31          1           0        0.745496    1.692006   -0.859349
     32          7           0        4.379371   -1.143618   -0.541010
     33          8           0        4.300331   -1.367899   -1.746865
     34          8           0        5.214801   -1.632302    0.216539
 ---------------------------------------------------------------------

 SCF Done:  E(RHF) =  -669.535256435     A.U. after   15 cycles
 E2 =    -0.2091820395D+01 EUMP2 =    -0.67162707683028D+03

 The electronic state is 1-A.
 Alpha  occ. eigenvalues --  -20.60731 -20.60726 -15.85782 -11.31138 -11.27702
 Alpha  occ. eigenvalues --  -11.27680 -11.27431 -11.26722 -11.26613 -11.22597
 Alpha  occ. eigenvalues --  -11.22366 -11.22113 -11.22035 -11.21929 -11.21419
 Alpha  occ. eigenvalues --   -1.59807  -1.39361  -1.19301  -1.09135  -1.08698
 Alpha  occ. eigenvalues --   -1.04705  -1.04279  -0.96754  -0.95537  -0.87781
 Alpha  occ. eigenvalues --   -0.86092  -0.82368  -0.80360  -0.78887  -0.77421
 Alpha  occ. eigenvalues --   -0.72002  -0.71130  -0.70415  -0.65796  -0.64952
 Alpha  occ. eigenvalues --   -0.64738  -0.62187  -0.61562  -0.60126  -0.58324
 Alpha  occ. eigenvalues --   -0.56041  -0.55189  -0.53534  -0.53177  -0.53030
 Alpha  occ. eigenvalues --   -0.52683  -0.50646  -0.48758  -0.48757  -0.48664
 Alpha  occ. eigenvalues --   -0.47367  -0.46442  -0.46325  -0.44769  -0.44514
 Alpha  occ. eigenvalues --   -0.37280  -0.36297
 Alpha virt. eigenvalues --    0.05101   0.11264   0.16590   0.19811   0.22583
 Alpha virt. eigenvalues --    0.23996   0.25907   0.26060   0.26445   0.27797
 Alpha virt. eigenvalues --    0.29167   0.30385   0.31047   0.31320   0.32139

 Mulliken charges:
               1
     1  C   -0.298859
     2  C   -0.303329
     3  C   -0.483056
     4  H    0.152002
     5  H    0.151540
     6  H    0.152936
     7  H    0.153555
     8  H    0.164393
     9  H    0.155175
    10  H    0.152015
    11  C   -0.299167
    12  C   -0.300342
    13  C   -0.476168
    14  H    0.150907
    15  H    0.149800
    16  H    0.153531
    17  H    0.152566
    18  H    0.155217
    19  H    0.156132
    20  H    0.161983
    21  C   -0.174651
    22  C   -0.218510
    23  C   -0.171555
    24  C    0.158963
    25  C   -0.173438
    26  C   -0.224835
    27  H    0.226035
    28  H    0.223156
    29  H    0.275334
    30  H    0.275406
    31  H    0.236466
    32  N    0.487981
    33  O   -0.460569
    34  O   -0.460614
 Sum of Mulliken charges =  -0.00000

 Dipole moment (field-independent basis, Debye):
    X=             -3.7240    Y=              3.2459    Z=              2.0397  Tot=              5.3446
 Quadrupole moment (field-independent basis, Debye-Ang):
   XX=           -117.2986   YY=            -96.8183   ZZ=            -90.9766
   XY=             10.7610   XZ=              9.4562   YZ=             -0.3770

 Normal termination of Gaussian 16 at Wed May  5 20:24:02 2021.
