 Gaussian 16, Revision A.03,
 Gaussian 16:  EM64L-G16RevA.03 25-Dec-2016

 -------------
 #p 6-31g* mp2
 -------------

 ------------------------------------------------------
 Input file generated by CHIRIPA (05-May-2021 14:57:23)
 ------------------------------------------------------
 Symbolic Z-matrix:
 Charge =  0 Multiplicity = 1

                         Standard orientation:
 ---------------------------------------------------------------------
 Center     Atomic      Atomic             Coordinates (Angstroms)
 Number     Number       Type             X           Y           Z
 ---------------------------------------------------------------------
      1          6           0       -4.626957    0.556684    0.256313
      2          6           0       -3.894494    0.119160    1.364732
      3          6           0       -2.662539   -0.519484    1.194533
      4          6           0       -2.190880   -0.705036   -0.104081
      5          6           0       -2.897201   -0.280475   -1.228424
      6          6           0       -4.126854    0.355824   -1.034452
      7          1           0       -5.583075    1.051887    0.397761
      8          1           0       -4.280419    0.273802    2.368322
      9          1           0       -2.074800   -0.868220    2.034988
     10          1           0       -2.486563   -0.448830   -2.216579
     11          1           0       -4.693525    0.694561   -1.897114
     12          7           0       -0.887883   -1.379898   -0.296847
     13          8           0       -0.494242   -1.531381   -1.451289
     14          8           0       -0.284907   -1.744594    0.710156
     15          6           0        3.859508   -1.465448    0.180088
     16          6           0        3.629489   -0.834396   -1.046853
     17          6           0        2.825635    0.307200   -1.118433
     18          6           0        2.265074    0.792892    0.061892
     19          6           0        2.475512    0.186550    1.299370
     20          6           0        3.282803   -0.953863    1.347227
     21          1           0        4.485297   -2.351807    0.226478
     22          1           0        4.076071   -1.229478   -1.954885
     23          1           0        2.631030    0.815495   -2.055014
     24          1           0        2.016669    0.603790    2.187510
     25          1           0        3.459705   -1.441875    2.301478
     26          7           0        1.412250    2.000822   -0.001329
     27          8           0        0.929936    2.408958    1.052916
     28          8           0        1.242269    2.516588   -1.103931
 ---------------------------------------------------------------------

 SCF Done:  E(RHF) =  -868.338795945     A.U. after   16 cycles
 E2 =    -0.2601405945D+01 EUMP2 =    -0.87094020189025D+03

 The electronic state is 1-A.
 Alpha  occ. eigenvalues --  -20.60752 -20.60746 -20.60016 -20.60004 -15.85761
 Alpha  occ. eigenvalues --  -15.85047 -11.30869 -11.29923 -11.27442 -11.27417
 Alpha  occ. eigenvalues --  -11.27137 -11.26534 -11.26519 -11.26391 -11.26376
 Alpha  occ. eigenvalues --  -11.26219 -11.25427 -11.25416  -1.59814  -1.59102
 Alpha  occ. eigenvalues --   -1.39378  -1.38665  -1.19023  -1.18082  -1.08476
 Alpha  occ. eigenvalues --   -1.07594  -1.04396  -1.03441  -0.95358  -0.94505
 Alpha  occ. eigenvalues --   -0.85816  -0.84902  -0.82209  -0.81372  -0.77281
 Alpha  occ. eigenvalues --   -0.76455  -0.72018  -0.71291  -0.71224  -0.70345
 Alpha  occ. eigenvalues --   -0.70159  -0.69287  -0.64696  -0.64419  -0.63786
 Alpha  occ. eigenvalues --   -0.63518  -0.61763  -0.60856  -0.54933  -0.54042
 Alpha  occ. eigenvalues --   -0.52736  -0.52507  -0.51752  -0.51605  -0.48774
 Alpha  occ. eigenvalues --   -0.48667  -0.48058  -0.48001  -0.44871  -0.44159
 Alpha  occ. eigenvalues --   -0.36996  -0.36028  -0.35964  -0.34879
 Alpha virt. eigenvalues --    0.05115   0.06173   0.11689   0.12697   0.16775
 Alpha virt. eigenvalues --    0.17668   0.21753   0.22557   0.27652   0.28403
 Alpha virt. eigenvalues --    0.28640   0.29404   0.31273   0.32064   0.32770

 Mulliken charges:
               1
     1  C   -0.168865
     2  C   -0.216937
     3  C   -0.166326
     4  C    0.158128
     5  C   -0.167241
     6  C   -0.217311
     7  H    0.225489
     8  H    0.222877
     9  H    0.272278
    10  H    0.274875
    11  H    0.223414
    12  N    0.486403
    13  O   -0.461684
    14  O   -0.463488
    15  C   -0.165712
    16  C   -0.213939
    17  C   -0.160556
    18  C    0.151751
    19  C   -0.156790
    20  C   -0.210232
    21  H    0.221617
    22  H    0.219476
    23  H    0.271369
    24  H    0.268422
    25  H    0.218410
    26  N    0.485714
    27  O   -0.467039
    28  O   -0.464102
 Sum of Mulliken charges =  -0.00000

 Dipole moment (field-independent basis, Debye):
    X=             -1.7099    Y=             -2.0417    Z=              0.8690  Tot=              2.8013
 Quadrupole moment (field-independent basis, Debye-Ang):
   XX=            -72.0589   YY=           -116.8597   ZZ=            -95.2134
   XY=            -10.1968   XZ=             -0.6555   YZ=             -1.7116

 Normal termination of Gaussian 16 at Thu May  6 05:01:27 2021.
