 Gaussian 16, Revision A.03,
 Gaussian 16:  EM64L-G16RevA.03 25-Dec-2016

 -------------
 #p 6-31g* mp2
 -------------

 ------------------------------------------------------
 Input file generated by CHIRIPA (05-May-2021 14:57:26)
 ------------------------------------------------------
 Symbolic Z-matrix:
 Charge =  0 Multiplicity = 1

                         Standard orientation:
 ---------------------------------------------------------------------
 Center     Atomic      Atomic             Coordinates (Angstroms)
 Number     Number       Type             X           Y           Z
 ---------------------------------------------------------------------
      1          6           0        1.594538   -1.353428    1.173694
      2          6           0        2.243270   -0.374162    1.933104
      3          6           0        3.312457    0.348595    1.395508
      4          6           0        3.708498    0.064924    0.089379
      5          6           0        3.082320   -0.904601   -0.692423
      6          6           0        2.015391   -1.615061   -0.134340
      7          1           0        0.764845   -1.910107    1.599269
      8          1           0        1.918582   -0.168847    2.949208
      9          1           0        3.832482    1.112131    1.961197
     10          1           0        3.428660   -1.086853   -1.702497
     11          1           0        1.513442   -2.375004   -0.726437
     12          7           0        4.839203    0.823565   -0.490595
     13          8           0        5.168972    0.554726   -1.643684
     14          8           0        5.374271    1.672663    0.218894
     15          6           0       -4.764066    2.237540    0.102002
     16          6           0       -5.422321    1.022464    0.318359
     17          6           0       -4.744128   -0.190072    0.162287
     18          6           0       -3.402079   -0.150397   -0.212708
     19          6           0       -2.718628    1.043980   -0.435524
     20          6           0       -3.416695    2.244409   -0.273587
     21          1           0       -5.298623    3.174764    0.225521
     22          1           0       -6.468673    1.014093    0.610119
     23          1           0       -5.229360   -1.145067    0.323383
     24          1           0       -1.675213    1.020328   -0.725597
     25          1           0       -2.902932    3.186552   -0.442283
     26          7           0       -2.673587   -1.427644   -0.381039
     27          8           0       -1.491545   -1.365675   -0.712059
     28          8           0       -3.298430   -2.466536   -0.178770
 ---------------------------------------------------------------------

 SCF Done:  E(RHF) =  -868.340178543     A.U. after   15 cycles
 E2 =    -0.2599002131D+01 EUMP2 =    -0.87093918067380D+03

 The electronic state is 1-A.
 Alpha  occ. eigenvalues --  -20.61736 -20.61708 -20.60250 -20.60237 -15.86744
 Alpha  occ. eigenvalues --  -15.85290 -11.31825 -11.30442 -11.28364 -11.28340
 Alpha  occ. eigenvalues --  -11.28045 -11.27311 -11.27287 -11.27030 -11.26896
 Alpha  occ. eigenvalues --  -11.26533 -11.25990 -11.25716  -1.60796  -1.59328
 Alpha  occ. eigenvalues --   -1.40353  -1.38887  -1.19973  -1.18568  -1.09423
 Alpha  occ. eigenvalues --   -1.07969  -1.05326  -1.03929  -0.96304  -0.94851
 Alpha  occ. eigenvalues --   -0.86737  -0.85310  -0.83140  -0.81694  -0.78219
 Alpha  occ. eigenvalues --   -0.76795  -0.72991  -0.72108  -0.71509  -0.71068
 Alpha  occ. eigenvalues --   -0.70653  -0.69599  -0.65626  -0.65320  -0.64192
 Alpha  occ. eigenvalues --   -0.63873  -0.62670  -0.61271  -0.55835  -0.54344
 Alpha  occ. eigenvalues --   -0.53679  -0.53407  -0.52286  -0.51983  -0.49748
 Alpha  occ. eigenvalues --   -0.49711  -0.48281  -0.48244  -0.45817  -0.44342
 Alpha  occ. eigenvalues --   -0.37941  -0.36920  -0.36477  -0.35537
 Alpha virt. eigenvalues --    0.04254   0.05728   0.10739   0.12119   0.15817
 Alpha virt. eigenvalues --    0.17313   0.20934   0.22397   0.26874   0.27774
 Alpha virt. eigenvalues --    0.28289   0.29227   0.30543   0.31973   0.32016

 Mulliken charges:
               1
     1  C   -0.168000
     2  C   -0.222332
     3  C   -0.174256
     4  C    0.156759
     5  C   -0.175877
     6  C   -0.212155
     7  H    0.231224
     8  H    0.218816
     9  H    0.271319
    10  H    0.273480
    11  H    0.237028
    12  N    0.488072
    13  O   -0.462011
    14  O   -0.463967
    15  C   -0.169859
    16  C   -0.218737
    17  C   -0.170846
    18  C    0.156300
    19  C   -0.171606
    20  C   -0.218889
    21  H    0.228086
    22  H    0.225253
    23  H    0.275913
    24  H    0.277924
    25  H    0.226704
    26  N    0.489668
    27  O   -0.469465
    28  O   -0.458546
 Sum of Mulliken charges =  -0.00000

 Dipole moment (field-independent basis, Debye):
    X=             -7.0312    Y=              1.7173    Z=              2.5538  Tot=              7.6752
 Quadrupole moment (field-independent basis, Debye-Ang):
   XX=           -114.9902   YY=           -104.4074   ZZ=           -102.0327
   XY=            -23.4379   XZ=              4.7607   YZ=              0.6078

 Normal termination of Gaussian 16 at Wed May  5 22:51:54 2021.
