 Gaussian 16, Revision A.03,
 Gaussian 16:  EM64L-G16RevA.03 25-Dec-2016

 -------------
 #p 6-31g* mp2
 -------------

 ------------------------------------------------------
 Input file generated by CHIRIPA (05-May-2021 14:55:24)
 ------------------------------------------------------
 Symbolic Z-matrix:
 Charge =  0 Multiplicity = 1

                         Standard orientation:
 ---------------------------------------------------------------------
 Center     Atomic      Atomic             Coordinates (Angstroms)
 Number     Number       Type             X           Y           Z
 ---------------------------------------------------------------------
      1          6           0       -0.878586   -1.392397    1.864191
      2          6           0       -1.922316   -2.066747    1.222006
      3          6           0       -2.751955   -1.395397    0.318935
      4          6           0       -2.508270   -0.043706    0.080528
      5          6           0       -1.476541    0.655818    0.704622
      6          6           0       -0.659417   -0.035659    1.603908
      7          1           0       -0.238964   -1.921736    2.564248
      8          1           0       -2.094868   -3.120402    1.422210
      9          1           0       -3.567180   -1.893057   -0.192103
     10          1           0       -1.329210    1.706212    0.484662
     11          1           0        0.150402    0.490607    2.101183
     12          7           0       -3.379947    0.677676   -0.873509
     13          8           0       -3.144427    1.868468   -1.066334
     14          8           0       -4.282183    0.038644   -1.410393
     15          6           0        3.441129   -0.433424   -0.313927
     16          6           0        2.741885   -1.596535   -1.018352
     17          6           0        3.583516   -2.872988   -1.029349
     18          1           0        4.401552   -0.236808   -0.809786
     19          1           0        3.676693   -0.727312    0.718320
     20          1           0        2.506472   -1.300050   -2.048543
     21          1           0        1.782928   -1.790280   -0.520877
     22          1           0        3.807187   -3.195766   -0.007396
     23          1           0        4.534841   -2.702750   -1.543741
     24          1           0        3.064658   -3.691607   -1.537789
     25          6           0        2.612265    0.849675   -0.294752
     26          6           0        3.311508    2.012787    0.409673
     27          6           0        2.469879    3.289239    0.420671
     28          1           0        2.376701    1.143563   -1.326999
     29          1           0        1.651842    0.653060    0.201107
     30          1           0        4.270466    2.206531   -0.087802
     31          1           0        3.546922    1.716302    1.439864
     32          1           0        1.518553    3.119001    0.935062
     33          1           0        2.246207    3.612017   -0.601282
     34          1           0        2.988735    4.107858    0.929110
 ---------------------------------------------------------------------

 SCF Done:  E(RHF) =  -669.534790471     A.U. after   15 cycles
 E2 =    -0.2093513745D+01 EUMP2 =    -0.67162830421538D+03

 The electronic state is 1-A.
 Alpha  occ. eigenvalues --  -20.60810 -20.60805 -15.85865 -11.31269 -11.27840
 Alpha  occ. eigenvalues --  -11.27836 -11.27611 -11.26878 -11.26868 -11.22138
 Alpha  occ. eigenvalues --  -11.21957 -11.21845 -11.21765 -11.21658 -11.21462
 Alpha  occ. eigenvalues --   -1.59884  -1.39437  -1.19458  -1.08921  -1.08828
 Alpha  occ. eigenvalues --   -1.04872  -1.04003  -0.96453  -0.95668  -0.87469
 Alpha  occ. eigenvalues --   -0.86263  -0.82511  -0.80052  -0.78720  -0.77529
 Alpha  occ. eigenvalues --   -0.72083  -0.71207  -0.70555  -0.65656  -0.65108
 Alpha  occ. eigenvalues --   -0.64812  -0.62232  -0.61385  -0.59810  -0.58057
 Alpha  occ. eigenvalues --   -0.55780  -0.55362  -0.53274  -0.53101  -0.52998
 Alpha  occ. eigenvalues --   -0.52810  -0.50409  -0.48847  -0.48834  -0.48369
 Alpha  occ. eigenvalues --   -0.47100  -0.46234  -0.46172  -0.44832  -0.44239
 Alpha  occ. eigenvalues --   -0.37419  -0.36380
 Alpha virt. eigenvalues --    0.04971   0.11124   0.16315   0.19231   0.22919
 Alpha virt. eigenvalues --    0.23413   0.25674   0.26430   0.27416   0.28444
 Alpha virt. eigenvalues --    0.28802   0.30304   0.31244   0.31500   0.32385

 Mulliken charges:
               1
     1  C   -0.172470
     2  C   -0.218825
     3  C   -0.170424
     4  C    0.158897
     5  C   -0.169532
     6  C   -0.219093
     7  H    0.226345
     8  H    0.224107
     9  H    0.276073
    10  H    0.277594
    11  H    0.225468
    12  N    0.488041
    13  O   -0.459784
    14  O   -0.460253
    15  C   -0.297320
    16  C   -0.302238
    17  C   -0.475729
    18  H    0.151770
    19  H    0.144445
    20  H    0.155203
    21  H    0.152300
    22  H    0.152100
    23  H    0.156853
    24  H    0.161027
    25  C   -0.306814
    26  C   -0.300681
    27  C   -0.474671
    28  H    0.154122
    29  H    0.150717
    30  H    0.155430
    31  H    0.147645
    32  H    0.144866
    33  H    0.161490
    34  H    0.163342
 Sum of Mulliken charges =  -0.00000

 Dipole moment (field-independent basis, Debye):
    X=              3.0328    Y=             -2.5248    Z=              3.2673  Tot=              5.1233
 Quadrupole moment (field-independent basis, Debye-Ang):
   XX=           -109.3639   YY=            -91.9541   ZZ=            -93.9721
   XY=              9.6692   XZ=             -8.3936   YZ=             -0.1372

 Normal termination of Gaussian 16 at Thu May  6 06:24:10 2021.
