 Gaussian 16, Revision A.03,
 Gaussian 16:  EM64L-G16RevA.03 25-Dec-2016

 -------------
 #p 6-31g* mp2
 -------------

 ------------------------------------------------------
 Input file generated by CHIRIPA (05-May-2021 14:55:21)
 ------------------------------------------------------
 Symbolic Z-matrix:
 Charge =  0 Multiplicity = 1

                         Standard orientation:
 ---------------------------------------------------------------------
 Center     Atomic      Atomic             Coordinates (Angstroms)
 Number     Number       Type             X           Y           Z
 ---------------------------------------------------------------------
      1          6           0       -2.874669   -2.408036    0.419212
      2          6           0       -3.624745   -1.857624   -0.625275
      3          6           0       -3.717646   -0.471132   -0.778755
      4          6           0       -3.044676    0.339023    0.134509
      5          6           0       -2.289498   -0.179180    1.185443
      6          6           0       -2.210610   -1.568537    1.319650
      7          1           0       -2.807944   -3.486209    0.530953
      8          1           0       -4.141512   -2.507161   -1.326059
      9          1           0       -4.291396   -0.018386   -1.578287
     10          1           0       -1.785422    0.493902    1.868295
     11          1           0       -1.627364   -1.993202    2.131764
     12          7           0       -3.135608    1.808356   -0.017772
     13          8           0       -2.533381    2.500498    0.800091
     14          8           0       -3.807387    2.240057   -0.952109
     15          6           0        4.423359    0.330131    0.078197
     16          6           0        5.838798   -0.178407   -0.197312
     17          6           0        6.918844    0.740770    0.374011
     18          1           0        4.312920    1.336837   -0.347587
     19          1           0        4.282717    0.432480    1.163158
     20          1           0        5.976265   -0.281083   -1.281367
     21          1           0        5.945819   -1.184097    0.229011
     22          1           0        6.810036    0.834845    1.459327
     23          1           0        6.840655    1.742989   -0.059631
     24          1           0        7.922914    0.358324    0.165597
     25          6           0        3.332646   -0.578090   -0.486790
     26          6           0        1.917206   -0.069552   -0.211281
     27          6           0        0.837161   -0.988729   -0.782604
     28          1           0        3.473286   -0.680437   -1.571751
     29          1           0        3.443084   -1.584795   -0.061007
     30          1           0        1.810184    0.936138   -0.637603
     31          1           0        1.779738    0.033125    0.872774
     32          1           0        0.915348   -1.990947   -0.348962
     33          1           0        0.945967   -1.082802   -1.867920
     34          1           0       -0.166911   -0.606282   -0.574190
 ---------------------------------------------------------------------

 SCF Done:  E(RHF) =  -669.534272651     A.U. after   15 cycles
 E2 =    -0.2093039207D+01 EUMP2 =    -0.67162731185728D+03

 The electronic state is 1-A.
 Alpha  occ. eigenvalues --  -20.60805 -20.60800 -15.85860 -11.31243 -11.27812
 Alpha  occ. eigenvalues --  -11.27771 -11.27533 -11.26830 -11.26792 -11.21646
 Alpha  occ. eigenvalues --  -11.21633 -11.21454 -11.21378 -11.21077 -11.21029
 Alpha  occ. eigenvalues --   -1.59882  -1.39434  -1.19429  -1.08804  -1.08469
 Alpha  occ. eigenvalues --   -1.04828  -1.03562  -0.96015  -0.95636  -0.87031
 Alpha  occ. eigenvalues --   -0.86212  -0.82465  -0.79628  -0.78282  -0.77514
 Alpha  occ. eigenvalues --   -0.72075  -0.71212  -0.70510  -0.65107  -0.65061
 Alpha  occ. eigenvalues --   -0.64811  -0.62162  -0.60970  -0.59458  -0.57678
 Alpha  occ. eigenvalues --   -0.55323  -0.55302  -0.53672  -0.52901  -0.52497
 Alpha  occ. eigenvalues --   -0.52041  -0.49958  -0.48837  -0.48830  -0.47932
 Alpha  occ. eigenvalues --   -0.46671  -0.45822  -0.45755  -0.44834  -0.43796
 Alpha  occ. eigenvalues --   -0.37395  -0.36340
 Alpha virt. eigenvalues --    0.05006   0.11178   0.16478   0.21225   0.22849
 Alpha virt. eigenvalues --    0.24281   0.26476   0.27176   0.27432   0.28138
 Alpha virt. eigenvalues --    0.28329   0.30738   0.31383   0.31737   0.32020

 Mulliken charges:
               1
     1  C   -0.170360
     2  C   -0.217084
     3  C   -0.171933
     4  C    0.161968
     5  C   -0.179892
     6  C   -0.211541
     7  H    0.225904
     8  H    0.223915
     9  H    0.275954
    10  H    0.276013
    11  H    0.223742
    12  N    0.487999
    13  O   -0.460215
    14  O   -0.460318
    15  C   -0.298368
    16  C   -0.299593
    17  C   -0.475742
    18  H    0.151956
    19  H    0.148789
    20  H    0.152116
    21  H    0.150647
    22  H    0.155004
    23  H    0.156303
    24  H    0.160046
    25  C   -0.297893
    26  C   -0.299364
    27  C   -0.480668
    28  H    0.150135
    29  H    0.146817
    30  H    0.157211
    31  H    0.146723
    32  H    0.146959
    33  H    0.154331
    34  H    0.170439
 Sum of Mulliken charges =  -0.00000

 Dipole moment (field-independent basis, Debye):
    X=              0.2325    Y=             -5.1503    Z=              0.5240  Tot=              5.1821
 Quadrupole moment (field-independent basis, Debye-Ang):
   XX=            -96.3413   YY=            -98.8878   ZZ=            -91.0466
   XY=             16.2643   XZ=              0.7804   YZ=             -0.7026

 Normal termination of Gaussian 16 at Wed May  5 22:12:42 2021.
