 Gaussian 16, Revision A.03,
 Gaussian 16:  EM64L-G16RevA.03 25-Dec-2016

 -------------
 #p 6-31g* mp2
 -------------

 ------------------------------------------------------
 Input file generated by CHIRIPA (05-May-2021 14:53:14)
 ------------------------------------------------------
 Symbolic Z-matrix:
 Charge =  0 Multiplicity = 1

                         Standard orientation:
 ---------------------------------------------------------------------
 Center     Atomic      Atomic             Coordinates (Angstroms)
 Number     Number       Type             X           Y           Z
 ---------------------------------------------------------------------
      1          6           0        2.618386    1.501782   -0.195952
      2          6           0        1.196282    1.573326   -0.753165
      3          6           0        0.651777    3.001224   -0.802339
      4          1           0        2.632278    1.935979    0.813120
      5          1           0        3.278686    2.125909   -0.813903
      6          1           0        0.539127    0.948151   -0.135167
      7          1           0        1.185735    1.138735   -1.760952
      8          1           0        1.283661    3.632901   -1.435038
      9          1           0        0.633380    3.441235    0.199985
     10          1           0       -0.365997    3.029172   -1.203852
     11          6           0        3.176554    0.080830   -0.140528
     12          6           0        4.598658    0.009287    0.416684
     13          6           0        5.143162   -1.418611    0.465859
     14          1           0        2.516254   -0.543296    0.477423
     15          1           0        3.162662   -0.353366   -1.149600
     16          1           0        4.609205    0.443878    1.424472
     17          1           0        5.255812    0.634462   -0.201313
     18          1           0        5.161560   -1.858622   -0.536465
     19          1           0        4.511279   -2.050288    1.098557
     20          1           0        6.160937   -1.446559    0.867372
     21          6           0       -4.093838    1.052491    0.605878
     22          6           0       -2.980810    0.975068    1.449499
     23          6           0       -1.960732    0.053184    1.196282
     24          6           0       -2.086712   -0.779726    0.085570
     25          6           0       -3.183251   -0.726655   -0.773543
     26          6           0       -4.191334    0.202880   -0.500999
     27          1           0       -4.881600    1.771605    0.810091
     28          1           0       -2.902426    1.633631    2.309845
     29          1           0       -1.088123   -0.027992    1.832979
     30          1           0       -3.233279   -1.396376   -1.623477
     31          1           0       -5.054580    0.260783   -1.157885
     32          7           0       -1.013150   -1.759732   -0.192729
     33          8           0       -1.147871   -2.482354   -1.177771
     34          8           0       -0.057300   -1.786684    0.579449
 ---------------------------------------------------------------------

 SCF Done:  E(RHF) =  -669.535599634     A.U. after   15 cycles
 E2 =    -0.2094014846D+01 EUMP2 =    -0.67162961447944D+03

 The electronic state is 1-A.
 Alpha  occ. eigenvalues --  -20.60992 -20.60985 -15.85996 -11.31306 -11.27877
 Alpha  occ. eigenvalues --  -11.27863 -11.27600 -11.26876 -11.26865 -11.21122
 Alpha  occ. eigenvalues --  -11.20887 -11.20785 -11.20771 -11.20264 -11.20214
 Alpha  occ. eigenvalues --   -1.60032  -1.39596  -1.19480  -1.08882  -1.07707
 Alpha  occ. eigenvalues --   -1.04876  -1.02913  -0.95729  -0.95350  -0.86382
 Alpha  occ. eigenvalues --   -0.86269  -0.82570  -0.79011  -0.77684  -0.77397
 Alpha  occ. eigenvalues --   -0.72237  -0.71339  -0.70592  -0.65144  -0.64884
 Alpha  occ. eigenvalues --   -0.64334  -0.62230  -0.60329  -0.58755  -0.56955
 Alpha  occ. eigenvalues --   -0.55377  -0.54654  -0.53185  -0.52966  -0.52099
 Alpha  occ. eigenvalues --   -0.51764  -0.49320  -0.49003  -0.48969  -0.47318
 Alpha  occ. eigenvalues --   -0.46118  -0.45452  -0.44998  -0.44301  -0.43109
 Alpha  occ. eigenvalues --   -0.37427  -0.36448
 Alpha virt. eigenvalues --    0.04864   0.11086   0.16347   0.21157   0.23477
 Alpha virt. eigenvalues --    0.24858   0.26846   0.27526   0.27764   0.28416
 Alpha virt. eigenvalues --    0.28949   0.31100   0.31775   0.32113   0.32342

 Mulliken charges:
               1
     1  C   -0.296607
     2  C   -0.305917
     3  C   -0.474500
     4  H    0.143953
     5  H    0.146460
     6  H    0.153891
     7  H    0.153635
     8  H    0.155219
     9  H    0.149734
    10  H    0.156922
    11  C   -0.307741
    12  C   -0.299010
    13  C   -0.475326
    14  H    0.174003
    15  H    0.150258
    16  H    0.147591
    17  H    0.147596
    18  H    0.155834
    19  H    0.159986
    20  H    0.155724
    21  C   -0.170665
    22  C   -0.218185
    23  C   -0.172590
    24  C    0.161126
    25  C   -0.170764
    26  C   -0.218505
    27  H    0.226223
    28  H    0.224148
    29  H    0.274728
    30  H    0.275887
    31  H    0.223939
    32  N    0.491743
    33  O   -0.457680
    34  O   -0.461109
 Sum of Mulliken charges =  -0.00000

 Dipole moment (field-independent basis, Debye):
    X=             -3.9897    Y=              3.2005    Z=              0.9810  Tot=              5.2080
 Quadrupole moment (field-independent basis, Debye-Ang):
   XX=            -78.9356   YY=           -101.6441   ZZ=            -90.7374
   XY=             -3.3714   XZ=             -0.5263   YZ=              1.1431

 Normal termination of Gaussian 16 at Thu May  6 18:45:40 2021.
