 Gaussian 16, Revision A.03,
 Gaussian 16:  EM64L-G16RevA.03 25-Dec-2016

 -------------
 #p 6-31g* mp2
 -------------

 ------------------------------------------------------
 Input file generated by CHIRIPA (05-May-2021 14:55:23)
 ------------------------------------------------------
 Symbolic Z-matrix:
 Charge =  0 Multiplicity = 1

                         Standard orientation:
 ---------------------------------------------------------------------
 Center     Atomic      Atomic             Coordinates (Angstroms)
 Number     Number       Type             X           Y           Z
 ---------------------------------------------------------------------
      1          6           0        5.205039   -1.510308   -0.218677
      2          6           0        5.460877   -0.302617    0.439010
      3          6           0        4.489545    0.701971    0.482197
      4          6           0        3.267896    0.464140   -0.145736
      5          6           0        2.982964   -0.728448   -0.808940
      6          6           0        3.969079   -1.719001   -0.839458
      7          1           0        5.965335   -2.285244   -0.247305
      8          1           0        6.419836   -0.137778    0.921990
      9          1           0        4.661104    1.646334    0.984355
     10          1           0        2.017505   -0.863624   -1.281205
     11          1           0        3.767614   -2.655923   -1.350960
     12          7           0        2.231765    1.520223   -0.106722
     13          8           0        1.163529    1.286087   -0.667693
     14          8           0        2.507502    2.562119    0.484090
     15          6           0       -3.671861   -0.505066    0.012603
     16          6           0       -2.834080   -1.002621    1.190968
     17          6           0       -1.376681   -1.265753    0.810776
     18          1           0       -3.630778   -1.246361   -0.797174
     19          1           0       -3.223333    0.416293   -0.384026
     20          1           0       -3.284838   -1.922012    1.586132
     21          1           0       -2.877318   -0.260145    1.998109
     22          1           0       -0.905064   -0.351364    0.436516
     23          1           0       -1.314900   -2.022674    0.022199
     24          1           0       -0.795968   -1.620639    1.667917
     25          6           0       -5.131114   -0.237550    0.376942
     26          6           0       -5.968896    0.260006   -0.801423
     27          6           0       -7.426294    0.523137   -0.421232
     28          1           0       -5.579643   -1.158909    0.773571
     29          1           0       -5.172198    0.503745    1.186719
     30          1           0       -5.925659   -0.482471   -1.608563
     31          1           0       -5.518138    1.179396   -1.196587
     32          1           0       -7.488076    1.280058    0.367347
     33          1           0       -7.897911   -0.391252   -0.046970
     34          1           0       -8.007007    0.878023   -1.278371
 ---------------------------------------------------------------------

 SCF Done:  E(RHF) =  -669.536423801     A.U. after   15 cycles
 E2 =    -0.2090903155D+01 EUMP2 =    -0.67162732695604D+03

 The electronic state is 1-A.
 Alpha  occ. eigenvalues --  -20.60926 -20.60915 -15.85947 -11.31236 -11.27805
 Alpha  occ. eigenvalues --  -11.27788 -11.27542 -11.26808 -11.26794 -11.21122
 Alpha  occ. eigenvalues --  -11.20969 -11.20851 -11.20714 -11.20669 -11.20299
 Alpha  occ. eigenvalues --   -1.59978  -1.39536  -1.19406  -1.08818  -1.07850
 Alpha  occ. eigenvalues --   -1.04799  -1.02958  -0.95667  -0.95405  -0.86429
 Alpha  occ. eigenvalues --   -0.86201  -0.82500  -0.79035  -0.77666  -0.77543
 Alpha  occ. eigenvalues --   -0.72177  -0.71286  -0.70518  -0.65065  -0.64804
 Alpha  occ. eigenvalues --   -0.64474  -0.62146  -0.60346  -0.58791  -0.57020
 Alpha  occ. eigenvalues --   -0.55310  -0.54678  -0.53132  -0.52893  -0.52127
 Alpha  occ. eigenvalues --   -0.51831  -0.49354  -0.48931  -0.48917  -0.47351
 Alpha  occ. eigenvalues --   -0.46081  -0.45236  -0.45156  -0.44792  -0.43223
 Alpha  occ. eigenvalues --   -0.37387  -0.36397
 Alpha virt. eigenvalues --    0.04935   0.11248   0.16401   0.21307   0.23459
 Alpha virt. eigenvalues --    0.24853   0.26948   0.27259   0.27724   0.28183
 Alpha virt. eigenvalues --    0.28987   0.30846   0.31914   0.32012   0.32466

 Mulliken charges:
               1
     1  C   -0.170529
     2  C   -0.218695
     3  C   -0.170867
     4  C    0.158179
     5  C   -0.170259
     6  C   -0.218733
     7  H    0.225788
     8  H    0.223558
     9  H    0.275556
    10  H    0.277306
    11  H    0.223833
    12  N    0.489061
    13  O   -0.460856
    14  O   -0.458960
    15  C   -0.299483
    16  C   -0.297919
    17  C   -0.488494
    18  H    0.146322
    19  H    0.157533
    20  H    0.147422
    21  H    0.153029
    22  H    0.180405
    23  H    0.146118
    24  H    0.153954
    25  C   -0.298050
    26  C   -0.299558
    27  C   -0.475441
    28  H    0.147072
    29  H    0.150093
    30  H    0.150409
    31  H    0.153987
    32  H    0.155278
    33  H    0.153767
    34  H    0.159176
 Sum of Mulliken charges =  -0.00000

 Dipole moment (field-independent basis, Debye):
    X=              3.8391    Y=             -3.5650    Z=             -0.1797  Tot=              5.2422
 Quadrupole moment (field-independent basis, Debye-Ang):
   XX=            -70.9904   YY=            -96.3240   ZZ=            -94.0667
   XY=             -8.5036   XZ=              1.1832   YZ=              2.6763

 Normal termination of Gaussian 16 at Thu May  6 04:40:40 2021.
