 Gaussian 16, Revision A.03,
 Gaussian 16:  EM64L-G16RevA.03 25-Dec-2016

 -------------
 #p 6-31g* mp2
 -------------

 ------------------------------------------------------
 Input file generated by CHIRIPA (05-May-2021 14:57:26)
 ------------------------------------------------------
 Symbolic Z-matrix:
 Charge =  0 Multiplicity = 1

                         Standard orientation:
 ---------------------------------------------------------------------
 Center     Atomic      Atomic             Coordinates (Angstroms)
 Number     Number       Type             X           Y           Z
 ---------------------------------------------------------------------
      1          6           0       -2.675248    1.156133   -1.667896
      2          6           0       -2.403535    1.703813   -0.409827
      3          6           0       -1.971848    0.889038    0.641048
      4          6           0       -1.821925   -0.475352    0.397627
      5          6           0       -2.084631   -1.050827   -0.844591
      6          6           0       -2.515211   -0.217018   -1.880888
      7          1           0       -3.010162    1.796463   -2.478579
      8          1           0       -2.526940    2.769877   -0.241528
      9          1           0       -1.754431    1.286731    1.624911
     10          1           0       -1.952331   -2.117152   -0.981941
     11          1           0       -2.725486   -0.645110   -2.856883
     12          7           0       -1.365504   -1.347993    1.502424
     13          8           0       -1.241259   -2.546965    1.262289
     14          8           0       -1.140648   -0.816473    2.587580
     15          6           0        1.419771    2.415184    1.124763
     16          6           0        1.080841    2.362178   -0.231274
     17          6           0        1.340678    1.212859   -0.983670
     18          6           0        1.943300    0.130090   -0.345119
     19          6           0        2.292766    0.152292    1.004204
     20          6           0        2.023587    1.312017    1.737094
     21          1           0        1.214295    3.312044    1.701666
     22          1           0        0.611815    3.217400   -0.709452
     23          1           0        1.088687    1.144814   -2.034997
     24          1           0        2.759316   -0.716163    1.453128
     25          1           0        2.287895    1.350352    2.790051
     26          7           0        2.223322   -1.092150   -1.131322
     27          8           0        2.755076   -2.032624   -0.545332
     28          8           0        1.905749   -1.086526   -2.318652
 ---------------------------------------------------------------------

 SCF Done:  E(RHF) =  -868.336204521     A.U. after   16 cycles
 E2 =    -0.2606722275D+01 EUMP2 =    -0.87094292679624D+03

 The electronic state is 1-A.
 Alpha  occ. eigenvalues --  -20.60867 -20.60810 -20.60683 -20.60622 -15.85887
 Alpha  occ. eigenvalues --  -15.85704 -11.31249 -11.31100 -11.27897 -11.27791
 Alpha  occ. eigenvalues --  -11.27662 -11.27654 -11.27552 -11.27420 -11.26945
 Alpha  occ. eigenvalues --  -11.26821 -11.26771 -11.26625  -1.59914  -1.59728
 Alpha  occ. eigenvalues --   -1.39465  -1.39278  -1.19510  -1.19236  -1.08877
 Alpha  occ. eigenvalues --   -1.08685  -1.04897  -1.04626  -0.95695  -0.95504
 Alpha  occ. eigenvalues --   -0.86282  -0.86068  -0.82523  -0.82320  -0.77563
 Alpha  occ. eigenvalues --   -0.77348  -0.72112  -0.71923  -0.71336  -0.70974
 Alpha  occ. eigenvalues --   -0.70593  -0.70390  -0.65124  -0.64928  -0.64915
 Alpha  occ. eigenvalues --   -0.64646  -0.62229  -0.61987  -0.55410  -0.55211
 Alpha  occ. eigenvalues --   -0.54045  -0.52987  -0.52740  -0.52202  -0.48879
 Alpha  occ. eigenvalues --   -0.48858  -0.48693  -0.48667  -0.44864  -0.44669
 Alpha  occ. eigenvalues --   -0.37872  -0.37335  -0.36692  -0.35459
 Alpha virt. eigenvalues --    0.04918   0.05211   0.11043   0.11361   0.16455
 Alpha virt. eigenvalues --    0.16699   0.20665   0.21884   0.26530   0.27542
 Alpha virt. eigenvalues --    0.28247   0.28619   0.30234   0.31464   0.32417

 Mulliken charges:
               1
     1  C   -0.175725
     2  C   -0.221166
     3  C   -0.160924
     4  C    0.156174
     5  C   -0.170010
     6  C   -0.217273
     7  H    0.224385
     8  H    0.216647
     9  H    0.271036
    10  H    0.281617
    11  H    0.227640
    12  N    0.487274
    13  O   -0.454514
    14  O   -0.465424
    15  C   -0.179107
    16  C   -0.214668
    17  C   -0.166635
    18  C    0.152920
    19  C   -0.169897
    20  C   -0.210433
    21  H    0.222546
    22  H    0.215595
    23  H    0.271759
    24  H    0.281410
    25  H    0.228194
    26  N    0.488053
    27  O   -0.453767
    28  O   -0.465705
 Sum of Mulliken charges =  -0.00000

 Dipole moment (field-independent basis, Debye):
    X=             -2.4919    Y=              7.0413    Z=             -1.0240  Tot=              7.5391
 Quadrupole moment (field-independent basis, Debye-Ang):
   XX=           -103.3384   YY=           -103.5863   ZZ=           -105.3474
   XY=              2.7864   XZ=             14.8566   YZ=              2.8597

 Normal termination of Gaussian 16 at Fri May  7 08:10:49 2021.
