 Gaussian 16, Revision A.03,
 Gaussian 16:  EM64L-G16RevA.03 25-Dec-2016

 -------------
 #p 6-31g* mp2
 -------------

 ------------------------------------------------------
 Input file generated by CHIRIPA (05-May-2021 14:55:23)
 ------------------------------------------------------
 Symbolic Z-matrix:
 Charge =  0 Multiplicity = 1

                         Standard orientation:
 ---------------------------------------------------------------------
 Center     Atomic      Atomic             Coordinates (Angstroms)
 Number     Number       Type             X           Y           Z
 ---------------------------------------------------------------------
      1          6           0       -2.788812    2.252043    0.107929
      2          6           0       -3.926605    1.441244    0.175386
      3          6           0       -3.811202    0.049315    0.114033
      4          6           0       -2.536834   -0.500696   -0.015441
      5          6           0       -1.384311    0.280397   -0.085258
      6          6           0       -1.523527    1.670059   -0.021949
      7          1           0       -2.887709    3.332447    0.156349
      8          1           0       -4.910512    1.890461    0.276258
      9          1           0       -4.675357   -0.601962    0.163955
     10          1           0       -0.416887   -0.196482   -0.185740
     11          1           0       -0.638152    2.297265   -0.074578
     12          7           0       -2.402057   -1.973069   -0.081428
     13          8           0       -1.268037   -2.433081   -0.195554
     14          8           0       -3.432990   -2.639222   -0.017773
     15          6           0        3.463483   -0.326685   -0.335507
     16          6           0        4.019605   -1.374121    0.629683
     17          6           0        4.390932   -2.682935   -0.068111
     18          1           0        2.579517   -0.737187   -0.842496
     19          1           0        4.208386   -0.127416   -1.118326
     20          1           0        3.274424   -1.570339    1.411232
     21          1           0        4.902238   -0.961009    1.134572
     22          1           0        5.151857   -2.507932   -0.835552
     23          1           0        3.514796   -3.120724   -0.557321
     24          1           0        4.786308   -3.417494    0.640381
     25          6           0        3.087676    0.987246    0.347195
     26          6           0        2.531553    2.034682   -0.617996
     27          6           0        2.160227    3.343496    0.079797
     28          1           0        2.342772    0.787975    1.130012
     29          1           0        3.971642    1.397747    0.854183
     30          1           0        1.648922    1.621568   -1.122886
     31          1           0        3.276735    2.230899   -1.399546
     32          1           0        3.036363    3.781285    0.569008
     33          1           0        1.399301    3.168492    0.847239
     34          1           0        1.764850    4.078055   -0.628695
 ---------------------------------------------------------------------

 SCF Done:  E(RHF) =  -669.535350195     A.U. after   15 cycles
 E2 =    -0.2092537484D+01 EUMP2 =    -0.67162788767939D+03

 The electronic state is 1-A.
 Alpha  occ. eigenvalues --  -20.60779 -20.60773 -15.85830 -11.31174 -11.27741
 Alpha  occ. eigenvalues --  -11.27731 -11.27463 -11.26752 -11.26674 -11.22486
 Alpha  occ. eigenvalues --  -11.22118 -11.21958 -11.21661 -11.21591 -11.20873
 Alpha  occ. eigenvalues --   -1.59853  -1.39408  -1.19340  -1.08907  -1.08735
 Alpha  occ. eigenvalues --   -1.04745  -1.03969  -0.96425  -0.95578  -0.87442
 Alpha  occ. eigenvalues --   -0.86135  -0.82415  -0.80083  -0.78605  -0.77472
 Alpha  occ. eigenvalues --   -0.72050  -0.71175  -0.70456  -0.65655  -0.64981
 Alpha  occ. eigenvalues --   -0.64752  -0.62224  -0.61178  -0.59854  -0.57987
 Alpha  occ. eigenvalues --   -0.55768  -0.55215  -0.53127  -0.53071  -0.52873
 Alpha  occ. eigenvalues --   -0.52716  -0.50371  -0.48807  -0.48802  -0.48355
 Alpha  occ. eigenvalues --   -0.47150  -0.46150  -0.46030  -0.44818  -0.44205
 Alpha  occ. eigenvalues --   -0.37318  -0.36337
 Alpha virt. eigenvalues --    0.05053   0.11283   0.16505   0.18369   0.22740
 Alpha virt. eigenvalues --    0.23709   0.25075   0.26465   0.27246   0.28675
 Alpha virt. eigenvalues --    0.30090   0.30909   0.31117   0.31633   0.32558

 Mulliken charges:
               1
     1  C   -0.172769
     2  C   -0.218514
     3  C   -0.170804
     4  C    0.158992
     5  C   -0.177927
     6  C   -0.228627
     7  H    0.226204
     8  H    0.223340
     9  H    0.275467
    10  H    0.278437
    11  H    0.239336
    12  N    0.488099
    13  O   -0.461426
    14  O   -0.460277
    15  C   -0.301644
    16  C   -0.299815
    17  C   -0.477454
    18  H    0.153322
    19  H    0.150852
    20  H    0.155388
    21  H    0.150706
    22  H    0.153455
    23  H    0.162868
    24  H    0.161478
    25  C   -0.300206
    26  C   -0.305049
    27  C   -0.483276
    28  H    0.148014
    29  H    0.153113
    30  H    0.146204
    31  H    0.158792
    32  H    0.163902
    33  H    0.149540
    34  H    0.160280
 Sum of Mulliken charges =  -0.00000

 Dipole moment (field-independent basis, Debye):
    X=             -0.2930    Y=              5.1256    Z=              0.2314  Tot=              5.1391
 Quadrupole moment (field-independent basis, Debye-Ang):
   XX=            -85.8560   YY=           -101.1372   ZZ=            -95.7483
   XY=            -11.9054   XZ=             -1.1306   YZ=             -0.6514

 Normal termination of Gaussian 16 at Wed May  5 16:02:15 2021.
