 Gaussian 16, Revision A.03,
 Gaussian 16:  EM64L-G16RevA.03 25-Dec-2016

 -------------
 #p 6-31g* mp2
 -------------

 ------------------------------------------------------
 Input file generated by CHIRIPA (05-May-2021 14:51:10)
 ------------------------------------------------------
 Symbolic Z-matrix:
 Charge =  0 Multiplicity = 1

                         Standard orientation:
 ---------------------------------------------------------------------
 Center     Atomic      Atomic             Coordinates (Angstroms)
 Number     Number       Type             X           Y           Z
 ---------------------------------------------------------------------
      1          6           0       -2.767712    1.155422   -0.468662
      2          6           0       -2.561159    2.102133    0.714156
      3          6           0       -2.267672    3.537883    0.277942
      4          1           0       -1.871352    1.171257   -1.103668
      5          1           0       -3.595732    1.528151   -1.087412
      6          1           0       -1.734678    1.726979    1.331250
      7          1           0       -3.458040    2.083898    1.346524
      8          1           0       -3.094408    3.935621   -0.319480
      9          1           0       -1.361255    3.576674   -0.334841
     10          1           0       -2.123406    4.197607    1.139227
     11          6           0       -3.062015   -0.283574   -0.048658
     12          6           0       -3.268568   -1.230286   -1.231476
     13          6           0       -3.562055   -2.666035   -0.795262
     14          1           0       -2.233996   -0.656303    0.570092
     15          1           0       -3.958375   -0.299409    0.586348
     16          1           0       -2.371687   -1.212050   -1.863843
     17          1           0       -4.095049   -0.855131   -1.848569
     18          1           0       -4.468472   -2.704826   -0.182479
     19          1           0       -2.735319   -3.063773   -0.197840
     20          1           0       -3.706321   -3.325759   -1.656547
     21          6           0        3.283736   -0.198148   -0.366503
     22          6           0        4.698044    0.307715   -0.080460
     23          6           0        5.423200    0.779924   -1.341000
     24          1           0        3.335430   -1.021722   -1.091760
     25          1           0        2.704753    0.603850   -0.845013
     26          1           0        5.273771   -0.494550    0.398626
     27          1           0        4.642993    1.130054    0.644346
     28          1           0        4.873242    1.597363   -1.818434
     29          1           0        5.507604   -0.036473   -2.065549
     30          1           0        6.432346    1.137338   -1.113536
     31          6           0        2.545991   -0.673700    0.883822
     32          6           0        1.131683   -1.179563    0.597780
     33          6           0        0.406528   -1.651772    1.858320
     34          1           0        3.124975   -1.475698    1.362333
     35          1           0        2.494298    0.149875    1.609080
     36          1           0        1.186735   -2.001902   -0.127026
     37          1           0        0.555956   -0.377297    0.118693
     38          1           0        0.322123   -0.835375    2.582869
     39          1           0        0.956485   -2.469210    2.335753
     40          1           0       -0.602619   -2.009186    1.630855
 ---------------------------------------------------------------------

 SCF Done:  E(RHF) =  -470.733102986     A.U. after   11 cycles
 E2 =    -0.1583741916D+01 EUMP2 =    -0.47231684490208D+03

 The electronic state is 1-A.
 Alpha  occ. eigenvalues --  -11.21704 -11.21644 -11.21614 -11.21575 -11.21473
 Alpha  occ. eigenvalues --  -11.21411 -11.21385 -11.21294 -11.21160 -11.21103
 Alpha  occ. eigenvalues --  -11.21092 -11.21076  -1.08509  -1.08410  -1.03607
 Alpha  occ. eigenvalues --   -1.03525  -0.96062  -0.95968  -0.87074  -0.86988
 Alpha  occ. eigenvalues --   -0.79665  -0.79587  -0.78312  -0.78234  -0.65250
 Alpha  occ. eigenvalues --   -0.64972  -0.60999  -0.60945  -0.59466  -0.59300
 Alpha  occ. eigenvalues --   -0.57694  -0.57561  -0.55396  -0.55197  -0.52781
 Alpha  occ. eigenvalues --   -0.52669  -0.52507  -0.52369  -0.49999  -0.49906
 Alpha  occ. eigenvalues --   -0.48032  -0.47869  -0.46706  -0.46602  -0.45880
 Alpha  occ. eigenvalues --   -0.45811  -0.45701  -0.45644  -0.43828  -0.43774
 Alpha virt. eigenvalues --    0.19475   0.22795   0.23376   0.24538   0.26027
 Alpha virt. eigenvalues --    0.26549   0.26802   0.27480   0.28296   0.29572
 Alpha virt. eigenvalues --    0.30027   0.31361   0.31730   0.31963   0.32022

 Mulliken charges:
               1
     1  C   -0.298438
     2  C   -0.300635
     3  C   -0.475595
     4  H    0.149575
     5  H    0.149596
     6  H    0.152174
     7  H    0.152248
     8  H    0.155418
     9  H    0.154656
    10  H    0.160204
    11  C   -0.307944
    12  C   -0.299349
    13  C   -0.477426
    14  H    0.160634
    15  H    0.149274
    16  H    0.152350
    17  H    0.151792
    18  H    0.155299
    19  H    0.155758
    20  H    0.160420
    21  C   -0.298297
    22  C   -0.299741
    23  C   -0.475762
    24  H    0.149816
    25  H    0.149252
    26  H    0.152079
    27  H    0.152096
    28  H    0.155238
    29  H    0.155250
    30  H    0.160447
    31  C   -0.298175
    32  C   -0.303268
    33  C   -0.480934
    34  H    0.150019
    35  H    0.149865
    36  H    0.152402
    37  H    0.153927
    38  H    0.155638
    39  H    0.156360
    40  H    0.163773
 Sum of Mulliken charges =  -0.00000

 Dipole moment (field-independent basis, Debye):
    X=              0.0267    Y=             -0.0135    Z=              0.0145  Tot=              0.0333
 Quadrupole moment (field-independent basis, Debye-Ang):
   XX=            -84.0878   YY=            -85.1629   ZZ=            -85.4548
   XY=             -1.0655   XZ=              0.4875   YZ=              0.6091

 Normal termination of Gaussian 16 at Wed May  5 16:42:23 2021.
