 Gaussian 16, Revision A.03,
 Gaussian 16:  EM64L-G16RevA.03 25-Dec-2016

 -------------
 #p 6-31g* mp2
 -------------

 ------------------------------------------------------
 Input file generated by CHIRIPA (05-May-2021 14:55:23)
 ------------------------------------------------------
 Symbolic Z-matrix:
 Charge =  0 Multiplicity = 1

                         Standard orientation:
 ---------------------------------------------------------------------
 Center     Atomic      Atomic             Coordinates (Angstroms)
 Number     Number       Type             X           Y           Z
 ---------------------------------------------------------------------
      1          6           0        3.307097    1.364025    1.367110
      2          6           0        3.060760    1.520242   -0.000894
      3          6           0        2.500487    0.477695   -0.745030
      4          6           0        2.197500   -0.712812   -0.086105
      5          6           0        2.431065   -0.899051    1.275531
      6          6           0        2.992019    0.157004    1.999841
      7          1           0        3.742596    2.179147    1.937471
      8          1           0        3.304443    2.456513   -0.494919
      9          1           0        2.299310    0.571637   -1.805275
     10          1           0        2.177495   -1.844143    1.740206
     11          1           0        3.182231    0.032854    3.062127
     12          7           0        1.604003   -1.823660   -0.863393
     13          8           0        1.346066   -2.862561   -0.259414
     14          8           0        1.407995   -1.634408   -2.061893
     15          6           0       -3.468330    0.465816    0.453328
     16          6           0       -4.175562   -0.837830    0.081421
     17          6           0       -5.233710   -1.249304    1.105533
     18          1           0       -3.000482    0.352899    1.440908
     19          1           0       -4.215746    1.265317    0.551105
     20          1           0       -3.426882   -1.634329   -0.016981
     21          1           0       -4.641618   -0.721860   -0.905473
     22          1           0       -6.001908   -0.474774    1.198151
     23          1           0       -4.780269   -1.392428    2.091691
     24          1           0       -5.726791   -2.183756    0.819996
     25          6           0       -2.407676    0.890294   -0.560853
     26          6           0       -1.700445    2.193940   -0.188946
     27          6           0       -0.642296    2.605414   -1.213058
     28          1           0       -1.660260    0.090792   -0.658631
     29          1           0       -2.875524    1.003211   -1.548432
     30          1           0       -1.234388    2.077969    0.797948
     31          1           0       -2.449125    2.990438   -0.090543
     32          1           0       -1.095737    2.748537   -2.199215
     33          1           0        0.125902    1.830884   -1.305677
     34          1           0       -0.149216    3.539865   -0.927521
 ---------------------------------------------------------------------

 SCF Done:  E(RHF) =  -669.534950173     A.U. after   15 cycles
 E2 =    -0.2092869917D+01 EUMP2 =    -0.67162782009064D+03

 The electronic state is 1-A.
 Alpha  occ. eigenvalues --  -20.60867 -20.60854 -15.85915 -11.31278 -11.27838
 Alpha  occ. eigenvalues --  -11.27828 -11.27572 -11.26849 -11.26834 -11.21575
 Alpha  occ. eigenvalues --  -11.21235 -11.21172 -11.21126 -11.21114 -11.20773
 Alpha  occ. eigenvalues --   -1.59939  -1.39491  -1.19454  -1.08841  -1.08226
 Alpha  occ. eigenvalues --   -1.04857  -1.03360  -0.95839  -0.95670  -0.86858
 Alpha  occ. eigenvalues --   -0.86246  -0.82506  -0.79432  -0.78015  -0.77553
 Alpha  occ. eigenvalues --   -0.72128  -0.71267  -0.70560  -0.65100  -0.64889
 Alpha  occ. eigenvalues --   -0.64818  -0.62215  -0.60765  -0.59204  -0.57429
 Alpha  occ. eigenvalues --   -0.55364  -0.55166  -0.53180  -0.52946  -0.52536
 Alpha  occ. eigenvalues --   -0.52214  -0.49758  -0.48889  -0.48884  -0.47742
 Alpha  occ. eigenvalues --   -0.46455  -0.45568  -0.45480  -0.44873  -0.43613
 Alpha  occ. eigenvalues --   -0.37424  -0.36375
 Alpha virt. eigenvalues --    0.04952   0.11114   0.16442   0.21182   0.23008
 Alpha virt. eigenvalues --    0.24446   0.26450   0.26948   0.27559   0.28103
 Alpha virt. eigenvalues --    0.28863   0.30441   0.31510   0.31830   0.32193

 Mulliken charges:
               1
     1  C   -0.171125
     2  C   -0.214875
     3  C   -0.174241
     4  C    0.158827
     5  C   -0.171534
     6  C   -0.218343
     7  H    0.226066
     8  H    0.224867
     9  H    0.277071
    10  H    0.275733
    11  H    0.223763
    12  N    0.488068
    13  O   -0.460289
    14  O   -0.460171
    15  C   -0.298086
    16  C   -0.301019
    17  C   -0.475553
    18  H    0.147570
    19  H    0.147771
    20  H    0.158467
    21  H    0.152427
    22  H    0.153360
    23  H    0.153977
    24  H    0.161237
    25  C   -0.298837
    26  C   -0.298796
    27  C   -0.478960
    28  H    0.153159
    29  H    0.151396
    30  H    0.150050
    31  H    0.151135
    32  H    0.156776
    33  H    0.156862
    34  H    0.153245
 Sum of Mulliken charges =  -0.00000

 Dipole moment (field-independent basis, Debye):
    X=              2.1466    Y=              3.8190    Z=              2.7184  Tot=              5.1558
 Quadrupole moment (field-independent basis, Debye-Ang):
   XX=            -86.3909   YY=            -99.4357   ZZ=            -92.1782
   XY=              6.8977   XZ=              6.9069   YZ=             -4.8829

 Normal termination of Gaussian 16 at Thu May  6 04:40:05 2021.
