 Gaussian 16, Revision A.03,
 Gaussian 16:  EM64L-G16RevA.03 25-Dec-2016

 -------------
 #p 6-31g* mp2
 -------------

 ------------------------------------------------------
 Input file generated by CHIRIPA (05-May-2021 14:57:26)
 ------------------------------------------------------
 Symbolic Z-matrix:
 Charge =  0 Multiplicity = 1

                         Standard orientation:
 ---------------------------------------------------------------------
 Center     Atomic      Atomic             Coordinates (Angstroms)
 Number     Number       Type             X           Y           Z
 ---------------------------------------------------------------------
      1          6           0        5.894640    0.958630    0.380315
      2          6           0        5.240862    0.372342    1.469058
      3          6           0        4.032368   -0.307275    1.289579
      4          6           0        3.503681   -0.381657    0.001850
      5          6           0        4.131157    0.192065   -1.102870
      6          6           0        5.338681    0.866783   -0.899917
      7          1           0        6.833050    1.484670    0.528857
      8          1           0        5.670293    0.442087    2.464432
      9          1           0        3.505147   -0.770347    2.114819
     10          1           0        3.678492    0.105847   -2.083216
     11          1           0        5.844203    1.321140   -1.747297
     12          7           0        2.224817   -1.098544   -0.200582
     13          8           0        1.779801   -1.149982   -1.345113
     14          8           0        1.691674   -1.595428    0.789116
     15          6           0       -6.100114   -0.421678    0.417634
     16          6           0       -5.146042   -1.387854    0.081822
     17          6           0       -3.821289   -1.019662   -0.171177
     18          6           0       -3.483817    0.329746   -0.078993
     19          6           0       -4.411472    1.315800    0.253338
     20          6           0       -5.730436    0.924693    0.502172
     21          1           0       -7.126966   -0.716598    0.612552
     22          1           0       -5.430286   -2.434202    0.015433
     23          1           0       -3.062463   -1.746973   -0.433134
     24          1           0       -4.098060    2.351067    0.311763
     25          1           0       -6.469261    1.677205    0.762760
     26          7           0       -2.084424    0.731665   -0.344626
     27          8           0       -1.812493    1.927068   -0.256865
     28          8           0       -1.286008   -0.156326   -0.635562
 ---------------------------------------------------------------------

 SCF Done:  E(RHF) =  -868.336101136     A.U. after   16 cycles
 E2 =    -0.2600333530D+01 EUMP2 =    -0.87093643466501D+03

 The electronic state is 1-A.
 Alpha  occ. eigenvalues --  -20.59779 -20.59633 -20.59499 -20.59417 -15.84743
 Alpha  occ. eigenvalues --  -15.84526 -11.30374 -11.30227 -11.27022 -11.26923
 Alpha  occ. eigenvalues --  -11.26855 -11.26824 -11.26805 -11.26668 -11.26093
 Alpha  occ. eigenvalues --  -11.26039 -11.25955 -11.25933  -1.58792  -1.58493
 Alpha  occ. eigenvalues --   -1.38328  -1.38056  -1.18584  -1.18432  -1.07940
 Alpha  occ. eigenvalues --   -1.07765  -1.04023  -1.03894  -0.94729  -0.94541
 Alpha  occ. eigenvalues --   -0.85410  -0.85278  -0.81547  -0.81386  -0.76545
 Alpha  occ. eigenvalues --   -0.76373  -0.71013  -0.70734  -0.70132  -0.69770
 Alpha  occ. eigenvalues --   -0.69683  -0.69557  -0.64228  -0.64090  -0.64036
 Alpha  occ. eigenvalues --   -0.63911  -0.61360  -0.61244  -0.54537  -0.54400
 Alpha  occ. eigenvalues --   -0.52346  -0.52195  -0.52118  -0.52002  -0.47887
 Alpha  occ. eigenvalues --   -0.47726  -0.47490  -0.47366  -0.43699  -0.43344
 Alpha  occ. eigenvalues --   -0.36593  -0.36430  -0.35640  -0.35509
 Alpha virt. eigenvalues --    0.05987   0.06194   0.12010   0.12141   0.17422
 Alpha virt. eigenvalues --    0.17617   0.22099   0.22186   0.27996   0.28064
 Alpha virt. eigenvalues --    0.29039   0.29114   0.31623   0.31697   0.33365

 Mulliken charges:
               1
     1  C   -0.171977
     2  C   -0.218511
     3  C   -0.171028
     4  C    0.161914
     5  C   -0.169651
     6  C   -0.218502
     7  H    0.222174
     8  H    0.220042
     9  H    0.273524
    10  H    0.275903
    11  H    0.220756
    12  N    0.491934
    13  O   -0.451638
    14  O   -0.464511
    15  C   -0.171781
    16  C   -0.219065
    17  C   -0.170887
    18  C    0.158305
    19  C   -0.171888
    20  C   -0.218911
    21  H    0.222737
    22  H    0.222170
    23  H    0.282384
    24  H    0.273220
    25  H    0.220292
    26  N    0.486734
    27  O   -0.470349
    28  O   -0.443390
 Sum of Mulliken charges =  -0.00000

 Dipole moment (field-independent basis, Debye):
    X=             -0.4187    Y=              0.9119    Z=              1.4830  Tot=              1.7906
 Quadrupole moment (field-independent basis, Debye-Ang):
   XX=            -42.7425   YY=           -104.1311   ZZ=           -100.9723
   XY=              9.7472   XZ=             -1.0049   YZ=              0.0760

 Normal termination of Gaussian 16 at Thu May  6 00:24:12 2021.
