 Gaussian 16, Revision A.03,
 Gaussian 16:  EM64L-G16RevA.03 25-Dec-2016

 -------------
 #p 6-31g* mp2
 -------------

 ------------------------------------------------------
 Input file generated by CHIRIPA (05-May-2021 14:51:09)
 ------------------------------------------------------
 Symbolic Z-matrix:
 Charge =  0 Multiplicity = 1

                         Standard orientation:
 ---------------------------------------------------------------------
 Center     Atomic      Atomic             Coordinates (Angstroms)
 Number     Number       Type             X           Y           Z
 ---------------------------------------------------------------------
      1          6           0        2.179983   -1.085614    0.528973
      2          6           0        1.704170   -0.793483    1.952436
      3          6           0        0.792681   -1.888434    2.507470
      4          1           0        1.305914   -1.203984   -0.125961
      5          1           0        2.711586   -2.047208    0.517608
      6          1           0        1.174824    0.167937    1.961377
      7          1           0        2.579476   -0.675605    2.604018
      8          1           0        1.314554   -2.850644    2.527520
      9          1           0       -0.098079   -2.002309    1.881227
     10          1           0        0.464260   -1.659323    3.526051
     11          6           0        3.092069   -0.000047   -0.039684
     12          6           0        3.567882   -0.292178   -1.463147
     13          6           0        4.479371    0.802773   -2.018181
     14          1           0        2.560466    0.961547   -0.028319
     15          1           0        3.966138    0.118323    0.615249
     16          1           0        2.692576   -0.410056   -2.114730
     17          1           0        4.097228   -1.253598   -1.472088
     18          1           0        5.370131    0.916648   -1.391939
     19          1           0        3.957498    1.764983   -2.038232
     20          1           0        4.807792    0.573662   -3.036762
     21          6           0       -2.602785   -0.128565   -0.607349
     22          6           0       -3.969023   -0.793338   -0.778969
     23          6           0       -3.886112   -2.135671   -1.506337
     24          1           0       -2.145703    0.016027   -1.595840
     25          1           0       -1.939816   -0.806907   -0.052625
     26          1           0       -4.629646   -0.113375   -1.332001
     27          1           0       -4.422990   -0.936190    0.210032
     28          1           0       -3.248955   -2.834213   -0.954367
     29          1           0       -3.456786   -2.006724   -2.505162
     30          1           0       -4.873967   -2.593375   -1.618175
     31          6           0       -2.669267    1.214227    0.118061
     32          6           0       -1.303028    1.878999    0.289681
     33          6           0       -1.385941    3.221332    1.017048
     34          1           0       -3.332237    1.892567   -0.436663
     35          1           0       -3.126349    1.069634    1.106552
     36          1           0       -0.849062    2.021851   -0.699321
     37          1           0       -0.642406    1.199037    0.842713
     38          1           0       -1.815267    3.092384    2.015874
     39          1           0       -2.023097    3.919874    0.465078
     40          1           0       -0.398085    3.679036    1.128887
 ---------------------------------------------------------------------

 SCF Done:  E(RHF) =  -470.733359728     A.U. after   11 cycles
 E2 =    -0.1583785087D+01 EUMP2 =    -0.47231714481543D+03

 The electronic state is 1-A.
 Alpha  occ. eigenvalues --  -11.21657 -11.21648 -11.21609 -11.21582 -11.21475
 Alpha  occ. eigenvalues --  -11.21413 -11.21386 -11.21326 -11.21128 -11.21128
 Alpha  occ. eigenvalues --  -11.21104 -11.21059  -1.08502  -1.08414  -1.03593
 Alpha  occ. eigenvalues --   -1.03530  -0.96032  -0.95984  -0.87050  -0.86999
 Alpha  occ. eigenvalues --   -0.79691  -0.79564  -0.78319  -0.78227  -0.65278
 Alpha  occ. eigenvalues --   -0.64924  -0.61115  -0.60814  -0.59408  -0.59341
 Alpha  occ. eigenvalues --   -0.57647  -0.57592  -0.55329  -0.55263  -0.52723
 Alpha  occ. eigenvalues --   -0.52683  -0.52457  -0.52411  -0.50051  -0.49867
 Alpha  occ. eigenvalues --   -0.48043  -0.47899  -0.46902  -0.46423  -0.46035
 Alpha  occ. eigenvalues --   -0.45804  -0.45664  -0.45461  -0.43840  -0.43783
 Alpha virt. eigenvalues --    0.19322   0.22805   0.23897   0.24014   0.25846
 Alpha virt. eigenvalues --    0.26423   0.26691   0.28040   0.28512   0.29454
 Alpha virt. eigenvalues --    0.30593   0.31680   0.31777   0.31819   0.32049

 Mulliken charges:
               1
     1  C   -0.299635
     2  C   -0.304998
     3  C   -0.478464
     4  H    0.151565
     5  H    0.149486
     6  H    0.156393
     7  H    0.152585
     8  H    0.155876
     9  H    0.156213
    10  H    0.160296
    11  C   -0.298970
    12  C   -0.299682
    13  C   -0.475711
    14  H    0.150616
    15  H    0.149407
    16  H    0.152171
    17  H    0.151813
    18  H    0.155119
    19  H    0.155124
    20  H    0.160160
    21  C   -0.302254
    22  C   -0.299643
    23  C   -0.475820
    24  H    0.149639
    25  H    0.152037
    26  H    0.152241
    27  H    0.152301
    28  H    0.155272
    29  H    0.155205
    30  H    0.160539
    31  C   -0.297500
    32  C   -0.309166
    33  C   -0.475496
    34  H    0.149915
    35  H    0.150023
    36  H    0.151602
    37  H    0.160530
    38  H    0.155446
    39  H    0.155597
    40  H    0.160170
 Sum of Mulliken charges =  -0.00000

 Dipole moment (field-independent basis, Debye):
    X=             -0.0185    Y=              0.0053    Z=              0.0006  Tot=              0.0192
 Quadrupole moment (field-independent basis, Debye-Ang):
   XX=            -84.5063   YY=            -85.7753   ZZ=            -84.3878
   XY=             -1.0498   XZ=              0.7386   YZ=             -0.7215

 Normal termination of Gaussian 16 at Wed May  5 21:22:27 2021.
