 Gaussian 16, Revision A.03,
 Gaussian 16:  EM64L-G16RevA.03 25-Dec-2016

 -------------
 #p 6-31g* mp2
 -------------

 ------------------------------------------------------
 Input file generated by CHIRIPA (05-May-2021 14:53:13)
 ------------------------------------------------------
 Symbolic Z-matrix:
 Charge =  0 Multiplicity = 1

                         Standard orientation:
 ---------------------------------------------------------------------
 Center     Atomic      Atomic             Coordinates (Angstroms)
 Number     Number       Type             X           Y           Z
 ---------------------------------------------------------------------
      1          6           0       -3.603490    0.957565   -0.217627
      2          6           0       -2.286584    1.425260   -0.838115
      3          6           0       -2.074812    2.933929   -0.708244
      4          1           0       -4.436714    1.488888   -0.697604
      5          1           0       -3.621838    1.241313    0.843761
      6          1           0       -2.270135    1.139492   -1.897682
      7          1           0       -1.456411    0.892621   -0.356738
      8          1           0       -2.064808    3.232275    0.345079
      9          1           0       -2.883155    3.480549   -1.204620
     10          1           0       -1.127470    3.246574   -1.158418
     11          6           0       -3.829509   -0.548351   -0.339532
     12          6           0       -5.146415   -1.016047    0.280955
     13          6           0       -5.358187   -2.524716    0.151085
     14          1           0       -3.811161   -0.832100   -1.400921
     15          1           0       -2.996285   -1.079675    0.140444
     16          1           0       -5.976588   -0.483408   -0.200422
     17          1           0       -5.162864   -0.730279    1.340522
     18          1           0       -4.549844   -3.071336    0.647461
     19          1           0       -5.368191   -2.823062   -0.902238
     20          1           0       -6.305529   -2.837361    0.601259
     21          6           0        0.856781    0.938750    1.202466
     22          6           0        0.846958   -0.430302    0.915897
     23          6           0        1.975299   -1.049565    0.370087
     24          6           0        3.101386   -0.266058    0.122431
     25          6           0        3.142081    1.100042    0.397033
     26          6           0        2.002291    1.698214    0.942577
     27          1           0       -0.024189    1.411616    1.626361
     28          1           0       -0.041254   -1.022593    1.116686
     29          1           0        1.994967   -2.107605    0.138604
     30          1           0        4.042320    1.664315    0.185885
     31          1           0        2.012779    2.761629    1.164121
     32          7           0        4.301970   -0.910479   -0.455253
     33          8           0        5.281537   -0.198129   -0.664160
     34          8           0        4.240687   -2.115725   -0.688196
 ---------------------------------------------------------------------

 SCF Done:  E(RHF) =  -669.534525425     A.U. after   15 cycles
 E2 =    -0.2093225881D+01 EUMP2 =    -0.67162775130628D+03

 The electronic state is 1-A.
 Alpha  occ. eigenvalues --  -20.60786 -20.60781 -15.85841 -11.31222 -11.27803
 Alpha  occ. eigenvalues --  -11.27799 -11.27536 -11.26815 -11.26799 -11.22324
 Alpha  occ. eigenvalues --  -11.22270 -11.22211 -11.22156 -11.21948 -11.21636
 Alpha  occ. eigenvalues --   -1.59861  -1.39414  -1.19409  -1.09222  -1.08798
 Alpha  occ. eigenvalues --   -1.04813  -1.04272  -0.96734  -0.95631  -0.87744
 Alpha  occ. eigenvalues --   -0.86215  -0.82461  -0.80328  -0.79025  -0.77499
 Alpha  occ. eigenvalues --   -0.72060  -0.71185  -0.70554  -0.65901  -0.65057
 Alpha  occ. eigenvalues --   -0.64792  -0.62159  -0.61690  -0.60091  -0.58330
 Alpha  occ. eigenvalues --   -0.56102  -0.55242  -0.53413  -0.53161  -0.53117
 Alpha  occ. eigenvalues --   -0.52901  -0.50688  -0.48820  -0.48814  -0.48630
 Alpha  occ. eigenvalues --   -0.47379  -0.46561  -0.46498  -0.44817  -0.44531
 Alpha  occ. eigenvalues --   -0.37305  -0.36400
 Alpha virt. eigenvalues --    0.05012   0.11096   0.16441   0.19019   0.22707
 Alpha virt. eigenvalues --    0.23253   0.24872   0.25928   0.27149   0.28641
 Alpha virt. eigenvalues --    0.28900   0.30437   0.30906   0.31396   0.32148

 Mulliken charges:
               1
     1  C   -0.298666
     2  C   -0.308247
     3  C   -0.477283
     4  H    0.153321
     5  H    0.144945
     6  H    0.156991
     7  H    0.153410
     8  H    0.147267
     9  H    0.160014
    10  H    0.162988
    11  C   -0.297521
    12  C   -0.300125
    13  C   -0.475881
    14  H    0.153618
    15  H    0.141536
    16  H    0.154508
    17  H    0.151275
    18  H    0.153712
    19  H    0.157187
    20  H    0.162560
    21  C   -0.169628
    22  C   -0.219473
    23  C   -0.171454
    24  C    0.158386
    25  C   -0.170824
    26  C   -0.220585
    27  H    0.228999
    28  H    0.225446
    29  H    0.276051
    30  H    0.275870
    31  H    0.224124
    32  N    0.488100
    33  O   -0.460352
    34  O   -0.460270
 Sum of Mulliken charges =  -0.00000

 Dipole moment (field-independent basis, Debye):
    X=             -4.3016    Y=              2.2687    Z=              1.9400  Tot=              5.2359
 Quadrupole moment (field-independent basis, Debye-Ang):
   XX=           -119.6717   YY=            -93.3186   ZZ=            -94.1882
   XY=             10.3954   XZ=              6.6212   YZ=             -0.4416

 Normal termination of Gaussian 16 at Thu May  6 07:20:58 2021.
