 Gaussian 16, Revision A.03,
 Gaussian 16:  EM64L-G16RevA.03 25-Dec-2016

 -------------
 #p 6-31g* mp2
 -------------

 ------------------------------------------------------
 Input file generated by CHIRIPA (05-May-2021 14:53:12)
 ------------------------------------------------------
 Symbolic Z-matrix:
 Charge =  0 Multiplicity = 1

                         Standard orientation:
 ---------------------------------------------------------------------
 Center     Atomic      Atomic             Coordinates (Angstroms)
 Number     Number       Type             X           Y           Z
 ---------------------------------------------------------------------
      1          6           0       -5.070958    0.006314    0.177253
      2          6           0       -5.369675    1.467229   -0.161094
      3          6           0       -6.867959    1.767832   -0.211873
      4          1           0       -5.551340   -0.641764   -0.568518
      5          1           0       -5.528198   -0.239378    1.145737
      6          1           0       -4.910835    1.710482   -1.128002
      7          1           0       -4.888367    2.111912    0.585459
      8          1           0       -7.336973    1.552718    0.753711
      9          1           0       -7.359568    1.149006   -0.969486
     10          1           0       -7.058767    2.817680   -0.455330
     11          6           0       -3.577347   -0.309737    0.231712
     12          6           0       -3.278630   -1.770652    0.570059
     13          6           0       -1.780347   -2.071255    0.620837
     14          1           0       -3.120108   -0.064045   -0.736773
     15          1           0       -3.096966    0.338341    0.977482
     16          1           0       -3.759938   -2.415335   -0.176495
     17          1           0       -3.737470   -2.013905    1.536966
     18          1           0       -1.288737   -1.452429    1.378450
     19          1           0       -1.311333   -1.856141   -0.344747
     20          1           0       -1.589539   -3.121103    0.864294
     21          6           0        5.261283    1.624078    0.584156
     22          6           0        4.041810    2.176475    0.178860
     23          6           0        2.991539    1.351883   -0.235299
     24          6           0        3.196199   -0.027027   -0.231670
     25          6           0        4.399443   -0.607535    0.166457
     26          6           0        5.435899    0.236283    0.576674
     27          1           0        6.071793    2.272109    0.904354
     28          1           0        3.903362    3.253905    0.183646
     29          1           0        2.037099    1.752934   -0.554077
     30          1           0        4.507550   -1.685257    0.150885
     31          1           0        6.381872   -0.195503    0.890907
     32          7           0        2.091637   -0.910162   -0.668034
     33          8           0        2.297190   -2.121868   -0.655718
     34          8           0        1.041243   -0.373934   -1.014112
 ---------------------------------------------------------------------

 SCF Done:  E(RHF) =  -669.536122427     A.U. after   15 cycles
 E2 =    -0.2091104818D+01 EUMP2 =    -0.67162722724454D+03

 The electronic state is 1-A.
 Alpha  occ. eigenvalues --  -20.60921 -20.60900 -15.85935 -11.31273 -11.27835
 Alpha  occ. eigenvalues --  -11.27831 -11.27575 -11.26845 -11.26835 -11.21025
 Alpha  occ. eigenvalues --  -11.20635 -11.20610 -11.20425 -11.20355 -11.19347
 Alpha  occ. eigenvalues --   -1.59964  -1.39521  -1.19440  -1.08842  -1.07549
 Alpha  occ. eigenvalues --   -1.04838  -1.02574  -0.95684  -0.94992  -0.86238
 Alpha  occ. eigenvalues --   -0.86001  -0.82516  -0.78677  -0.77567  -0.77312
 Alpha  occ. eigenvalues --   -0.72157  -0.71275  -0.70549  -0.65095  -0.64841
 Alpha  occ. eigenvalues --   -0.64190  -0.62185  -0.59977  -0.58443  -0.56601
 Alpha  occ. eigenvalues --   -0.55344  -0.54277  -0.53170  -0.52930  -0.51694
 Alpha  occ. eigenvalues --   -0.51423  -0.49155  -0.48908  -0.48705  -0.46934
 Alpha  occ. eigenvalues --   -0.45719  -0.45005  -0.44810  -0.44669  -0.42839
 Alpha  occ. eigenvalues --   -0.37419  -0.36439
 Alpha virt. eigenvalues --    0.04957   0.11216   0.16451   0.21351   0.23677
 Alpha virt. eigenvalues --    0.25326   0.27266   0.27509   0.28183   0.28369
 Alpha virt. eigenvalues --    0.29099   0.30922   0.32387   0.32442   0.32600

 Mulliken charges:
               1
     1  C   -0.297557
     2  C   -0.298805
     3  C   -0.475118
     4  H    0.148730
     5  H    0.147113
     6  H    0.151866
     7  H    0.149715
     8  H    0.154070
     9  H    0.154848
    10  H    0.157880
    11  C   -0.297153
    12  C   -0.300117
    13  C   -0.479750
    14  H    0.154450
    15  H    0.146132
    16  H    0.149111
    17  H    0.145465
    18  H    0.146785
    19  H    0.182635
    20  H    0.155191
    21  C   -0.170641
    22  C   -0.218580
    23  C   -0.170862
    24  C    0.158412
    25  C   -0.170764
    26  C   -0.218596
    27  H    0.225893
    28  H    0.223755
    29  H    0.275888
    30  H    0.275884
    31  H    0.223743
    32  N    0.488962
    33  O   -0.459046
    34  O   -0.459538
 Sum of Mulliken charges =  -0.00000

 Dipole moment (field-independent basis, Debye):
    X=              4.2261    Y=              3.0963    Z=              1.3993  Tot=              5.4226
 Quadrupole moment (field-independent basis, Debye-Ang):
   XX=            -70.9189   YY=            -92.2013   ZZ=            -95.3853
   XY=              7.7655   XZ=              5.0115   YZ=             -0.9861

 Normal termination of Gaussian 16 at Wed May  5 18:30:35 2021.
