 Gaussian 16, Revision A.03,
 Gaussian 16:  EM64L-G16RevA.03 25-Dec-2016

 -------------
 #p 6-31g* mp2
 -------------

 ------------------------------------------------------
 Input file generated by CHIRIPA (05-May-2021 14:51:14)
 ------------------------------------------------------
 Symbolic Z-matrix:
 Charge =  0 Multiplicity = 1

                         Standard orientation:
 ---------------------------------------------------------------------
 Center     Atomic      Atomic             Coordinates (Angstroms)
 Number     Number       Type             X           Y           Z
 ---------------------------------------------------------------------
      1          6           0        3.955033   -0.485895    0.378800
      2          6           0        2.821396    0.534966    0.482212
      3          6           0        1.516457   -0.080028    0.988876
      4          1           0        3.646962   -1.299775   -0.291750
      5          1           0        4.121401   -0.939896    1.365512
      6          1           0        2.658146    0.987906   -0.504100
      7          1           0        3.132276    1.346607    1.152443
      8          1           0        1.656586   -0.515792    1.983399
      9          1           0        1.179762   -0.876531    0.317444
     10          1           0        0.719593    0.667286    1.055131
     11          6           0        5.266119    0.113808   -0.126312
     12          6           0        6.399756   -0.907053   -0.229725
     13          6           0        7.704696   -0.292058   -0.736389
     14          1           0        5.099752    0.567809   -1.113024
     15          1           0        5.574191    0.927688    0.544237
     16          1           0        6.088876   -1.718693   -0.899956
     17          1           0        6.563006   -1.359992    0.756587
     18          1           0        8.041390    0.504444   -0.064956
     19          1           0        7.564566    0.143705   -1.730911
     20          1           0        8.501559   -1.039372   -0.802644
     21          6           0       -5.357514    0.133932   -0.277240
     22          6           0       -5.952345   -1.231432    0.069085
     23          6           0       -7.447413   -1.320170   -0.238635
     24          1           0       -5.894984    0.913069    0.280450
     25          1           0       -5.526245    0.339879   -1.343313
     26          1           0       -5.781323   -1.435350    1.133879
     27          1           0       -5.413271   -2.007427   -0.489348
     28          1           0       -7.632887   -1.142477   -1.302884
     29          1           0       -8.003031   -0.567151    0.329565
     30          1           0       -7.852080   -2.304544    0.016535
     31          6           0       -3.863638    0.238154    0.024753
     32          6           0       -3.268808    1.603520   -0.321572
     33          6           0       -1.773740    1.692256   -0.013852
     34          1           0       -3.694908    0.032209    1.090826
     35          1           0       -3.326168   -0.540982   -0.532937
     36          1           0       -3.807882    2.379513    0.236861
     37          1           0       -3.439829    1.807437   -1.386366
     38          1           0       -1.218121    0.939238   -0.582053
     39          1           0       -1.588265    1.514565    1.050396
     40          1           0       -1.369073    2.676630   -0.269023
 ---------------------------------------------------------------------

 SCF Done:  E(RHF) =  -470.732714827     A.U. after   11 cycles
 E2 =    -0.1582538270D+01 EUMP2 =    -0.47231525309708D+03

 The electronic state is 1-A.
 Alpha  occ. eigenvalues --  -11.21597 -11.21594 -11.21567 -11.21508 -11.21397
 Alpha  occ. eigenvalues --  -11.21349 -11.21338 -11.21286 -11.21067 -11.21066
 Alpha  occ. eigenvalues --  -11.21045 -11.20873  -1.08427  -1.08367  -1.03544
 Alpha  occ. eigenvalues --   -1.03446  -0.96032  -0.95863  -0.87094  -0.86842
 Alpha  occ. eigenvalues --   -0.79661  -0.79466  -0.78239  -0.78180  -0.65057
 Alpha  occ. eigenvalues --   -0.64998  -0.60946  -0.60841  -0.59358  -0.59316
 Alpha  occ. eigenvalues --   -0.57716  -0.57400  -0.55312  -0.55156  -0.52972
 Alpha  occ. eigenvalues --   -0.52643  -0.52373  -0.52022  -0.49967  -0.49809
 Alpha  occ. eigenvalues --   -0.48001  -0.47717  -0.46641  -0.46544  -0.45776
 Alpha  occ. eigenvalues --   -0.45725  -0.45700  -0.45650  -0.43801  -0.43641
 Alpha virt. eigenvalues --    0.22522   0.22962   0.23683   0.24705   0.26433
 Alpha virt. eigenvalues --    0.26657   0.26971   0.27504   0.27671   0.29008
 Alpha virt. eigenvalues --    0.30032   0.31416   0.31757   0.31877   0.32116

 Mulliken charges:
               1
     1  C   -0.298272
     2  C   -0.299132
     3  C   -0.483708
     4  H    0.149277
     5  H    0.149334
     6  H    0.151563
     7  H    0.151421
     8  H    0.153560
     9  H    0.153279
    10  H    0.172902
    11  C   -0.298151
    12  C   -0.299565
    13  C   -0.475656
    14  H    0.149336
    15  H    0.149513
    16  H    0.151809
    17  H    0.151851
    18  H    0.155123
    19  H    0.155097
    20  H    0.160113
    21  C   -0.298295
    22  C   -0.299626
    23  C   -0.475703
    24  H    0.149618
    25  H    0.149445
    26  H    0.152010
    27  H    0.151946
    28  H    0.155141
    29  H    0.155163
    30  H    0.160252
    31  C   -0.298200
    32  C   -0.300231
    33  C   -0.478782
    34  H    0.149767
    35  H    0.149729
    36  H    0.151800
    37  H    0.151792
    38  H    0.158842
    39  H    0.155483
    40  H    0.160157
 Sum of Mulliken charges =  -0.00000

 Dipole moment (field-independent basis, Debye):
    X=             -0.0457    Y=              0.0198    Z=              0.0002  Tot=              0.0498
 Quadrupole moment (field-independent basis, Debye-Ang):
   XX=            -87.1161   YY=            -84.8097   ZZ=            -83.1008
   XY=             -0.5030   XZ=              0.2180   YZ=              0.6276

 Normal termination of Gaussian 16 at Thu May  6 04:00:51 2021.
