 Gaussian 16, Revision A.03,
 Gaussian 16:  EM64L-G16RevA.03 25-Dec-2016

 -------------
 #p 6-31g* mp2
 -------------

 ------------------------------------------------------
 Input file generated by CHIRIPA (05-May-2021 14:57:25)
 ------------------------------------------------------
 Symbolic Z-matrix:
 Charge =  0 Multiplicity = 1

                         Standard orientation:
 ---------------------------------------------------------------------
 Center     Atomic      Atomic             Coordinates (Angstroms)
 Number     Number       Type             X           Y           Z
 ---------------------------------------------------------------------
      1          6           0       -2.172852   -2.221161   -0.875829
      2          6           0       -3.164991   -1.926641    0.065149
      3          6           0       -3.454153   -0.600605    0.400651
      4          6           0       -2.728476    0.410686   -0.227020
      5          6           0       -1.734123    0.149332   -1.168427
      6          6           0       -1.461837   -1.184062   -1.488533
      7          1           0       -1.954779   -3.254115   -1.130475
      8          1           0       -3.718772   -2.730031    0.542575
      9          1           0       -4.217064   -0.344290    1.125694
     10          1           0       -1.198924    0.971627   -1.627569
     11          1           0       -0.690787   -1.409822   -2.219668
     12          7           0       -3.025665    1.818396    0.120012
     13          8           0       -2.372127    2.691248   -0.447135
     14          8           0       -3.906513    2.022252    0.952590
     15          6           0        1.131779   -1.863106    1.348736
     16          6           0        1.553010   -0.743485    2.073673
     17          6           0        2.410494    0.196295    1.493948
     18          6           0        2.829122   -0.015835    0.181302
     19          6           0        2.426990   -1.121224   -0.566825
     20          6           0        1.569343   -2.048077    0.033119
     21          1           0        0.465602   -2.588129    1.806933
     22          1           0        1.214794   -0.597260    3.095570
     23          1           0        2.752081    1.071996    2.032357
     24          1           0        2.781026   -1.239857   -1.583685
     25          1           0        1.243833   -2.916653   -0.532267
     26          7           0        3.736989    0.972226   -0.443130
     27          8           0        4.091545    0.762433   -1.601109
     28          8           0        4.076830    1.937750    0.237242
 ---------------------------------------------------------------------

 SCF Done:  E(RHF) =  -868.335848788     A.U. after   16 cycles
 E2 =    -0.2602863171D+01 EUMP2 =    -0.87093871195861D+03

 The electronic state is 1-A.
 Alpha  occ. eigenvalues --  -20.61116 -20.61096 -20.61031 -20.61007 -15.86164
 Alpha  occ. eigenvalues --  -15.86081 -11.31669 -11.31553 -11.28245 -11.28180
 Alpha  occ. eigenvalues --  -11.28170 -11.28067 -11.28066 -11.27876 -11.27357
 Alpha  occ. eigenvalues --  -11.27303 -11.27264 -11.27102  -1.60182  -1.60096
 Alpha  occ. eigenvalues --   -1.39731  -1.39646  -1.19865  -1.19724  -1.09269
 Alpha  occ. eigenvalues --   -1.09091  -1.05299  -1.05137  -0.96059  -0.95918
 Alpha  occ. eigenvalues --   -0.86720  -0.86520  -0.82883  -0.82756  -0.77905
 Alpha  occ. eigenvalues --   -0.77778  -0.72379  -0.72295  -0.71509  -0.71423
 Alpha  occ. eigenvalues --   -0.71007  -0.70829  -0.65530  -0.65415  -0.65352
 Alpha  occ. eigenvalues --   -0.65107  -0.62662  -0.62462  -0.55836  -0.55649
 Alpha  occ. eigenvalues --   -0.54058  -0.53391  -0.53269  -0.53017  -0.49153
 Alpha  occ. eigenvalues --   -0.49125  -0.49065  -0.49043  -0.45104  -0.45029
 Alpha  occ. eigenvalues --   -0.38309  -0.37493  -0.37180  -0.36158
 Alpha virt. eigenvalues --    0.04520   0.04831   0.10203   0.11450   0.15862
 Alpha virt. eigenvalues --    0.16368   0.19540   0.21802   0.25589   0.26790
 Alpha virt. eigenvalues --    0.28058   0.28537   0.30194   0.30736   0.32291

 Mulliken charges:
               1
     1  C   -0.177638
     2  C   -0.220515
     3  C   -0.172517
     4  C    0.159135
     5  C   -0.169616
     6  C   -0.209862
     7  H    0.220872
     8  H    0.222809
     9  H    0.276157
    10  H    0.279698
    11  H    0.220869
    12  N    0.487491
    13  O   -0.456495
    14  O   -0.460551
    15  C   -0.165481
    16  C   -0.218529
    17  C   -0.169100
    18  C    0.159158
    19  C   -0.177212
    20  C   -0.214532
    21  H    0.223674
    22  H    0.226234
    23  H    0.279056
    24  H    0.272895
    25  H    0.214258
    26  N    0.488084
    27  O   -0.461898
    28  O   -0.456444
 Sum of Mulliken charges =  -0.00000

 Dipole moment (field-independent basis, Debye):
    X=             -2.1235    Y=             -8.1715    Z=              1.0987  Tot=              8.5141
 Quadrupole moment (field-independent basis, Debye-Ang):
   XX=           -127.4413   YY=           -108.3080   ZZ=            -98.3603
   XY=              5.4588   XZ=              6.4400   YZ=              1.2876

 Normal termination of Gaussian 16 at Thu May  6 22:54:31 2021.
