 Gaussian 16, Revision A.03,
 Gaussian 16:  EM64L-G16RevA.03 25-Dec-2016

 -------------
 #p 6-31g* mp2
 -------------

 ------------------------------------------------------
 Input file generated by CHIRIPA (05-May-2021 14:57:25)
 ------------------------------------------------------
 Symbolic Z-matrix:
 Charge =  0 Multiplicity = 1

                         Standard orientation:
 ---------------------------------------------------------------------
 Center     Atomic      Atomic             Coordinates (Angstroms)
 Number     Number       Type             X           Y           Z
 ---------------------------------------------------------------------
      1          6           0        1.571634    0.201179    0.251364
      2          6           0        2.111257   -0.985916   -0.254734
      3          6           0        3.495373   -1.142367   -0.374291
      4          6           0        4.314178   -0.086625    0.023525
      5          6           0        3.806808    1.108286    0.531514
      6          6           0        2.419636    1.242655    0.642183
      7          1           0        0.495232    0.314137    0.340786
      8          1           0        1.455099   -1.796413   -0.559030
      9          1           0        3.939841   -2.050629   -0.762785
     10          1           0        4.486317    1.898597    0.826633
     11          1           0        2.003357    2.165694    1.035572
     12          7           0        5.781097   -0.240565   -0.098340
     13          8           0        6.481005    0.704433    0.259075
     14          8           0        6.203183   -1.303305   -0.548966
     15          6           0       -4.979292   -2.268762    0.294793
     16          6           0       -3.598390   -2.059217    0.219147
     17          6           0       -3.084711   -0.772518    0.031824
     18          6           0       -3.984738    0.286512   -0.076325
     19          6           0       -5.365687    0.109924   -0.005018
     20          6           0       -5.856985   -1.185433    0.182666
     21          1           0       -5.369637   -3.271663    0.440451
     22          1           0       -2.914397   -2.898665    0.305897
     23          1           0       -2.020184   -0.581895   -0.030322
     24          1           0       -6.022617    0.966528   -0.094968
     25          1           0       -6.929886   -1.345192    0.241038
     26          7           0       -3.452776    1.653264   -0.274827
     27          8           0       -4.266730    2.569555   -0.367174
     28          8           0       -2.231942    1.782355   -0.334308
 ---------------------------------------------------------------------

 SCF Done:  E(RHF) =  -868.338422788     A.U. after   16 cycles
 E2 =    -0.2599299555D+01 EUMP2 =    -0.87093772234311D+03

 The electronic state is 1-A.
 Alpha  occ. eigenvalues --  -20.61830 -20.61778 -20.60544 -20.60533 -15.86848
 Alpha  occ. eigenvalues --  -15.85594 -11.32116 -11.30902 -11.28776 -11.28599
 Alpha  occ. eigenvalues --  -11.28328 -11.27677 -11.27585 -11.27524 -11.27432
 Alpha  occ. eigenvalues --  -11.27149 -11.26553 -11.26361  -1.60864  -1.59618
 Alpha  occ. eigenvalues --   -1.40429  -1.39174  -1.20261  -1.19070  -1.09660
 Alpha  occ. eigenvalues --   -1.08463  -1.05659  -1.04472  -0.96524  -0.95308
 Alpha  occ. eigenvalues --   -0.87058  -0.85867  -0.83369  -0.82149  -0.78449
 Alpha  occ. eigenvalues --   -0.77215  -0.73080  -0.72172  -0.71813  -0.71374
 Alpha  occ. eigenvalues --   -0.70941  -0.70141  -0.65918  -0.65657  -0.64721
 Alpha  occ. eigenvalues --   -0.64479  -0.63030  -0.61826  -0.56132  -0.54933
 Alpha  occ. eigenvalues --   -0.53972  -0.53737  -0.52795  -0.52564  -0.49840
 Alpha  occ. eigenvalues --   -0.49794  -0.48571  -0.48566  -0.45852  -0.44592
 Alpha  occ. eigenvalues --   -0.38203  -0.37250  -0.37023  -0.36080
 Alpha virt. eigenvalues --    0.04103   0.05332   0.10405   0.11578   0.15638
 Alpha virt. eigenvalues --    0.16843   0.18559   0.21894   0.25108   0.26848
 Alpha virt. eigenvalues --    0.27631   0.28965   0.30463   0.30951   0.32627

 Mulliken charges:
               1
     1  C   -0.178044
     2  C   -0.220197
     3  C   -0.170871
     4  C    0.157802
     5  C   -0.170868
     6  C   -0.220125
     7  H    0.240728
     8  H    0.214348
     9  H    0.273574
    10  H    0.275608
    11  H    0.230578
    12  N    0.488124
    13  O   -0.460346
    14  O   -0.462098
    15  C   -0.169610
    16  C   -0.219856
    17  C   -0.170991
    18  C    0.157657
    19  C   -0.169283
    20  C   -0.218152
    21  H    0.228898
    22  H    0.223834
    23  H    0.270590
    24  H    0.278018
    25  H    0.226852
    26  N    0.490538
    27  O   -0.454096
    28  O   -0.472612
 Sum of Mulliken charges =  -0.00000

 Dipole moment (field-independent basis, Debye):
    X=             -7.4708    Y=             -4.1523    Z=              1.1733  Tot=              8.6273
 Quadrupole moment (field-independent basis, Debye-Ang):
   XX=           -129.2046   YY=           -103.0816   ZZ=           -105.8880
   XY=             20.9119   XZ=             -0.5273   YZ=              2.4751

 Normal termination of Gaussian 16 at Thu May  6 21:17:30 2021.
