 Gaussian 16, Revision A.03,
 Gaussian 16:  EM64L-G16RevA.03 25-Dec-2016

 -------------
 #p 6-31g* mp2
 -------------

 ------------------------------------------------------
 Input file generated by CHIRIPA (05-May-2021 14:51:14)
 ------------------------------------------------------
 Symbolic Z-matrix:
 Charge =  0 Multiplicity = 1

                         Standard orientation:
 ---------------------------------------------------------------------
 Center     Atomic      Atomic             Coordinates (Angstroms)
 Number     Number       Type             X           Y           Z
 ---------------------------------------------------------------------
      1          6           0       -2.270322    0.839498    0.072078
      2          6           0       -2.352089    2.360904   -0.056845
      3          6           0       -1.206230    3.077225    0.658477
      4          1           0       -2.273502    0.567383    1.136450
      5          1           0       -1.309895    0.495028   -0.335741
      6          1           0       -3.312663    2.702263    0.349835
      7          1           0       -2.348907    2.629418   -1.121038
      8          1           0       -0.240613    2.765099    0.247671
      9          1           0       -1.209845    2.838357    1.726901
     10          1           0       -1.284295    4.163847    0.553512
     11          6           0       -3.408979    0.109288   -0.637838
     12          6           0       -3.327212   -1.412119   -0.508914
     13          6           0       -4.473071   -2.128439   -1.224236
     14          1           0       -4.369406    0.453758   -0.230018
     15          1           0       -3.405799    0.381403   -1.702210
     16          1           0       -3.330394   -1.680632    0.555279
     17          1           0       -2.366639   -1.753477   -0.915595
     18          1           0       -4.469456   -1.889572   -2.292661
     19          1           0       -5.438688   -1.816313   -0.813430
     20          1           0       -4.395006   -3.215061   -1.119271
     21          6           0        3.018721   -0.457837   -0.459476
     22          6           0        4.392283    0.153308   -0.738422
     23          6           0        4.736232    0.179414   -2.227989
     24          1           0        2.990615   -1.479780   -0.861705
     25          1           0        2.253682    0.113319   -1.003435
     26          1           0        5.154350   -0.417987   -0.192994
     27          1           0        4.417186    1.173847   -0.335312
     28          1           0        3.997655    0.766198   -2.783677
     29          1           0        4.739008   -0.834679   -2.640550
     30          1           0        5.722289    0.620253   -2.404666
     31          6           0        2.660581   -0.490948    1.025236
     32          6           0        1.287018   -1.102094    1.304181
     33          6           0        0.943069   -1.128200    2.793749
     34          1           0        3.425619   -1.062105    1.569195
     35          1           0        2.688686    0.530994    1.427465
     36          1           0        1.262115   -2.122632    0.901072
     37          1           0        0.524950   -0.530799    0.758754
     38          1           0        0.940293   -0.114106    3.206311
     39          1           0        1.681646   -1.714984    3.349437
     40          1           0       -0.042987   -1.569039    2.970425
 ---------------------------------------------------------------------

 SCF Done:  E(RHF) =  -470.733267700     A.U. after   11 cycles
 E2 =    -0.1583376586D+01 EUMP2 =    -0.47231664428654D+03

 The electronic state is 1-A.
 Alpha  occ. eigenvalues --  -11.21659 -11.21615 -11.21600 -11.21484 -11.21444
 Alpha  occ. eigenvalues --  -11.21394 -11.21384 -11.21316 -11.21148 -11.21082
 Alpha  occ. eigenvalues --  -11.21076 -11.21015  -1.08482  -1.08395  -1.03572
 Alpha  occ. eigenvalues --   -1.03491  -0.96024  -0.95948  -0.87040  -0.86966
 Alpha  occ. eigenvalues --   -0.79649  -0.79554  -0.78381  -0.78127  -0.65159
 Alpha  occ. eigenvalues --   -0.64986  -0.60979  -0.60886  -0.59389  -0.59318
 Alpha  occ. eigenvalues --   -0.57663  -0.57529  -0.55322  -0.55232  -0.52716
 Alpha  occ. eigenvalues --   -0.52642  -0.52455  -0.52372  -0.49984  -0.49885
 Alpha  occ. eigenvalues --   -0.48024  -0.47852  -0.46791  -0.46600  -0.46080
 Alpha  occ. eigenvalues --   -0.45779  -0.45727  -0.45194  -0.43825  -0.43750
 Alpha virt. eigenvalues --    0.20606   0.23152   0.23935   0.24548   0.24940
 Alpha virt. eigenvalues --    0.26489   0.26801   0.28107   0.28444   0.29489
 Alpha virt. eigenvalues --    0.31192   0.31355   0.31632   0.31848   0.32286

 Mulliken charges:
               1
     1  C   -0.304454
     2  C   -0.299156
     3  C   -0.476324
     4  H    0.150869
     5  H    0.154576
     6  H    0.152305
     7  H    0.151929
     8  H    0.154345
     9  H    0.155558
    10  H    0.160788
    11  C   -0.297653
    12  C   -0.300098
    13  C   -0.475711
    14  H    0.149646
    15  H    0.149581
    16  H    0.151799
    17  H    0.152782
    18  H    0.155211
    19  H    0.155178
    20  H    0.160376
    21  C   -0.298208
    22  C   -0.299625
    23  C   -0.475679
    24  H    0.149656
    25  H    0.147889
    26  H    0.152133
    27  H    0.152065
    28  H    0.154927
    29  H    0.155140
    30  H    0.160324
    31  C   -0.297946
    32  C   -0.308229
    33  C   -0.475231
    34  H    0.149288
    35  H    0.149772
    36  H    0.151039
    37  H    0.161592
    38  H    0.154986
    39  H    0.154746
    40  H    0.159815
 Sum of Mulliken charges =  -0.00000

 Dipole moment (field-independent basis, Debye):
    X=             -0.0413    Y=              0.0124    Z=             -0.0060  Tot=              0.0435
 Quadrupole moment (field-independent basis, Debye-Ang):
   XX=            -85.0195   YY=            -84.3671   ZZ=            -85.3875
   XY=             -0.9706   XZ=             -0.4138   YZ=             -0.2195

 Normal termination of Gaussian 16 at Wed May  5 23:15:58 2021.
