 Gaussian 16, Revision A.03,
 Gaussian 16:  EM64L-G16RevA.03 25-Dec-2016

 -------------
 #p 6-31g* mp2
 -------------

 ------------------------------------------------------
 Input file generated by CHIRIPA (05-May-2021 14:57:23)
 ------------------------------------------------------
 Symbolic Z-matrix:
 Charge =  0 Multiplicity = 1

                         Standard orientation:
 ---------------------------------------------------------------------
 Center     Atomic      Atomic             Coordinates (Angstroms)
 Number     Number       Type             X           Y           Z
 ---------------------------------------------------------------------
      1          6           0       -2.251557    1.514915    1.130019
      2          6           0       -1.903027    0.418753    0.334107
      3          6           0       -2.891470   -0.409543   -0.205759
      4          6           0       -4.224562   -0.111064    0.071846
      5          6           0       -4.603596    0.973668    0.861137
      6          6           0       -3.598354    1.788392    1.390535
      7          1           0       -1.477186    2.153084    1.545334
      8          1           0       -0.857897    0.203962    0.130118
      9          1           0       -2.649696   -1.264687   -0.825189
     10          1           0       -5.653966    1.162436    1.046896
     11          1           0       -3.871967    2.639001    2.008309
     12          7           0       -5.279874   -0.980760   -0.494145
     13          8           0       -6.447126   -0.696401   -0.234726
     14          8           0       -4.919792   -1.930320   -1.186471
     15          6           0        2.837223    1.877360   -1.281757
     16          6           0        2.192159    0.649851   -1.098355
     17          6           0        2.854764   -0.415161   -0.480900
     18          6           0        4.167942   -0.216889   -0.057176
     19          6           0        4.837643    0.994070   -0.225607
     20          6           0        4.155581    2.045256   -0.845566
     21          1           0        2.314939    2.699317   -1.762384
     22          1           0        1.168335    0.516595   -1.436102
     23          1           0        2.379208   -1.376079   -0.326301
     24          1           0        5.858568    1.096702    0.121664
     25          1           0        4.659044    2.997442   -0.986676
     26          7           0        4.879711   -1.337051    0.597822
     27          8           0        6.036346   -1.136871    0.962184
     28          8           0        4.267482   -2.394003    0.734444
 ---------------------------------------------------------------------

 SCF Done:  E(RHF) =  -868.336960426     A.U. after   16 cycles
 E2 =    -0.2599586533D+01 EUMP2 =    -0.87093654695926D+03

 The electronic state is 1-A.
 Alpha  occ. eigenvalues --  -20.61333 -20.61328 -20.61139 -20.61133 -15.86395
 Alpha  occ. eigenvalues --  -15.86198 -11.31911 -11.31666 -11.28568 -11.28487
 Alpha  occ. eigenvalues --  -11.28298 -11.28293 -11.28237 -11.28036 -11.27638
 Alpha  occ. eigenvalues --  -11.27501 -11.27369 -11.27254  -1.60407  -1.60212
 Alpha  occ. eigenvalues --   -1.39956  -1.39763  -1.20117  -1.19862  -1.09477
 Alpha  occ. eigenvalues --   -1.09236  -1.05557  -1.05292  -0.96281  -0.96049
 Alpha  occ. eigenvalues --   -0.86946  -0.86678  -0.83127  -0.82885  -0.78156
 Alpha  occ. eigenvalues --   -0.77907  -0.72608  -0.72413  -0.71735  -0.71538
 Alpha  occ. eigenvalues --   -0.71206  -0.70963  -0.65771  -0.65687  -0.65518
 Alpha  occ. eigenvalues --   -0.65222  -0.62957  -0.62571  -0.56032  -0.55777
 Alpha  occ. eigenvalues --   -0.53878  -0.53727  -0.53594  -0.53295  -0.49380
 Alpha  occ. eigenvalues --   -0.49355  -0.49180  -0.49162  -0.45328  -0.45146
 Alpha  occ. eigenvalues --   -0.38096  -0.37843  -0.37165  -0.36898
 Alpha virt. eigenvalues --    0.04396   0.04636   0.10416   0.10738   0.15709
 Alpha virt. eigenvalues --    0.16067   0.18979   0.21766   0.24812   0.27560
 Alpha virt. eigenvalues --    0.27839   0.28362   0.29754   0.31645   0.31807

 Mulliken charges:
               1
     1  C   -0.171527
     2  C   -0.223249
     3  C   -0.170864
     4  C    0.159020
     5  C   -0.169873
     6  C   -0.218436
     7  H    0.226642
     8  H    0.218998
     9  H    0.275560
    10  H    0.277390
    11  H    0.225082
    12  N    0.488075
    13  O   -0.458923
    14  O   -0.459556
    15  C   -0.171436
    16  C   -0.224883
    17  C   -0.171555
    18  C    0.158950
    19  C   -0.169364
    20  C   -0.218682
    21  H    0.227486
    22  H    0.220288
    23  H    0.275836
    24  H    0.278213
    25  H    0.225981
    26  N    0.488021
    27  O   -0.458281
    28  O   -0.458915
 Sum of Mulliken charges =  -0.00000

 Dipole moment (field-independent basis, Debye):
    X=              1.2946    Y=              7.0645    Z=             -0.2608  Tot=              7.1868
 Quadrupole moment (field-independent basis, Debye-Ang):
   XX=           -150.1569   YY=           -104.6093   ZZ=           -104.6589
   XY=              4.1635   XZ=            -19.1584   YZ=              2.0732

 Normal termination of Gaussian 16 at Thu May  6 21:10:02 2021.
