 Gaussian 16, Revision A.03,
 Gaussian 16:  EM64L-G16RevA.03 25-Dec-2016

 -------------
 #p 6-31g* mp2
 -------------

 ------------------------------------------------------
 Input file generated by CHIRIPA (05-May-2021 14:51:09)
 ------------------------------------------------------
 Symbolic Z-matrix:
 Charge =  0 Multiplicity = 1

                         Standard orientation:
 ---------------------------------------------------------------------
 Center     Atomic      Atomic             Coordinates (Angstroms)
 Number     Number       Type             X           Y           Z
 ---------------------------------------------------------------------
      1          6           0        3.562988    0.724143    0.196038
      2          6           0        4.185541   -0.661464    0.021380
      3          6           0        5.658633   -0.703317    0.428861
      4          1           0        4.130570    1.451908   -0.399911
      5          1           0        3.663002    1.033745    1.245580
      6          1           0        4.083149   -0.968950   -1.027230
      7          1           0        3.616295   -1.386048    0.617664
      8          1           0        5.775619   -0.421824    1.480373
      9          1           0        6.245125   -0.002356   -0.173868
     10          1           0        6.083681   -1.703086    0.295985
     11          6           0        2.090643    0.781973   -0.207179
     12          6           0        1.468091    2.167581   -0.032521
     13          6           0       -0.005001    2.209434   -0.440002
     14          1           0        1.990630    0.472371   -1.256721
     15          1           0        1.523062    0.054209    0.388770
     16          1           0        2.037337    2.892164   -0.628805
     17          1           0        1.570483    2.475066    1.016089
     18          1           0       -0.591493    1.508473    0.162727
     19          1           0       -0.121987    1.927940   -1.491513
     20          1           0       -0.430049    3.209203   -0.307126
     21          6           0       -2.262837   -1.014427   -0.438328
     22          6           0       -1.173442   -1.754754    0.338280
     23          6           0       -0.052114   -2.271649   -0.563515
     24          1           0       -2.682702   -1.686367   -1.199351
     25          1           0       -1.809510   -0.172876   -0.980253
     26          1           0       -1.628914   -2.593829    0.879682
     27          1           0       -0.756255   -1.081034    1.097669
     28          1           0        0.428914   -1.443156   -1.093431
     29          1           0       -0.448704   -2.964545   -1.312658
     30          1           0        0.715854   -2.797612    0.012200
     31          6           0       -3.390795   -0.491689    0.449469
     32          6           0       -4.480190    0.248637   -0.327139
     33          6           0       -5.601517    0.765534    0.574656
     34          1           0       -3.844122   -1.333240    0.991394
     35          1           0       -2.970930    0.180250    1.210491
     36          1           0       -4.897377   -0.425082   -1.086528
     37          1           0       -4.024718    1.087712   -0.868541
     38          1           0       -5.204927    1.458428    1.323798
     39          1           0       -6.082546   -0.062961    1.104571
     40          1           0       -6.369485    1.291497   -0.001060
 ---------------------------------------------------------------------

 SCF Done:  E(RHF) =  -470.730838079     A.U. after   11 cycles
 E2 =    -0.1586072086D+01 EUMP2 =    -0.47231691016485D+03

 The electronic state is 1-A.
 Alpha  occ. eigenvalues --  -11.21669 -11.21606 -11.21557 -11.21545 -11.21421
 Alpha  occ. eigenvalues --  -11.21360 -11.21336 -11.21220 -11.21167 -11.21076
 Alpha  occ. eigenvalues --  -11.21029 -11.20878  -1.08517  -1.08336  -1.03608
 Alpha  occ. eigenvalues --   -1.03444  -0.96100  -0.95853  -0.87118  -0.86871
 Alpha  occ. eigenvalues --   -0.79695  -0.79521  -0.78356  -0.78136  -0.65314
 Alpha  occ. eigenvalues --   -0.64866  -0.61097  -0.60791  -0.59396  -0.59243
 Alpha  occ. eigenvalues --   -0.57773  -0.57494  -0.55508  -0.55065  -0.52737
 Alpha  occ. eigenvalues --   -0.52598  -0.52587  -0.52175  -0.50021  -0.49745
 Alpha  occ. eigenvalues --   -0.48164  -0.47749  -0.46742  -0.46616  -0.45959
 Alpha  occ. eigenvalues --   -0.45838  -0.45562  -0.45186  -0.43830  -0.43705
 Alpha virt. eigenvalues --    0.20397   0.22696   0.23895   0.24336   0.25140
 Alpha virt. eigenvalues --    0.26178   0.26589   0.27548   0.29162   0.30089
 Alpha virt. eigenvalues --    0.30310   0.31194   0.31503   0.31890   0.32531

 Mulliken charges:
               1
     1  C   -0.297360
     2  C   -0.300319
     3  C   -0.475733
     4  H    0.149483
     5  H    0.149299
     6  H    0.152297
     7  H    0.152622
     8  H    0.155087
     9  H    0.155174
    10  H    0.160410
    11  C   -0.306740
    12  C   -0.298817
    13  C   -0.483265
    14  H    0.149453
    15  H    0.160189
    16  H    0.152080
    17  H    0.151796
    18  H    0.162471
    19  H    0.155213
    20  H    0.160932
    21  C   -0.305348
    22  C   -0.302625
    23  C   -0.482025
    24  H    0.149932
    25  H    0.157309
    26  H    0.152275
    27  H    0.150392
    28  H    0.163708
    29  H    0.154494
    30  H    0.158920
    31  C   -0.299051
    32  C   -0.299768
    33  C   -0.475679
    34  H    0.149443
    35  H    0.148987
    36  H    0.151790
    37  H    0.152815
    38  H    0.155104
    39  H    0.154966
    40  H    0.160090
 Sum of Mulliken charges =  -0.00000

 Dipole moment (field-independent basis, Debye):
    X=              0.0471    Y=              0.0421    Z=             -0.0227  Tot=              0.0671
 Quadrupole moment (field-independent basis, Debye-Ang):
   XX=            -86.4754   YY=            -84.3440   ZZ=            -84.1916
   XY=              1.0118   XZ=              0.0178   YZ=             -0.3036

 Normal termination of Gaussian 16 at Wed May  5 19:43:45 2021.
