 Gaussian 16, Revision A.03,
 Gaussian 16:  EM64L-G16RevA.03 25-Dec-2016

 -------------
 #p 6-31g* mp2
 -------------

 ------------------------------------------------------
 Input file generated by CHIRIPA (05-May-2021 14:51:07)
 ------------------------------------------------------
 Symbolic Z-matrix:
 Charge =  0 Multiplicity = 1

                         Standard orientation:
 ---------------------------------------------------------------------
 Center     Atomic      Atomic             Coordinates (Angstroms)
 Number     Number       Type             X           Y           Z
 ---------------------------------------------------------------------
      1          6           0        3.926138   -0.463404   -0.122939
      2          6           0        2.985404   -1.628211   -0.433146
      3          6           0        3.684601   -2.986378   -0.367562
      4          1           0        4.765688   -0.479787   -0.831339
      5          1           0        4.358212   -0.606498    0.877177
      6          1           0        2.554169   -1.482251   -1.431819
      7          1           0        2.147895   -1.608940    0.275955
      8          1           0        4.100228   -3.157895    0.630654
      9          1           0        4.508810   -3.030486   -1.086823
     10          1           0        2.993743   -3.804864   -0.592633
     11          6           0        3.241754    0.900983   -0.184536
     12          6           0        4.182488    2.065790    0.125671
     13          6           0        3.483291    3.423957    0.060088
     14          1           0        2.809680    1.044076   -1.184652
     15          1           0        2.402203    0.917366    0.523865
     16          1           0        5.019997    2.046519   -0.583430
     17          1           0        4.613723    1.919830    1.124344
     18          1           0        2.659082    3.468065    0.779348
     19          1           0        3.067664    3.595474   -0.938129
     20          1           0        4.174148    4.242443    0.285158
     21          6           0       -4.154664    0.269630    0.292155
     22          6           0       -5.309327    0.150749   -0.703137
     23          6           0       -6.443440    1.134340   -0.413083
     24          1           0       -4.536376    0.101957    1.308582
     25          1           0       -3.765036    1.296810    0.270082
     26          1           0       -5.695758   -0.876266   -0.680197
     27          1           0       -4.924786    0.318535   -1.717333
     28          1           0       -6.079099    2.165861   -0.455739
     29          1           0       -6.854452    0.964271    0.587290
     30          1           0       -7.258322    1.032171   -1.136540
     31          6           0       -3.013228   -0.707209    0.015321
     32          6           0       -1.858565   -0.588328    1.010612
     33          6           0       -0.724452   -1.571918    0.720558
     34          1           0       -3.402856   -1.734389    0.037393
     35          1           0       -2.631515   -0.539536   -1.001108
     36          1           0       -2.243106   -0.756114    2.024808
     37          1           0       -1.472134    0.438688    0.987672
     38          1           0       -0.313439   -1.401850   -0.279815
     39          1           0       -1.088792   -2.603440    0.763214
     40          1           0        0.090430   -1.469749    1.444015
 ---------------------------------------------------------------------

 SCF Done:  E(RHF) =  -470.732490539     A.U. after   11 cycles
 E2 =    -0.1583093886D+01 EUMP2 =    -0.47231558442494D+03

 The electronic state is 1-A.
 Alpha  occ. eigenvalues --  -11.21613 -11.21607 -11.21586 -11.21419 -11.21415
 Alpha  occ. eigenvalues --  -11.21363 -11.21355 -11.21288 -11.21075 -11.21070
 Alpha  occ. eigenvalues --  -11.21069 -11.20979  -1.08444  -1.08373  -1.03559
 Alpha  occ. eigenvalues --   -1.03456  -0.96006  -0.95922  -0.87051  -0.86919
 Alpha  occ. eigenvalues --   -0.79718  -0.79445  -0.78275  -0.78159  -0.65090
 Alpha  occ. eigenvalues --   -0.65000  -0.60990  -0.60855  -0.59430  -0.59234
 Alpha  occ. eigenvalues --   -0.57608  -0.57537  -0.55291  -0.55216  -0.52783
 Alpha  occ. eigenvalues --   -0.52593  -0.52421  -0.52336  -0.49992  -0.49839
 Alpha  occ. eigenvalues --   -0.47951  -0.47819  -0.46709  -0.46501  -0.45848
 Alpha  occ. eigenvalues --   -0.45737  -0.45673  -0.45570  -0.43763  -0.43676
 Alpha virt. eigenvalues --    0.21790   0.23100   0.23939   0.24475   0.26168
 Alpha virt. eigenvalues --    0.26404   0.26966   0.27553   0.27994   0.29447
 Alpha virt. eigenvalues --    0.30325   0.31062   0.31616   0.31886   0.32277

 Mulliken charges:
               1
     1  C   -0.297643
     2  C   -0.308383
     3  C   -0.475208
     4  H    0.149080
     5  H    0.148817
     6  H    0.149882
     7  H    0.164557
     8  H    0.154423
     9  H    0.154457
    10  H    0.160180
    11  C   -0.298700
    12  C   -0.299512
    13  C   -0.475660
    14  H    0.148966
    15  H    0.149623
    16  H    0.152024
    17  H    0.151884
    18  H    0.154965
    19  H    0.154973
    20  H    0.160243
    21  C   -0.298346
    22  C   -0.299647
    23  C   -0.475714
    24  H    0.149630
    25  H    0.149644
    26  H    0.151915
    27  H    0.151971
    28  H    0.155234
    29  H    0.155168
    30  H    0.160272
    31  C   -0.298743
    32  C   -0.299674
    33  C   -0.479109
    34  H    0.149527
    35  H    0.149922
    36  H    0.151687
    37  H    0.152069
    38  H    0.159940
    39  H    0.155115
    40  H    0.160173
 Sum of Mulliken charges =  -0.00000

 Dipole moment (field-independent basis, Debye):
    X=             -0.0468    Y=             -0.0111    Z=              0.0084  Tot=              0.0489
 Quadrupole moment (field-independent basis, Debye-Ang):
   XX=            -85.7362   YY=            -85.8839   ZZ=            -83.4543
   XY=              1.3566   XZ=             -0.3793   YZ=             -0.5725

 Normal termination of Gaussian 16 at Thu May  6 02:03:02 2021.
