 Gaussian 16, Revision A.03,
 Gaussian 16:  EM64L-G16RevA.03 25-Dec-2016

 -------------
 #p 6-31g* mp2
 -------------

 ------------------------------------------------------
 Input file generated by CHIRIPA (05-May-2021 14:51:08)
 ------------------------------------------------------
 Symbolic Z-matrix:
 Charge =  0 Multiplicity = 1

                         Standard orientation:
 ---------------------------------------------------------------------
 Center     Atomic      Atomic             Coordinates (Angstroms)
 Number     Number       Type             X           Y           Z
 ---------------------------------------------------------------------
      1          6           0       -3.090525    0.477984   -0.205993
      2          6           0       -3.042255   -0.773031   -1.083841
      3          6           0       -4.402979   -1.458563   -1.211391
      4          1           0       -3.459619    0.203978    0.791822
      5          1           0       -3.820013    1.184250   -0.626030
      6          1           0       -2.312065   -1.476146   -0.663045
      7          1           0       -2.673052   -0.496048   -2.079624
      8          1           0       -5.137802   -0.777188   -1.652260
      9          1           0       -4.774765   -1.762855   -0.227631
     10          1           0       -4.345533   -2.350463   -1.843114
     11          6           0       -1.737781    1.174411   -0.068871
     12          6           0       -1.786051    2.425426    0.808977
     13          6           0       -0.425327    3.110958    0.936528
     14          1           0       -1.008293    0.468145    0.351166
     15          1           0       -1.368687    1.448417   -1.066686
     16          1           0       -2.155254    2.148443    1.804761
     17          1           0       -2.516240    3.128540    0.388181
     18          1           0       -0.053541    3.415249   -0.047232
     19          1           0        0.309496    2.429583    1.377396
     20          1           0       -0.482773    4.002858    1.568251
     21          6           0        1.891201   -1.382931    0.136766
     22          6           0        1.166874   -1.536076    1.474630
     23          6           0        0.123756   -2.653845    1.457559
     24          1           0        1.152731   -1.185235   -0.652236
     25          1           0        2.376410   -2.334628   -0.120608
     26          1           0        0.684332   -0.583965    1.730075
     27          1           0        1.907172   -1.733241    2.260570
     28          1           0        0.593453   -3.615617    1.227385
     29          1           0       -0.636336   -2.459812    0.693876
     30          1           0       -0.381916   -2.745862    2.423834
     31          6           0        2.937106   -0.269463    0.138098
     32          6           0        3.661431   -0.116318   -1.199767
     33          6           0        4.704550    1.001450   -1.182695
     34          1           0        2.451896    0.682233    0.395471
     35          1           0        3.675575   -0.467159    0.927099
     36          1           0        2.921134    0.080846   -1.985707
     37          1           0        4.143974   -1.068430   -1.455212
     38          1           0        5.464642    0.807417   -0.419013
     39          1           0        4.234854    1.963223   -0.952521
     40          1           0        5.210222    1.093468   -2.148971
 ---------------------------------------------------------------------

 SCF Done:  E(RHF) =  -470.732764145     A.U. after   11 cycles
 E2 =    -0.1585092623D+01 EUMP2 =    -0.47231785676710D+03

 The electronic state is 1-A.
 Alpha  occ. eigenvalues --  -11.21662 -11.21648 -11.21644 -11.21580 -11.21445
 Alpha  occ. eigenvalues --  -11.21394 -11.21386 -11.21333 -11.21154 -11.21123
 Alpha  occ. eigenvalues --  -11.21095 -11.21045  -1.08515  -1.08409  -1.03586
 Alpha  occ. eigenvalues --   -1.03548  -0.96033  -0.95990  -0.87072  -0.86987
 Alpha  occ. eigenvalues --   -0.79698  -0.79568  -0.78316  -0.78244  -0.65423
 Alpha  occ. eigenvalues --   -0.64813  -0.61003  -0.60945  -0.59422  -0.59338
 Alpha  occ. eigenvalues --   -0.57679  -0.57568  -0.55348  -0.55257  -0.52726
 Alpha  occ. eigenvalues --   -0.52689  -0.52468  -0.52421  -0.50158  -0.49779
 Alpha  occ. eigenvalues --   -0.48037  -0.47928  -0.46924  -0.46414  -0.46124
 Alpha  occ. eigenvalues --   -0.45802  -0.45631  -0.45342  -0.43833  -0.43790
 Alpha virt. eigenvalues --    0.19290   0.21976   0.23717   0.24268   0.25540
 Alpha virt. eigenvalues --    0.26262   0.26910   0.27915   0.28667   0.29615
 Alpha virt. eigenvalues --    0.30858   0.31501   0.31644   0.31953   0.32420

 Mulliken charges:
               1
     1  C   -0.297179
     2  C   -0.308427
     3  C   -0.475161
     4  H    0.149896
     5  H    0.149841
     6  H    0.158972
     7  H    0.151940
     8  H    0.155324
     9  H    0.155512
    10  H    0.160441
    11  C   -0.308383
    12  C   -0.299259
    13  C   -0.479589
    14  H    0.159721
    15  H    0.149207
    16  H    0.152110
    17  H    0.152431
    18  H    0.155225
    19  H    0.157647
    20  H    0.160980
    21  C   -0.299929
    22  C   -0.303798
    23  C   -0.483972
    24  H    0.151716
    25  H    0.149759
    26  H    0.153425
    27  H    0.153139
    28  H    0.156182
    29  H    0.161882
    30  H    0.160254
    31  C   -0.301445
    32  C   -0.299525
    33  C   -0.475876
    34  H    0.152703
    35  H    0.149457
    36  H    0.152194
    37  H    0.151771
    38  H    0.155061
    39  H    0.155661
    40  H    0.160090
 Sum of Mulliken charges =  -0.00000

 Dipole moment (field-independent basis, Debye):
    X=             -0.0150    Y=              0.0000    Z=             -0.0021  Tot=              0.0152
 Quadrupole moment (field-independent basis, Debye-Ang):
   XX=            -85.6634   YY=            -84.9347   ZZ=            -84.0803
   XY=             -1.7570   XZ=              0.3163   YZ=             -0.6590

 Normal termination of Gaussian 16 at Wed May  5 18:06:13 2021.
