 Gaussian 16, Revision A.03,
 Gaussian 16:  EM64L-G16RevA.03 25-Dec-2016

 -------------
 #p 6-31g* mp2
 -------------

 ------------------------------------------------------
 Input file generated by CHIRIPA (05-May-2021 14:55:23)
 ------------------------------------------------------
 Symbolic Z-matrix:
 Charge =  0 Multiplicity = 1

                         Standard orientation:
 ---------------------------------------------------------------------
 Center     Atomic      Atomic             Coordinates (Angstroms)
 Number     Number       Type             X           Y           Z
 ---------------------------------------------------------------------
      1          6           0        1.009991   -1.601778    1.213258
      2          6           0        1.522357   -0.422205    1.763359
      3          6           0        2.589314    0.241910    1.150905
      4          6           0        3.122205   -0.304019   -0.015834
      5          6           0        2.633721   -1.477487   -0.588238
      6          6           0        1.566328   -2.124732    0.041281
      7          1           0        0.180984   -2.111126    1.695655
      8          1           0        1.092278   -0.013770    2.673446
      9          1           0        3.005382    1.156656    1.555313
     10          1           0        3.083302   -1.860372   -1.496364
     11          1           0        1.170453   -3.040639   -0.388185
     12          7           0        4.251975    0.390120   -0.673245
     13          8           0        4.703843   -0.111328   -1.700377
     14          8           0        4.664229    1.422492   -0.148942
     15          6           0       -4.430865    0.458396   -0.471752
     16          6           0       -5.229199   -0.756261    0.002856
     17          6           0       -6.572741   -0.897189   -0.713262
     18          1           0       -5.028852    1.366479   -0.314453
     19          1           0       -4.263507    0.378058   -1.554772
     20          1           0       -5.393808   -0.674345    1.084896
     21          1           0       -4.629165   -1.661539   -0.155415
     22          1           0       -6.424583   -1.003999   -1.792726
     23          1           0       -7.193573   -0.011197   -0.545369
     24          1           0       -7.126862   -1.771881   -0.358686
     25          6           0       -3.085307    0.612762    0.234913
     26          6           0       -2.286974    1.827421   -0.239695
     27          6           0       -0.943430    1.968348    0.476423
     28          1           0       -3.252665    0.693102    1.317932
     29          1           0       -2.487320   -0.295320    0.077613
     30          1           0       -2.887007    2.732697   -0.081426
     31          1           0       -2.122363    1.745504   -1.321735
     32          1           0       -0.322600    1.082356    0.308530
     33          1           0       -1.091588    2.075158    1.555887
     34          1           0       -0.389310    2.843039    0.121846
 ---------------------------------------------------------------------

 SCF Done:  E(RHF) =  -669.534599205     A.U. after   15 cycles
 E2 =    -0.2092736130D+01 EUMP2 =    -0.67162733533548D+03

 The electronic state is 1-A.
 Alpha  occ. eigenvalues --  -20.60793 -20.60788 -15.85846 -11.31238 -11.27791
 Alpha  occ. eigenvalues --  -11.27759 -11.27521 -11.26840 -11.26780 -11.22063
 Alpha  occ. eigenvalues --  -11.21932 -11.21869 -11.21784 -11.21450 -11.21273
 Alpha  occ. eigenvalues --   -1.59867  -1.39420  -1.19413  -1.08860  -1.08794
 Alpha  occ. eigenvalues --   -1.04817  -1.03902  -0.96358  -0.95627  -0.87383
 Alpha  occ. eigenvalues --   -0.86200  -0.82455  -0.79983  -0.78685  -0.77498
 Alpha  occ. eigenvalues --   -0.72063  -0.71190  -0.70498  -0.65484  -0.65053
 Alpha  occ. eigenvalues --   -0.64806  -0.62149  -0.61314  -0.59724  -0.57995
 Alpha  occ. eigenvalues --   -0.55709  -0.55299  -0.53437  -0.53019  -0.52900
 Alpha  occ. eigenvalues --   -0.52540  -0.50258  -0.48825  -0.48817  -0.48278
 Alpha  occ. eigenvalues --   -0.47001  -0.46217  -0.46146  -0.44819  -0.44175
 Alpha  occ. eigenvalues --   -0.37365  -0.36328
 Alpha virt. eigenvalues --    0.05003   0.11226   0.16426   0.21054   0.22552
 Alpha virt. eigenvalues --    0.24007   0.25871   0.26695   0.26981   0.28235
 Alpha virt. eigenvalues --    0.28502   0.30260   0.31509   0.31642   0.31668

 Mulliken charges:
               1
     1  C   -0.172195
     2  C   -0.217806
     3  C   -0.169698
     4  C    0.159338
     5  C   -0.171763
     6  C   -0.218437
     7  H    0.226726
     8  H    0.225316
     9  H    0.276202
    10  H    0.275715
    11  H    0.223687
    12  N    0.488054
    13  O   -0.460361
    14  O   -0.460000
    15  C   -0.298362
    16  C   -0.299370
    17  C   -0.475848
    18  H    0.151440
    19  H    0.150967
    20  H    0.151213
    21  H    0.148958
    22  H    0.156082
    23  H    0.156475
    24  H    0.160459
    25  C   -0.297857
    26  C   -0.298917
    27  C   -0.484600
    28  H    0.146776
    29  H    0.144717
    30  H    0.152721
    31  H    0.154040
    32  H    0.166554
    33  H    0.146694
    34  H    0.163081
 Sum of Mulliken charges =  -0.00000

 Dipole moment (field-independent basis, Debye):
    X=             -3.9500    Y=             -2.4416    Z=              2.2865  Tot=              5.1761
 Quadrupole moment (field-independent basis, Debye-Ang):
   XX=           -121.0867   YY=            -90.9536   ZZ=            -92.3214
   XY=             -7.0127   XZ=              6.7237   YZ=              2.4333

 Normal termination of Gaussian 16 at Thu May  6 03:07:59 2021.
