 Gaussian 16, Revision A.03,
 Gaussian 16:  EM64L-G16RevA.03 25-Dec-2016

 -------------
 #p 6-31g* mp2
 -------------

 ------------------------------------------------------
 Input file generated by CHIRIPA (05-May-2021 14:51:11)
 ------------------------------------------------------
 Symbolic Z-matrix:
 Charge =  0 Multiplicity = 1

                         Standard orientation:
 ---------------------------------------------------------------------
 Center     Atomic      Atomic             Coordinates (Angstroms)
 Number     Number       Type             X           Y           Z
 ---------------------------------------------------------------------
      1          6           0       -2.152581   -0.679744    0.598724
      2          6           0       -2.430240   -2.165005    0.364439
      3          6           0       -1.761535   -3.062862    1.405824
      4          1           0       -1.067199   -0.510081    0.588483
      5          1           0       -2.502859   -0.402282    1.602574
      6          1           0       -2.080796   -2.439265   -0.639198
      7          1           0       -3.515094   -2.331121    0.375048
      8          1           0       -2.117801   -2.817687    2.411589
      9          1           0       -0.675354   -2.926445    1.391581
     10          1           0       -1.973119   -4.120371    1.219370
     11          6           0       -2.814394    0.230589   -0.434245
     12          6           0       -2.536736    1.715851   -0.199960
     13          6           0       -3.205441    2.613707   -1.241345
     14          1           0       -2.464116   -0.046873   -1.438095
     15          1           0       -3.899776    0.060927   -0.424004
     16          1           0       -1.451881    1.881966   -0.210569
     17          1           0       -2.886179    1.990110    0.803677
     18          1           0       -4.291621    2.477291   -1.227102
     19          1           0       -2.849174    2.368532   -2.247110
     20          1           0       -2.993857    3.671217   -1.054890
     21          6           0        2.189097   -0.353689   -0.485196
     22          6           0        3.078964   -1.597026   -0.500450
     23          6           0        2.476491   -2.745276   -1.310601
     24          1           0        1.206109   -0.619153   -0.072632
     25          1           0        2.015404   -0.022940   -1.518556
     26          1           0        3.252061   -1.924519    0.532701
     27          1           0        4.060010   -1.328529   -0.912848
     28          1           0        2.319554   -2.441997   -2.350790
     29          1           0        1.507015   -3.041374   -0.897027
     30          1           0        3.129014   -3.623950   -1.308163
     31          6           0        2.777879    0.802843    0.320717
     32          6           0        1.888012    2.046181    0.335971
     33          6           0        2.490484    3.194430    1.146122
     34          1           0        2.951571    0.472095    1.354077
     35          1           0        3.760866    1.068308   -0.091847
     36          1           0        0.906965    1.777683    0.748368
     37          1           0        1.714914    2.373674   -0.697180
     38          1           0        3.459961    3.490528    0.732548
     39          1           0        2.647421    2.891152    2.186311
     40          1           0        1.837961    4.073104    1.143683
 ---------------------------------------------------------------------

 SCF Done:  E(RHF) =  -470.733073209     A.U. after   11 cycles
 E2 =    -0.1584511012D+01 EUMP2 =    -0.47231758422061D+03

 The electronic state is 1-A.
 Alpha  occ. eigenvalues --  -11.21659 -11.21648 -11.21626 -11.21545 -11.21467
 Alpha  occ. eigenvalues --  -11.21407 -11.21400 -11.21336 -11.21125 -11.21125
 Alpha  occ. eigenvalues --  -11.21103 -11.21044  -1.08511  -1.08416  -1.03592
 Alpha  occ. eigenvalues --   -1.03522  -0.96039  -0.95977  -0.87057  -0.86991
 Alpha  occ. eigenvalues --   -0.79702  -0.79544  -0.78460  -0.78118  -0.65323
 Alpha  occ. eigenvalues --   -0.64881  -0.61091  -0.60832  -0.59427  -0.59319
 Alpha  occ. eigenvalues --   -0.57686  -0.57560  -0.55433  -0.55170  -0.52728
 Alpha  occ. eigenvalues --   -0.52672  -0.52500  -0.52370  -0.50068  -0.49834
 Alpha  occ. eigenvalues --   -0.48136  -0.47787  -0.46797  -0.46584  -0.46436
 Alpha  occ. eigenvalues --   -0.45792  -0.45742  -0.44982  -0.43836  -0.43778
 Alpha virt. eigenvalues --    0.19456   0.22195   0.23574   0.24574   0.25427
 Alpha virt. eigenvalues --    0.26725   0.26889   0.27241   0.28373   0.29643
 Alpha virt. eigenvalues --    0.31228   0.31538   0.31711   0.31887   0.32079

 Mulliken charges:
               1
     1  C   -0.308241
     2  C   -0.299680
     3  C   -0.477265
     4  H    0.157861
     5  H    0.149412
     6  H    0.152501
     7  H    0.152407
     8  H    0.155471
     9  H    0.154974
    10  H    0.160814
    11  C   -0.297286
    12  C   -0.306854
    13  C   -0.475333
    14  H    0.149780
    15  H    0.149552
    16  H    0.159724
    17  H    0.151174
    18  H    0.154973
    19  H    0.155077
    20  H    0.160056
    21  C   -0.308050
    22  C   -0.298944
    23  C   -0.477411
    24  H    0.157564
    25  H    0.149372
    26  H    0.152063
    27  H    0.152379
    28  H    0.155208
    29  H    0.156245
    30  H    0.160795
    31  C   -0.297294
    32  C   -0.306789
    33  C   -0.475438
    34  H    0.149650
    35  H    0.150026
    36  H    0.158406
    37  H    0.151784
    38  H    0.155312
    39  H    0.155404
    40  H    0.160601
 Sum of Mulliken charges =  -0.00000

 Dipole moment (field-independent basis, Debye):
    X=              0.0262    Y=              0.0059    Z=              0.0009  Tot=              0.0269
 Quadrupole moment (field-independent basis, Debye-Ang):
   XX=            -84.1319   YY=            -86.0980   ZZ=            -84.4717
   XY=              0.2080   XZ=             -1.3381   YZ=             -0.2093

 Normal termination of Gaussian 16 at Wed May  5 19:51:09 2021.
