 Gaussian 16, Revision A.03,
 Gaussian 16:  EM64L-G16RevA.03 25-Dec-2016

 -------------
 #p 6-31g* mp2
 -------------

 ------------------------------------------------------
 Input file generated by CHIRIPA (05-May-2021 14:55:21)
 ------------------------------------------------------
 Symbolic Z-matrix:
 Charge =  0 Multiplicity = 1

                         Standard orientation:
 ---------------------------------------------------------------------
 Center     Atomic      Atomic             Coordinates (Angstroms)
 Number     Number       Type             X           Y           Z
 ---------------------------------------------------------------------
      1          6           0       -1.187291    1.285163   -0.912411
      2          6           0       -2.457770    1.856268   -0.784965
      3          6           0       -3.548744    1.078960   -0.384819
      4          6           0       -3.332332   -0.272257   -0.118984
      5          6           0       -2.078673   -0.870374   -0.236815
      6          6           0       -1.002123   -0.073939   -0.638413
      7          1           0       -0.345399    1.896424   -1.223818
      8          1           0       -2.604526    2.911497   -0.997094
      9          1           0       -4.543027    1.495403   -0.278083
     10          1           0       -1.963492   -1.925096   -0.018380
     11          1           0       -0.016576   -0.520159   -0.736543
     12          7           0       -4.479662   -1.105283    0.305401
     13          8           0       -4.262736   -2.293329    0.533715
     14          8           0       -5.574140   -0.554389    0.401685
     15          6           0        4.611909   -0.053998   -0.188996
     16          6           0        5.188872   -1.404976    0.235215
     17          6           0        6.365665   -1.845080   -0.636142
     18          1           0        4.291408   -0.112499   -1.238187
     19          1           0        5.405060    0.705268   -0.146328
     20          1           0        4.394531   -2.161194    0.193087
     21          1           0        5.507860   -1.343309    1.283574
     22          1           0        7.177304   -1.112037   -0.586224
     23          1           0        6.057650   -1.934569   -1.682908
     24          1           0        6.762716   -2.813234   -0.315377
     25          6           0        3.434782    0.399507    0.672649
     26          6           0        2.857819    1.750487    0.248440
     27          6           0        1.681025    2.190590    1.119796
     28          1           0        2.641630   -0.359759    0.629981
     29          1           0        3.755282    0.458009    1.721840
     30          1           0        2.538831    1.688819   -0.799921
     31          1           0        3.652159    2.506704    0.290568
     32          1           0        1.989041    2.280079    2.166561
     33          1           0        0.869387    1.457547    1.069878
     34          1           0        1.283975    3.158744    0.799030
 ---------------------------------------------------------------------

 SCF Done:  E(RHF) =  -669.534473528     A.U. after   15 cycles
 E2 =    -0.2092860850D+01 EUMP2 =    -0.67162733437730D+03

 The electronic state is 1-A.
 Alpha  occ. eigenvalues --  -20.60762 -20.60757 -15.85818 -11.31184 -11.27785
 Alpha  occ. eigenvalues --  -11.27779 -11.27485 -11.26774 -11.26754 -11.22651
 Alpha  occ. eigenvalues --  -11.22317 -11.22228 -11.22127 -11.21928 -11.21582
 Alpha  occ. eigenvalues --   -1.59838  -1.39392  -1.19378  -1.09278  -1.08766
 Alpha  occ. eigenvalues --   -1.04787  -1.04331  -0.96775  -0.95590  -0.87777
 Alpha  occ. eigenvalues --   -0.86182  -0.82428  -0.80402  -0.79060  -0.77476
 Alpha  occ. eigenvalues --   -0.72037  -0.71162  -0.70504  -0.65961  -0.65027
 Alpha  occ. eigenvalues --   -0.64769  -0.62166  -0.61687  -0.60154  -0.58374
 Alpha  occ. eigenvalues --   -0.56171  -0.55171  -0.53470  -0.53269  -0.52990
 Alpha  occ. eigenvalues --   -0.52873  -0.50665  -0.48800  -0.48790  -0.48693
 Alpha  occ. eigenvalues --   -0.47463  -0.46592  -0.46528  -0.44797  -0.44590
 Alpha  occ. eigenvalues --   -0.37273  -0.36384
 Alpha virt. eigenvalues --    0.05061   0.11121   0.16517   0.18631   0.22666
 Alpha virt. eigenvalues --    0.24067   0.24704   0.25769   0.27163   0.28274
 Alpha virt. eigenvalues --    0.29249   0.30083   0.30820   0.31153   0.31692

 Mulliken charges:
               1
     1  C   -0.169098
     2  C   -0.220135
     3  C   -0.170284
     4  C    0.158013
     5  C   -0.171289
     6  C   -0.223676
     7  H    0.231773
     8  H    0.223599
     9  H    0.275773
    10  H    0.275768
    11  H    0.225758
    12  N    0.488153
    13  O   -0.460525
    14  O   -0.460456
    15  C   -0.298657
    16  C   -0.300017
    17  C   -0.476152
    18  H    0.147894
    19  H    0.152090
    20  H    0.151153
    21  H    0.154075
    22  H    0.156320
    23  H    0.155258
    24  H    0.162567
    25  C   -0.299026
    26  C   -0.302773
    27  C   -0.484902
    28  H    0.144569
    29  H    0.154809
    30  H    0.142939
    31  H    0.157145
    32  H    0.161207
    33  H    0.162145
    34  H    0.155980
 Sum of Mulliken charges =  -0.00000

 Dipole moment (field-independent basis, Debye):
    X=              4.1780    Y=              2.9397    Z=             -1.4222  Tot=              5.3029
 Quadrupole moment (field-independent basis, Debye-Ang):
   XX=           -119.8025   YY=            -93.3786   ZZ=            -95.0331
   XY=            -13.1684   XZ=              5.8853   YZ=             -0.1072

 Normal termination of Gaussian 16 at Thu May  6 06:13:02 2021.
