 Gaussian 16, Revision A.03,
 Gaussian 16:  EM64L-G16RevA.03 25-Dec-2016

 -------------
 #p 6-31g* mp2
 -------------

 ------------------------------------------------------
 Input file generated by CHIRIPA (05-May-2021 14:57:22)
 ------------------------------------------------------
 Symbolic Z-matrix:
 Charge =  0 Multiplicity = 1

                         Standard orientation:
 ---------------------------------------------------------------------
 Center     Atomic      Atomic             Coordinates (Angstroms)
 Number     Number       Type             X           Y           Z
 ---------------------------------------------------------------------
      1          6           0       -3.381462   -2.366859   -0.541573
      2          6           0       -4.331957   -1.423903   -0.946437
      3          6           0       -4.104848   -0.058215   -0.751839
      4          6           0       -2.910980    0.331078   -0.146514
      5          6           0       -1.944616   -0.584232    0.267777
      6          6           0       -2.192921   -1.944758    0.063176
      7          1           0       -3.566119   -3.425753   -0.696627
      8          1           0       -5.255891   -1.748820   -1.416352
      9          1           0       -4.823605    0.693125   -1.055639
     10          1           0       -1.033042   -0.229877    0.733484
     11          1           0       -1.452963   -2.674834    0.378608
     12          7           0       -2.659330    1.774138    0.064793
     13          8           0       -1.599554    2.091389    0.600388
     14          8           0       -3.526629    2.560633   -0.309180
     15          6           0        1.378460   -0.562165    2.096694
     16          6           0        1.647774    0.757424    1.718970
     17          6           0        2.518242    1.029033    0.659224
     18          6           0        3.104623   -0.047911   -0.003829
     19          6           0        2.856306   -1.373526    0.348838
     20          6           0        1.982521   -1.621561    1.411630
     21          1           0        0.700972   -0.764001    2.921113
     22          1           0        1.180083    1.582148    2.249198
     23          1           0        2.744391    2.041019    0.345920
     24          1           0        3.337592   -2.174755   -0.198714
     25          1           0        1.775219   -2.647378    1.702786
     26          7           0        4.027904    0.227151   -1.127347
     27          8           0        4.531785   -0.739281   -1.695459
     28          8           0        4.230208    1.403967   -1.418573
 ---------------------------------------------------------------------

 SCF Done:  E(RHF) =  -868.338299831     A.U. after   16 cycles
 E2 =    -0.2602073420D+01 EUMP2 =    -0.87094037325051D+03

 The electronic state is 1-A.
 Alpha  occ. eigenvalues --  -20.61282 -20.61234 -20.60846 -20.60823 -15.86309
 Alpha  occ. eigenvalues --  -15.85889 -11.31527 -11.31369 -11.28103 -11.28006
 Alpha  occ. eigenvalues --  -11.27983 -11.27858 -11.27796 -11.27704 -11.27132
 Alpha  occ. eigenvalues --  -11.27126 -11.27088 -11.26807  -1.60327  -1.59908
 Alpha  occ. eigenvalues --   -1.39888  -1.39457  -1.19712  -1.19553  -1.09137
 Alpha  occ. eigenvalues --   -1.08962  -1.05098  -1.04926  -0.95996  -0.95754
 Alpha  occ. eigenvalues --   -0.86518  -0.86322  -0.82845  -0.82538  -0.77909
 Alpha  occ. eigenvalues --   -0.77552  -0.72548  -0.72105  -0.71640  -0.71231
 Alpha  occ. eigenvalues --   -0.70885  -0.70621  -0.65374  -0.65211  -0.65104
 Alpha  occ. eigenvalues --   -0.64891  -0.62484  -0.62226  -0.55653  -0.55470
 Alpha  occ. eigenvalues --   -0.53549  -0.53434  -0.52983  -0.52895  -0.49294
 Alpha  occ. eigenvalues --   -0.49269  -0.48872  -0.48852  -0.45325  -0.44836
 Alpha  occ. eigenvalues --   -0.37699  -0.37595  -0.36704  -0.36493
 Alpha virt. eigenvalues --    0.04592   0.04936   0.10945   0.10990   0.16137
 Alpha virt. eigenvalues --    0.16314   0.20370   0.21911   0.26220   0.27373
 Alpha virt. eigenvalues --    0.28090   0.28921   0.30423   0.31219   0.32242

 Mulliken charges:
               1
     1  C   -0.169452
     2  C   -0.219321
     3  C   -0.168977
     4  C    0.156135
     5  C   -0.178698
     6  C   -0.223719
     7  H    0.226175
     8  H    0.224741
     9  H    0.276495
    10  H    0.287830
    11  H    0.218475
    12  N    0.489153
    13  O   -0.468966
    14  O   -0.457075
    15  C   -0.194189
    16  C   -0.210434
    17  C   -0.168466
    18  C    0.159206
    19  C   -0.172167
    20  C   -0.220850
    21  H    0.227320
    22  H    0.240316
    23  H    0.281783
    24  H    0.275143
    25  H    0.219621
    26  N    0.487909
    27  O   -0.461433
    28  O   -0.456555
 Sum of Mulliken charges =  -0.00000

 Dipole moment (field-independent basis, Debye):
    X=             -4.0467    Y=             -5.7455    Z=              3.1599  Tot=              7.7053
 Quadrupole moment (field-independent basis, Debye-Ang):
   XX=           -116.1259   YY=           -103.6043   ZZ=           -104.9827
   XY=             10.4679   XZ=             16.9836   YZ=              0.8942

 Normal termination of Gaussian 16 at Fri May  7 06:23:49 2021.
