 Gaussian 16, Revision A.03,
 Gaussian 16:  EM64L-G16RevA.03 25-Dec-2016

 -------------
 #p 6-31g* mp2
 -------------

 ------------------------------------------------------
 Input file generated by CHIRIPA (05-May-2021 14:51:10)
 ------------------------------------------------------
 Symbolic Z-matrix:
 Charge =  0 Multiplicity = 1

                         Standard orientation:
 ---------------------------------------------------------------------
 Center     Atomic      Atomic             Coordinates (Angstroms)
 Number     Number       Type             X           Y           Z
 ---------------------------------------------------------------------
      1          6           0       -3.618851   -0.543988   -0.109919
      2          6           0       -2.450185   -1.492072    0.160900
      3          6           0       -2.816764   -2.960106   -0.058851
      4          1           0       -4.460882   -0.814648    0.541749
      5          1           0       -3.965071   -0.685731   -1.143087
      6          1           0       -2.105377   -1.347602    1.192816
      7          1           0       -1.610772   -1.219004   -0.491354
      8          1           0       -3.140563   -3.125911   -1.091452
      9          1           0       -3.637978   -3.255240    0.602287
     10          1           0       -1.966855   -3.620285    0.140340
     11          6           0       -3.267938    0.927133    0.105467
     12          6           0       -4.436603    1.875217   -0.165353
     13          6           0       -4.070024    3.343251    0.054399
     14          1           0       -2.921717    1.068876    1.138634
     15          1           0       -2.425907    1.197792   -0.546202
     16          1           0       -5.276016    1.602148    0.486901
     17          1           0       -4.781411    1.730746   -1.197269
     18          1           0       -3.248810    3.638384   -0.606740
     19          1           0       -3.746225    3.509055    1.086999
     20          1           0       -4.919934    4.003430   -0.144792
     21          6           0        2.916791   -0.602223    0.373020
     22          6           0        2.214503   -1.630617   -0.514213
     23          6           0        1.163785   -2.444326    0.241870
     24          1           0        3.390277   -1.119447    1.218736
     25          1           0        2.165707    0.075479    0.801958
     26          1           0        2.966831   -2.305325   -0.942449
     27          1           0        1.742796   -1.110905   -1.358020
     28          1           0        0.392024   -1.787206    0.655611
     29          1           0        1.623015   -2.988412    1.073543
     30          1           0        0.674150   -3.173356   -0.411301
     31          6           0        3.969996    0.219079   -0.368567
     32          6           0        4.672286    1.247472    0.518666
     33          6           0        5.723004    2.061182   -0.237417
     34          1           0        4.721081   -0.458623   -0.797505
     35          1           0        3.496512    0.736302   -1.214283
     36          1           0        5.143991    0.727761    1.362473
     37          1           0        3.919956    1.922180    0.946902
     38          1           0        5.263774    2.605268   -1.069090
     39          1           0        6.494763    1.404061   -0.651158
     40          1           0        6.212638    2.790212    0.415754
 ---------------------------------------------------------------------

 SCF Done:  E(RHF) =  -470.732275698     A.U. after   11 cycles
 E2 =    -0.1583414267D+01 EUMP2 =    -0.47231568996463D+03

 The electronic state is 1-A.
 Alpha  occ. eigenvalues --  -11.21617 -11.21592 -11.21574 -11.21563 -11.21413
 Alpha  occ. eigenvalues --  -11.21389 -11.21343 -11.21329 -11.21090 -11.21064
 Alpha  occ. eigenvalues --  -11.21019 -11.20930  -1.08448  -1.08398  -1.03583
 Alpha  occ. eigenvalues --   -1.03452  -0.96040  -0.95887  -0.86993  -0.86972
 Alpha  occ. eigenvalues --   -0.79708  -0.79484  -0.78294  -0.78183  -0.65101
 Alpha  occ. eigenvalues --   -0.65013  -0.61036  -0.60842  -0.59489  -0.59196
 Alpha  occ. eigenvalues --   -0.57617  -0.57564  -0.55292  -0.55172  -0.52819
 Alpha  occ. eigenvalues --   -0.52562  -0.52385  -0.52293  -0.49971  -0.49879
 Alpha  occ. eigenvalues --   -0.48066  -0.47719  -0.46673  -0.46567  -0.45853
 Alpha  occ. eigenvalues --   -0.45734  -0.45717  -0.45534  -0.43829  -0.43696
 Alpha virt. eigenvalues --    0.21742   0.23121   0.23490   0.24883   0.26273
 Alpha virt. eigenvalues --    0.26472   0.26962   0.27463   0.27754   0.29191
 Alpha virt. eigenvalues --    0.30207   0.30653   0.31388   0.31796   0.32631

 Mulliken charges:
               1
     1  C   -0.297393
     2  C   -0.302420
     3  C   -0.478497
     4  H    0.149508
     5  H    0.149384
     6  H    0.151484
     7  H    0.155501
     8  H    0.154595
     9  H    0.154894
    10  H    0.164241
    11  C   -0.298351
    12  C   -0.299577
    13  C   -0.475706
    14  H    0.149215
    15  H    0.148949
    16  H    0.152105
    17  H    0.152001
    18  H    0.154994
    19  H    0.155151
    20  H    0.160362
    21  C   -0.298495
    22  C   -0.300289
    23  C   -0.482973
    24  H    0.149650
    25  H    0.149755
    26  H    0.151753
    27  H    0.151065
    28  H    0.164900
    29  H    0.154071
    30  H    0.160334
    31  C   -0.298200
    32  C   -0.299652
    33  C   -0.475683
    34  H    0.149505
    35  H    0.149417
    36  H    0.151922
    37  H    0.151967
    38  H    0.155119
    39  H    0.155158
    40  H    0.160236
 Sum of Mulliken charges =  -0.00000

 Dipole moment (field-independent basis, Debye):
    X=             -0.0196    Y=             -0.0058    Z=              0.0109  Tot=              0.0232
 Quadrupole moment (field-independent basis, Debye-Ang):
   XX=            -84.9785   YY=            -86.0041   ZZ=            -83.9547
   XY=             -1.0681   XZ=              0.2000   YZ=             -0.1152

 Normal termination of Gaussian 16 at Wed May  5 21:24:29 2021.
