 Gaussian 16, Revision A.03,
 Gaussian 16:  EM64L-G16RevA.03 25-Dec-2016

 -------------
 #p 6-31g* mp2
 -------------

 ------------------------------------------------------
 Input file generated by CHIRIPA (05-May-2021 14:55:21)
 ------------------------------------------------------
 Symbolic Z-matrix:
 Charge =  0 Multiplicity = 1

                         Standard orientation:
 ---------------------------------------------------------------------
 Center     Atomic      Atomic             Coordinates (Angstroms)
 Number     Number       Type             X           Y           Z
 ---------------------------------------------------------------------
      1          6           0       -0.682861   -2.317639    0.931778
      2          6           0       -1.678501   -1.747048    1.731558
      3          6           0       -2.508405   -0.743027    1.223869
      4          6           0       -2.314020   -0.331762   -0.093843
      5          6           0       -1.330878   -0.880780   -0.915610
      6          6           0       -0.512528   -1.883450   -0.386928
      7          1           0       -0.042659   -3.097062    1.334317
      8          1           0       -1.813067   -2.082273    2.756039
      9          1           0       -3.286995   -0.284109    1.821038
     10          1           0       -1.220787   -0.525825   -1.933109
     11          1           0        0.259882   -2.324777   -1.010353
     12          7           0       -3.186487    0.730435   -0.642423
     13          8           0       -2.994929    1.075211   -1.806498
     14          8           0       -4.045364    1.198096    0.102064
     15          6           0        2.926917    1.372980    0.195948
     16          6           0        1.670187    2.230006    0.351247
     17          6           0        1.984651    3.676353    0.734634
     18          1           0        3.492921    1.389488    1.137390
     19          1           0        3.576879    1.822613   -0.567449
     20          1           0        1.022152    1.778132    1.113138
     21          1           0        1.107011    2.211299   -0.590613
     22          1           0        2.611584    4.149464   -0.028073
     23          1           0        2.526243    3.713836    1.685358
     24          1           0        1.072020    4.271144    0.840400
     25          6           0        2.628864   -0.075508   -0.187166
     26          6           0        3.885595   -0.932535   -0.342464
     27          6           0        3.571130   -2.378882   -0.725852
     28          1           0        1.978904   -0.525142    0.576232
     29          1           0        2.062860   -0.092017   -1.128608
     30          1           0        4.448770   -0.913828    0.599395
     31          1           0        4.533630   -0.480660   -1.104355
     32          1           0        3.029539   -2.416364   -1.676575
     33          1           0        2.944198   -2.851993    0.036855
     34          1           0        4.483761   -2.973673   -0.831618
 ---------------------------------------------------------------------

 SCF Done:  E(RHF) =  -669.534753165     A.U. after   15 cycles
 E2 =    -0.2093926180D+01 EUMP2 =    -0.67162867934422D+03

 The electronic state is 1-A.
 Alpha  occ. eigenvalues --  -20.60760 -20.60755 -15.85811 -11.31182 -11.27717
 Alpha  occ. eigenvalues --  -11.27692 -11.27450 -11.26775 -11.26696 -11.22248
 Alpha  occ. eigenvalues --  -11.22080 -11.21829 -11.21704 -11.21635 -11.21067
 Alpha  occ. eigenvalues --   -1.59834  -1.39388  -1.19337  -1.08865  -1.08718
 Alpha  occ. eigenvalues --   -1.04736  -1.03954  -0.96425  -0.95573  -0.87449
 Alpha  occ. eigenvalues --   -0.86139  -0.82407  -0.80040  -0.78633  -0.77431
 Alpha  occ. eigenvalues --   -0.72030  -0.71154  -0.70446  -0.65486  -0.64981
 Alpha  occ. eigenvalues --   -0.64744  -0.62092  -0.61354  -0.59809  -0.58025
 Alpha  occ. eigenvalues --   -0.55741  -0.55237  -0.53263  -0.53025  -0.52878
 Alpha  occ. eigenvalues --   -0.52748  -0.50393  -0.48795  -0.48786  -0.48332
 Alpha  occ. eigenvalues --   -0.47071  -0.46145  -0.46046  -0.44792  -0.44176
 Alpha  occ. eigenvalues --   -0.37282  -0.36252
 Alpha virt. eigenvalues --    0.05038   0.11254   0.16466   0.19683   0.22844
 Alpha virt. eigenvalues --    0.23912   0.24846   0.26147   0.27053   0.28143
 Alpha virt. eigenvalues --    0.29218   0.30198   0.31198   0.31791   0.32137

 Mulliken charges:
               1
     1  C   -0.175589
     2  C   -0.218296
     3  C   -0.172233
     4  C    0.159546
     5  C   -0.171987
     6  C   -0.213915
     7  H    0.225526
     8  H    0.223256
     9  H    0.275315
    10  H    0.274731
    11  H    0.229524
    12  N    0.488056
    13  O   -0.460623
    14  O   -0.460456
    15  C   -0.298497
    16  C   -0.300764
    17  C   -0.476307
    18  H    0.149248
    19  H    0.150399
    20  H    0.152320
    21  H    0.154730
    22  H    0.155591
    23  H    0.153793
    24  H    0.164433
    25  C   -0.300567
    26  C   -0.299205
    27  C   -0.477707
    28  H    0.152766
    29  H    0.144412
    30  H    0.153682
    31  H    0.155056
    32  H    0.151511
    33  H    0.146714
    34  H    0.165537
 Sum of Mulliken charges =  -0.00000

 Dipole moment (field-independent basis, Debye):
    X=              3.1227    Y=             -3.6531    Z=              1.9364  Tot=              5.1813
 Quadrupole moment (field-independent basis, Debye-Ang):
   XX=           -108.3294   YY=            -94.0064   ZZ=            -90.6220
   XY=              7.4974   XZ=             -7.3212   YZ=             -0.6011

 Normal termination of Gaussian 16 at Thu May  6 03:01:22 2021.
