 Gaussian 16, Revision A.03,
 Gaussian 16:  EM64L-G16RevA.03 25-Dec-2016

 -------------
 #p 6-31g* mp2
 -------------

 ------------------------------------------------------
 Input file generated by CHIRIPA (05-May-2021 14:57:24)
 ------------------------------------------------------
 Symbolic Z-matrix:
 Charge =  0 Multiplicity = 1

                         Standard orientation:
 ---------------------------------------------------------------------
 Center     Atomic      Atomic             Coordinates (Angstroms)
 Number     Number       Type             X           Y           Z
 ---------------------------------------------------------------------
      1          6           0       -5.518821   -1.483558   -0.251023
      2          6           0       -4.727169   -1.589113    0.897309
      3          6           0       -3.707197   -0.665320    1.143910
      4          6           0       -3.505573    0.356063    0.216863
      5          6           0       -4.277467    0.487885   -0.936433
      6          6           0       -5.291843   -0.447223   -1.162622
      7          1           0       -6.308986   -2.205578   -0.434661
      8          1           0       -4.901175   -2.392913    1.607007
      9          1           0       -3.079461   -0.723516    2.024806
     10          1           0       -4.080114    1.300014   -1.625575
     11          1           0       -5.905092   -0.362783   -2.055281
     12          7           0       -2.428737    1.340031    0.467124
     13          8           0       -2.271279    2.230701   -0.365072
     14          8           0       -1.762559    1.201963    1.490737
     15          6           0        1.214995   -0.164343   -0.698840
     16          6           0        1.891890   -1.383108   -0.585069
     17          6           0        3.259324   -1.411477   -0.295470
     18          6           0        3.921651   -0.196750   -0.125034
     19          6           0        3.275158    1.033649   -0.232065
     20          6           0        1.907569    1.038027   -0.522286
     21          1           0        0.152679   -0.151623   -0.924049
     22          1           0        1.356590   -2.318436   -0.721677
     23          1           0        3.807983   -2.340789   -0.201814
     24          1           0        3.835767    1.949679   -0.090558
     25          1           0        1.384465    1.986026   -0.610057
     26          7           0        5.369374   -0.214084    0.181880
     27          8           0        5.930094    0.869898    0.327535
     28          8           0        5.915968   -1.311323    0.270974
 ---------------------------------------------------------------------

 SCF Done:  E(RHF) =  -868.339117738     A.U. after   16 cycles
 E2 =    -0.2599132308D+01 EUMP2 =    -0.87093825004621D+03

 The electronic state is 1-A.
 Alpha  occ. eigenvalues --  -20.61956 -20.61924 -20.60154 -20.60142 -15.86963
 Alpha  occ. eigenvalues --  -15.85197 -11.32132 -11.30416 -11.28667 -11.28653
 Alpha  occ. eigenvalues --  -11.28342 -11.27610 -11.27599 -11.27010 -11.26887
 Alpha  occ. eigenvalues --  -11.26656 -11.26028 -11.25772  -1.61033  -1.59228
 Alpha  occ. eigenvalues --   -1.40577  -1.38786  -1.20280  -1.18558  -1.09711
 Alpha  occ. eigenvalues --   -1.07974  -1.05636  -1.03932  -0.96575  -0.94844
 Alpha  occ. eigenvalues --   -0.87041  -0.85327  -0.83398  -0.81680  -0.78480
 Alpha  occ. eigenvalues --   -0.76747  -0.73167  -0.72404  -0.71420  -0.71358
 Alpha  occ. eigenvalues --   -0.70549  -0.69654  -0.65918  -0.65618  -0.64206
 Alpha  occ. eigenvalues --   -0.63907  -0.62975  -0.61277  -0.56126  -0.54444
 Alpha  occ. eigenvalues --   -0.53994  -0.53709  -0.52273  -0.52008  -0.49951
 Alpha  occ. eigenvalues --   -0.49925  -0.48183  -0.48162  -0.46012  -0.44225
 Alpha  occ. eigenvalues --   -0.38251  -0.37234  -0.36509  -0.35525
 Alpha virt. eigenvalues --    0.04000   0.05769   0.10422   0.12135   0.15543
 Alpha virt. eigenvalues --    0.17313   0.20646   0.22093   0.26586   0.27477
 Alpha virt. eigenvalues --    0.28182   0.28466   0.30366   0.31610   0.31734

 Mulliken charges:
               1
     1  C   -0.169902
     2  C   -0.218802
     3  C   -0.172114
     4  C    0.152925
     5  C   -0.172068
     6  C   -0.218552
     7  H    0.228872
     8  H    0.226548
     9  H    0.277712
    10  H    0.276433
    11  H    0.226332
    12  N    0.484781
    13  O   -0.464003
    14  O   -0.456316
    15  C   -0.165380
    16  C   -0.219562
    17  C   -0.172586
    18  C    0.158192
    19  C   -0.172553
    20  C   -0.215774
    21  H    0.220759
    22  H    0.217667
    23  H    0.272022
    24  H    0.274710
    25  H    0.237192
    26  N    0.488150
    27  O   -0.461235
    28  O   -0.463447
 Sum of Mulliken charges =  -0.00000

 Dipole moment (field-independent basis, Debye):
    X=             -9.3207    Y=             -3.2957    Z=             -1.9017  Tot=             10.0674
 Quadrupole moment (field-independent basis, Debye-Ang):
   XX=           -119.0260   YY=           -101.7003   ZZ=           -102.2834
   XY=             12.4981   XZ=             -0.1054   YZ=             -3.1362

 Normal termination of Gaussian 16 at Thu May  6 12:59:25 2021.
