 Gaussian 16, Revision A.03,
 Gaussian 16:  EM64L-G16RevA.03 25-Dec-2016

 -------------
 #p 6-31g* mp2
 -------------

 ------------------------------------------------------
 Input file generated by CHIRIPA (05-May-2021 14:57:24)
 ------------------------------------------------------
 Symbolic Z-matrix:
 Charge =  0 Multiplicity = 1

                         Standard orientation:
 ---------------------------------------------------------------------
 Center     Atomic      Atomic             Coordinates (Angstroms)
 Number     Number       Type             X           Y           Z
 ---------------------------------------------------------------------
      1          6           0       -5.340125    0.643017    1.409980
      2          6           0       -5.568687   -0.157044    0.285621
      3          6           0       -4.507955   -0.540537   -0.540411
      4          6           0       -3.225691   -0.104029   -0.210939
      5          6           0       -2.965876    0.693718    0.902338
      6          6           0       -4.041738    1.065100    1.714213
      7          1           0       -6.170005    0.936220    2.046162
      8          1           0       -6.575981   -0.486317    0.046911
      9          1           0       -4.656580   -1.159366   -1.416984
     10          1           0       -1.950692    1.006384    1.114609
     11          1           0       -3.861266    1.686496    2.586762
     12          7           0       -2.094733   -0.503606   -1.077929
     13          8           0       -0.974397   -0.105897   -0.765979
     14          8           0       -2.350037   -1.206937   -2.053009
     15          6           0        3.561047   -2.298692    1.007617
     16          6           0        2.770273   -2.045943   -0.118135
     17          6           0        2.680310   -0.755040   -0.647308
     18          6           0        3.397686    0.264094   -0.022785
     19          6           0        4.194056    0.043976    1.099994
     20          6           0        4.269165   -1.254767    1.612023
     21          1           0        3.625163   -3.304543    1.412030
     22          1           0        2.219242   -2.854732   -0.589591
     23          1           0        2.075622   -0.531395   -1.517798
     24          1           0        4.731793    0.870640    1.548196
     25          1           0        4.884077   -1.448123    2.486404
     26          7           0        3.310308    1.634865   -0.573921
     27          8           0        3.952075    2.515482   -0.005337
     28          8           0        2.601710    1.802704   -1.564050
 ---------------------------------------------------------------------

 SCF Done:  E(RHF) =  -868.339059385     A.U. after   16 cycles
 E2 =    -0.2598914602D+01 EUMP2 =    -0.87093797398738D+03

 The electronic state is 1-A.
 Alpha  occ. eigenvalues --  -20.61047 -20.61014 -20.59852 -20.59798 -15.86061
 Alpha  occ. eigenvalues --  -15.84876 -11.31301 -11.30149 -11.27868 -11.27836
 Alpha  occ. eigenvalues --  -11.27588 -11.26857 -11.26850 -11.26832 -11.26581
 Alpha  occ. eigenvalues --  -11.26573 -11.25861 -11.25675  -1.60099  -1.58908
 Alpha  occ. eigenvalues --   -1.39653  -1.38458  -1.19465  -1.18357  -1.08888
 Alpha  occ. eigenvalues --   -1.07792  -1.04848  -1.03733  -0.95743  -0.94621
 Alpha  occ. eigenvalues --   -0.86253  -0.85149  -0.82575  -0.81445  -0.77634
 Alpha  occ. eigenvalues --   -0.76477  -0.72298  -0.71403  -0.71102  -0.70574
 Alpha  occ. eigenvalues --   -0.70230  -0.69482  -0.65121  -0.64853  -0.64014
 Alpha  occ. eigenvalues --   -0.63751  -0.62194  -0.61054  -0.55362  -0.54309
 Alpha  occ. eigenvalues --   -0.53187  -0.52939  -0.52099  -0.51826  -0.49053
 Alpha  occ. eigenvalues --   -0.49043  -0.47875  -0.47837  -0.45078  -0.43881
 Alpha  occ. eigenvalues --   -0.37444  -0.36446  -0.36396  -0.35317
 Alpha virt. eigenvalues --    0.04889   0.06038   0.11210   0.12312   0.16404
 Alpha virt. eigenvalues --    0.17509   0.21357   0.22390   0.27279   0.28207
 Alpha virt. eigenvalues --    0.28367   0.29337   0.30928   0.31873   0.32479

 Mulliken charges:
               1
     1  C   -0.170388
     2  C   -0.218721
     3  C   -0.170854
     4  C    0.157855
     5  C   -0.170214
     6  C   -0.218723
     7  H    0.226130
     8  H    0.223631
     9  H    0.275229
    10  H    0.277797
    11  H    0.224660
    12  N    0.489656
    13  O   -0.462425
    14  O   -0.462037
    15  C   -0.171840
    16  C   -0.221173
    17  C   -0.161087
    18  C    0.153502
    19  C   -0.172825
    20  C   -0.220474
    21  H    0.221419
    22  H    0.225484
    23  H    0.290424
    24  H    0.271463
    25  H    0.218463
    26  N    0.487593
    27  O   -0.467591
    28  O   -0.454952
 Sum of Mulliken charges =  -0.00000

 Dipole moment (field-independent basis, Debye):
    X=             -4.0366    Y=             -3.4096    Z=              4.8135  Tot=              7.1477
 Quadrupole moment (field-independent basis, Debye-Ang):
   XX=            -75.2124   YY=           -107.4209   ZZ=           -102.8071
   XY=            -17.8473   XZ=              1.3632   YZ=              3.2858

 Normal termination of Gaussian 16 at Thu May  6 00:20:12 2021.
