 Gaussian 16, Revision A.03,
 Gaussian 16:  EM64L-G16RevA.03 25-Dec-2016

 -------------
 #p 6-31g* mp2
 -------------

 ------------------------------------------------------
 Input file generated by CHIRIPA (05-May-2021 14:51:08)
 ------------------------------------------------------
 Symbolic Z-matrix:
 Charge =  0 Multiplicity = 1

                         Standard orientation:
 ---------------------------------------------------------------------
 Center     Atomic      Atomic             Coordinates (Angstroms)
 Number     Number       Type             X           Y           Z
 ---------------------------------------------------------------------
      1          6           0        2.709225    0.343334    0.378706
      2          6           0        2.457579    1.150660    1.652631
      3          6           0        1.107283    1.867848    1.640934
      4          1           0        2.656381    1.014418   -0.489510
      5          1           0        1.903049   -0.392863    0.254246
      6          1           0        3.264729    1.884184    1.775385
      7          1           0        2.511218    0.477611    2.517930
      8          1           0        0.289080    1.147056    1.542932
      9          1           0        1.046872    2.561622    0.796168
     10          1           0        0.948006    2.438861    2.560953
     11          6           0        4.055104   -0.379387    0.375440
     12          6           0        4.306749   -1.186713   -0.898485
     13          6           0        5.657045   -1.903900   -0.886788
     14          1           0        4.861280    0.356810    0.499900
     15          1           0        4.107948   -1.050471    1.243656
     16          1           0        4.253111   -0.513663   -1.763784
     17          1           0        3.499600   -1.920237   -1.021240
     18          1           0        5.717456   -2.597674   -0.042022
     19          1           0        6.475248   -1.183109   -0.788786
     20          1           0        5.816323   -2.474914   -1.806807
     21          6           0       -2.899390    0.604116   -0.294249
     22          6           0       -2.400258    1.171091   -1.623682
     23          6           0       -1.435288    2.343027   -1.441495
     24          1           0       -3.393852    1.402958    0.275227
     25          1           0       -2.037203    0.280583    0.305212
     26          1           0       -3.263212    1.492185   -2.221030
     27          1           0       -1.907095    0.370760   -2.190144
     28          1           0       -0.556427    2.032688   -0.867130
     29          1           0       -1.920248    3.160485   -0.898193
     30          1           0       -1.090916    2.732946   -2.404423
     31          6           0       -3.864939   -0.568064   -0.459896
     32          6           0       -4.364071   -1.135038    0.869536
     33          6           0       -5.329041   -2.306975    0.687349
     34          1           0       -4.727126   -0.244531   -1.059358
     35          1           0       -3.370476   -1.366906   -1.029373
     36          1           0       -4.857233   -0.334708    1.435998
     37          1           0       -3.501117   -1.456132    1.466884
     38          1           0       -4.844080   -3.124433    0.144047
     39          1           0       -6.207902   -1.996636    0.112984
     40          1           0       -5.673412   -2.696894    1.650277
 ---------------------------------------------------------------------

 SCF Done:  E(RHF) =  -470.732759336     A.U. after   11 cycles
 E2 =    -0.1583262976D+01 EUMP2 =    -0.47231602231173D+03

 The electronic state is 1-A.
 Alpha  occ. eigenvalues --  -11.21632 -11.21630 -11.21593 -11.21530 -11.21451
 Alpha  occ. eigenvalues --  -11.21390 -11.21377 -11.21316 -11.21093 -11.21076
 Alpha  occ. eigenvalues --  -11.21065 -11.20896  -1.08472  -1.08391  -1.03577
 Alpha  occ. eigenvalues --   -1.03468  -0.96034  -0.95911  -0.87066  -0.86917
 Alpha  occ. eigenvalues --   -0.79701  -0.79485  -0.78310  -0.78178  -0.65102
 Alpha  occ. eigenvalues --   -0.65027  -0.60968  -0.60894  -0.59398  -0.59289
 Alpha  occ. eigenvalues --   -0.57735  -0.57455  -0.55380  -0.55152  -0.52702
 Alpha  occ. eigenvalues --   -0.52619  -0.52611  -0.52217  -0.50044  -0.49784
 Alpha  occ. eigenvalues --   -0.48173  -0.47665  -0.46661  -0.46556  -0.45931
 Alpha  occ. eigenvalues --   -0.45747  -0.45709  -0.45465  -0.43818  -0.43741
 Alpha virt. eigenvalues --    0.21237   0.23116   0.23544   0.24922   0.25463
 Alpha virt. eigenvalues --    0.26345   0.27129   0.27637   0.27844   0.29337
 Alpha virt. eigenvalues --    0.30369   0.31399   0.31560   0.31834   0.32048

 Mulliken charges:
               1
     1  C   -0.299138
     2  C   -0.299653
     3  C   -0.482425
     4  H    0.150232
     5  H    0.148637
     6  H    0.152176
     7  H    0.151885
     8  H    0.158264
     9  H    0.159729
    10  H    0.160917
    11  C   -0.298184
    12  C   -0.299691
    13  C   -0.475746
    14  H    0.149799
    15  H    0.149775
    16  H    0.152134
    17  H    0.151772
    18  H    0.155200
    19  H    0.155287
    20  H    0.160347
    21  C   -0.301157
    22  C   -0.299164
    23  C   -0.482996
    24  H    0.149915
    25  H    0.151558
    26  H    0.151434
    27  H    0.151438
    28  H    0.164834
    29  H    0.154413
    30  H    0.158724
    31  C   -0.298182
    32  C   -0.299527
    33  C   -0.475672
    34  H    0.149679
    35  H    0.149401
    36  H    0.152078
    37  H    0.151409
    38  H    0.155072
    39  H    0.155248
    40  H    0.160180
 Sum of Mulliken charges =  -0.00000

 Dipole moment (field-independent basis, Debye):
    X=              0.0421    Y=              0.0151    Z=              0.0282  Tot=              0.0529
 Quadrupole moment (field-independent basis, Debye-Ang):
   XX=            -85.3632   YY=            -84.7498   ZZ=            -84.6935
   XY=             -0.1744   XZ=             -0.0753   YZ=             -0.3410

 Normal termination of Gaussian 16 at Thu May  6 16:33:02 2021.
