 Gaussian 16, Revision A.03,
 Gaussian 16:  EM64L-G16RevA.03 25-Dec-2016

 -------------
 #p 6-31g* mp2
 -------------

 ------------------------------------------------------
 Input file generated by CHIRIPA (05-May-2021 14:57:23)
 ------------------------------------------------------
 Symbolic Z-matrix:
 Charge =  0 Multiplicity = 1

                         Standard orientation:
 ---------------------------------------------------------------------
 Center     Atomic      Atomic             Coordinates (Angstroms)
 Number     Number       Type             X           Y           Z
 ---------------------------------------------------------------------
      1          6           0       -5.482715    1.074870    1.540158
      2          6           0       -4.536774    1.788619    0.797004
      3          6           0       -3.671909    1.123583   -0.077229
      4          6           0       -3.781035   -0.262039   -0.184153
      5          6           0       -4.713019   -1.001191    0.542725
      6          6           0       -5.567668   -0.315306    1.410875
      7          1           0       -6.150596    1.599584    2.216920
      8          1           0       -4.468534    2.868300    0.895383
      9          1           0       -2.930346    1.651415   -0.664506
     10          1           0       -4.757182   -2.076929    0.423328
     11          1           0       -6.301329   -0.872206    1.986766
     12          7           0       -2.870848   -0.977119   -1.106444
     13          8           0       -2.987133   -2.198310   -1.182637
     14          8           0       -2.058392   -0.302866   -1.735679
     15          6           0        1.981370    1.231775   -1.143368
     16          6           0        1.885665   -0.094448   -0.709209
     17          6           0        2.959642   -0.707216   -0.056803
     18          6           0        4.119531    0.039041    0.145793
     19          6           0        4.245500    1.362053   -0.274994
     20          6           0        3.158906    1.954519   -0.925259
     21          1           0        1.142178    1.699904   -1.649342
     22          1           0        0.972406   -0.658160   -0.877236
     23          1           0        2.912565   -1.732467    0.289699
     24          1           0        5.168861    1.898484   -0.093159
     25          1           0        3.236063    2.984636   -1.261343
     26          7           0        5.263182   -0.598923    0.835332
     27          8           0        6.274087    0.080065    1.001715
     28          8           0        5.127014   -1.765867    1.196355
 ---------------------------------------------------------------------

 SCF Done:  E(RHF) =  -868.340107906     A.U. after   16 cycles
 E2 =    -0.2598403777D+01 EUMP2 =    -0.87093851168334D+03

 The electronic state is 1-A.
 Alpha  occ. eigenvalues --  -20.61883 -20.61821 -20.60237 -20.60227 -15.86875
 Alpha  occ. eigenvalues --  -15.85280 -11.31967 -11.30509 -11.28538 -11.28473
 Alpha  occ. eigenvalues --  -11.28174 -11.27460 -11.27424 -11.27090 -11.26979
 Alpha  occ. eigenvalues --  -11.26688 -11.26092 -11.25823  -1.60912  -1.59313
 Alpha  occ. eigenvalues --   -1.40475  -1.38870  -1.20110  -1.18645  -1.09551
 Alpha  occ. eigenvalues --   -1.08052  -1.05473  -1.04013  -0.96433  -0.94919
 Alpha  occ. eigenvalues --   -0.86883  -0.85401  -0.83278  -0.81750  -0.78362
 Alpha  occ. eigenvalues --   -0.76826  -0.73102  -0.72215  -0.71500  -0.71213
 Alpha  occ. eigenvalues --   -0.70635  -0.69726  -0.65766  -0.65469  -0.64280
 Alpha  occ. eigenvalues --   -0.63964  -0.62829  -0.61345  -0.55972  -0.54480
 Alpha  occ. eigenvalues --   -0.53812  -0.53561  -0.52374  -0.52070  -0.49873
 Alpha  occ. eigenvalues --   -0.49823  -0.48266  -0.48243  -0.45929  -0.44307
 Alpha  occ. eigenvalues --   -0.38064  -0.37061  -0.36616  -0.35626
 Alpha virt. eigenvalues --    0.04126   0.05676   0.10598   0.12031   0.15665
 Alpha virt. eigenvalues --    0.17219   0.20679   0.22276   0.26598   0.27369
 Alpha virt. eigenvalues --    0.28301   0.29000   0.30546   0.31559   0.32413

 Mulliken charges:
               1
     1  C   -0.169595
     2  C   -0.218028
     3  C   -0.170169
     4  C    0.158013
     5  C   -0.170145
     6  C   -0.218254
     7  H    0.228480
     8  H    0.224996
     9  H    0.271178
    10  H    0.277268
    11  H    0.226363
    12  N    0.488637
    13  O   -0.454625
    14  O   -0.470772
    15  C   -0.173508
    16  C   -0.225095
    17  C   -0.172945
    18  C    0.158261
    19  C   -0.172879
    20  C   -0.219156
    21  H    0.228768
    22  H    0.242091
    23  H    0.275055
    24  H    0.272662
    25  H    0.219598
    26  N    0.488082
    27  O   -0.462953
    28  O   -0.461328
 Sum of Mulliken charges =  -0.00000

 Dipole moment (field-independent basis, Debye):
    X=             -7.7837    Y=              4.6591    Z=              0.8641  Tot=              9.1127
 Quadrupole moment (field-independent basis, Debye-Ang):
   XX=           -112.3998   YY=            -98.8576   ZZ=           -107.8423
   XY=              4.8807   XZ=            -24.0361   YZ=             -2.6347

 Normal termination of Gaussian 16 at Wed May  5 21:00:05 2021.
