 Gaussian 16, Revision A.03,
 Gaussian 16:  EM64L-G16RevA.03 25-Dec-2016

 -------------
 #p 6-31g* mp2
 -------------

 ------------------------------------------------------
 Input file generated by CHIRIPA (05-May-2021 14:53:11)
 ------------------------------------------------------
 Symbolic Z-matrix:
 Charge =  0 Multiplicity = 1

                         Standard orientation:
 ---------------------------------------------------------------------
 Center     Atomic      Atomic             Coordinates (Angstroms)
 Number     Number       Type             X           Y           Z
 ---------------------------------------------------------------------
      1          6           0       -3.566047   -0.819430   -0.138823
      2          6           0       -2.460814   -1.060313    0.889973
      3          6           0       -1.253768   -1.790863    0.300795
      4          1           0       -3.886942   -1.783991   -0.555468
      5          1           0       -3.157162   -0.237616   -0.976499
      6          1           0       -2.872014   -1.640314    1.726113
      7          1           0       -2.142647   -0.095081    1.304357
      8          1           0       -0.816856   -1.213158   -0.520159
      9          1           0       -1.550368   -2.767171   -0.096007
     10          1           0       -0.475788   -1.952659    1.053410
     11          6           0       -4.779440   -0.090045    0.435112
     12          6           0       -5.884673    0.150838   -0.593684
     13          6           0       -7.091719    0.881388   -0.004506
     14          1           0       -5.188326   -0.671858    1.272788
     15          1           0       -4.458545    0.874517    0.851757
     16          1           0       -6.202841   -0.814393   -1.008067
     17          1           0       -5.473473    0.730840   -1.429823
     18          1           0       -6.795119    1.857696    0.392296
     19          1           0       -7.528631    0.303684    0.816449
     20          1           0       -7.869699    1.043185   -0.757121
     21          6           0        1.528895    2.186455   -0.242586
     22          6           0        1.267076    0.935148   -0.810216
     23          6           0        2.218878   -0.086853   -0.745904
     24          6           0        3.427309    0.178230   -0.103475
     25          6           0        3.717750    1.414404    0.471687
     26          6           0        2.751241    2.421674    0.395428
     27          1           0        0.783800    2.974648   -0.297185
     28          1           0        0.318658    0.749631   -1.306331
     29          1           0        2.042291   -1.064869   -1.176857
     30          1           0        4.672363    1.569389    0.959651
     31          1           0        2.957309    3.392482    0.837146
     32          7           0        4.442723   -0.895918   -0.029067
     33          8           0        5.499599   -0.637097    0.542475
     34          8           0        4.162502   -1.976320   -0.543699
 ---------------------------------------------------------------------

 SCF Done:  E(RHF) =  -669.534908916     A.U. after   15 cycles
 E2 =    -0.2091755921D+01 EUMP2 =    -0.67162666483721D+03

 The electronic state is 1-A.
 Alpha  occ. eigenvalues --  -20.60744 -20.60738 -15.85798 -11.31167 -11.27742
 Alpha  occ. eigenvalues --  -11.27727 -11.27492 -11.26762 -11.26746 -11.22194
 Alpha  occ. eigenvalues --  -11.22072 -11.22004 -11.21895 -11.21691 -11.21477
 Alpha  occ. eigenvalues --   -1.59819  -1.39372  -1.19346  -1.08989  -1.08742
 Alpha  occ. eigenvalues --   -1.04758  -1.04062  -0.96519  -0.95573  -0.87538
 Alpha  occ. eigenvalues --   -0.86150  -0.82413  -0.80129  -0.78799  -0.77453
 Alpha  occ. eigenvalues --   -0.72016  -0.71143  -0.70455  -0.65652  -0.65002
 Alpha  occ. eigenvalues --   -0.64768  -0.62197  -0.61393  -0.59870  -0.58115
 Alpha  occ. eigenvalues --   -0.55848  -0.55245  -0.53247  -0.53041  -0.52965
 Alpha  occ. eigenvalues --   -0.52788  -0.50452  -0.48777  -0.48769  -0.48437
 Alpha  occ. eigenvalues --   -0.47167  -0.46336  -0.46271  -0.44777  -0.44316
 Alpha  occ. eigenvalues --   -0.37332  -0.36317
 Alpha virt. eigenvalues --    0.05073   0.11259   0.16476   0.19940   0.22567
 Alpha virt. eigenvalues --    0.23815   0.25454   0.26437   0.27058   0.28258
 Alpha virt. eigenvalues --    0.28732   0.30025   0.31217   0.31423   0.32109

 Mulliken charges:
               1
     1  C   -0.297642
     2  C   -0.301042
     3  C   -0.475497
     4  H    0.152606
     5  H    0.142814
     6  H    0.156066
     7  H    0.150173
     8  H    0.142866
     9  H    0.159063
    10  H    0.167027
    11  C   -0.298288
    12  C   -0.299795
    13  C   -0.475890
    14  H    0.151894
    15  H    0.148045
    16  H    0.153512
    17  H    0.150445
    18  H    0.154624
    19  H    0.156483
    20  H    0.161455
    21  C   -0.171866
    22  C   -0.217855
    23  C   -0.169049
    24  C    0.157490
    25  C   -0.171032
    26  C   -0.218678
    27  H    0.225273
    28  H    0.223844
    29  H    0.276765
    30  H    0.275543
    31  H    0.223302
    32  N    0.488130
    33  O   -0.460631
    34  O   -0.460155
 Sum of Mulliken charges =  -0.00000

 Dipole moment (field-independent basis, Debye):
    X=             -3.6782    Y=              3.7135    Z=             -0.1816  Tot=              5.2299
 Quadrupole moment (field-independent basis, Debye-Ang):
   XX=           -118.1362   YY=            -91.2061   ZZ=            -94.1587
   XY=             15.6226   XZ=              1.2517   YZ=              0.8826

 Normal termination of Gaussian 16 at Wed May  5 18:27:58 2021.
