 Gaussian 16, Revision A.03,
 Gaussian 16:  EM64L-G16RevA.03 25-Dec-2016

 -------------
 #p 6-31g* mp2
 -------------

 ------------------------------------------------------
 Input file generated by CHIRIPA (05-May-2021 14:51:10)
 ------------------------------------------------------
 Symbolic Z-matrix:
 Charge =  0 Multiplicity = 1

                         Standard orientation:
 ---------------------------------------------------------------------
 Center     Atomic      Atomic             Coordinates (Angstroms)
 Number     Number       Type             X           Y           Z
 ---------------------------------------------------------------------
      1          6           0       -1.978809   -0.162958    0.896300
      2          6           0       -2.265210   -1.344213    1.823983
      3          6           0       -1.114845   -1.629796    2.789849
      4          1           0       -1.061723   -0.366294    0.326604
      5          1           0       -1.778031    0.730701    1.503305
      6          1           0       -2.466749   -2.235062    1.215390
      7          1           0       -3.181826   -1.138125    2.391398
      8          1           0       -0.916660   -0.757800    3.421471
      9          1           0       -0.197520   -1.860969    2.238782
     10          1           0       -1.340738   -2.477967    3.443637
     11          6           0       -3.119555    0.134883   -0.075152
     12          6           0       -2.833154    1.316138   -1.002836
     13          6           0       -3.983519    1.601720   -1.968702
     14          1           0       -3.320333   -0.758777   -0.682157
     15          1           0       -4.036641    0.338219    0.494544
     16          1           0       -1.916538    1.110050   -1.570250
     17          1           0       -2.631615    2.206987   -0.394242
     18          1           0       -4.900844    1.832894   -1.417634
     19          1           0       -4.181704    0.729724   -2.600324
     20          1           0       -3.757626    2.449891   -2.622489
     21          6           0        2.376446    0.725653   -0.193323
     22          6           0        3.463780    1.380061    0.659577
     23          6           0        3.103629    2.803395    1.086431
     24          1           0        2.197125    1.342887   -1.084283
     25          1           0        1.434632    0.712514    0.372549
     26          1           0        4.403600    1.390712    0.092794
     27          1           0        3.640669    0.761097    1.548515
     28          1           0        2.179820    2.807280    1.673937
     29          1           0        2.947085    3.440471    0.209945
     30          1           0        3.894708    3.252270    1.695172
     31          6           0        2.721919   -0.697578   -0.627825
     32          6           0        1.634584   -1.351985   -1.480725
     33          6           0        1.994735   -2.775319   -1.907579
     34          1           0        3.663732   -0.684439   -1.193696
     35          1           0        2.901239   -1.314811    0.263135
     36          1           0        1.457695   -0.733021   -2.369663
     37          1           0        0.694764   -1.362636   -0.913942
     38          1           0        2.151279   -3.412396   -1.031093
     39          1           0        2.918544   -2.779205   -2.495085
     40          1           0        1.203656   -3.224195   -2.516320
 ---------------------------------------------------------------------

 SCF Done:  E(RHF) =  -470.733253179     A.U. after   11 cycles
 E2 =    -0.1583848752D+01 EUMP2 =    -0.47231710193081D+03

 The electronic state is 1-A.
 Alpha  occ. eigenvalues --  -11.21661 -11.21648 -11.21586 -11.21584 -11.21421
 Alpha  occ. eigenvalues --  -11.21415 -11.21361 -11.21334 -11.21146 -11.21124
 Alpha  occ. eigenvalues --  -11.21063 -11.21052  -1.08480  -1.08422  -1.03559
 Alpha  occ. eigenvalues --   -1.03543  -0.96007  -0.95991  -0.87025  -0.87008
 Alpha  occ. eigenvalues --   -0.79636  -0.79599  -0.78419  -0.78116  -0.65262
 Alpha  occ. eigenvalues --   -0.64922  -0.61026  -0.60872  -0.59378  -0.59358
 Alpha  occ. eigenvalues --   -0.57627  -0.57594  -0.55304  -0.55276  -0.52710
 Alpha  occ. eigenvalues --   -0.52685  -0.52434  -0.52417  -0.49981  -0.49919
 Alpha  occ. eigenvalues --   -0.47986  -0.47917  -0.46830  -0.46574  -0.46294
 Alpha  occ. eigenvalues --   -0.45767  -0.45742  -0.45060  -0.43809  -0.43792
 Alpha virt. eigenvalues --    0.19868   0.23187   0.24062   0.24460   0.25095
 Alpha virt. eigenvalues --    0.26667   0.26886   0.27741   0.28253   0.30298
 Alpha virt. eigenvalues --    0.30766   0.31650   0.31782   0.31950   0.31985

 Mulliken charges:
               1
     1  C   -0.311117
     2  C   -0.299032
     3  C   -0.476625
     4  H    0.161712
     5  H    0.149351
     6  H    0.151929
     7  H    0.152355
     8  H    0.155226
     9  H    0.154556
    10  H    0.160826
    11  C   -0.297437
    12  C   -0.300266
    13  C   -0.475729
    14  H    0.149387
    15  H    0.149708
    16  H    0.153032
    17  H    0.151949
    18  H    0.155092
    19  H    0.155144
    20  H    0.160268
    21  C   -0.303167
    22  C   -0.299505
    23  C   -0.475659
    24  H    0.149300
    25  H    0.154882
    26  H    0.151767
    27  H    0.152102
    28  H    0.155342
    29  H    0.155128
    30  H    0.160124
    31  C   -0.297887
    32  C   -0.308001
    33  C   -0.475100
    34  H    0.149787
    35  H    0.149463
    36  H    0.151934
    37  H    0.158216
    38  H    0.155240
    39  H    0.155628
    40  H    0.160077
 Sum of Mulliken charges =  -0.00000

 Dipole moment (field-independent basis, Debye):
    X=             -0.0063    Y=              0.0020    Z=             -0.0016  Tot=              0.0068
 Quadrupole moment (field-independent basis, Debye-Ang):
   XX=            -85.0080   YY=            -85.4379   ZZ=            -84.3121
   XY=              0.2634   XZ=             -1.2006   YZ=             -0.0280

 Normal termination of Gaussian 16 at Thu May  6 03:47:38 2021.
