 Gaussian 16, Revision A.03,
 Gaussian 16:  EM64L-G16RevA.03 25-Dec-2016

 -------------
 #p 6-31g* mp2
 -------------

 ------------------------------------------------------
 Input file generated by CHIRIPA (05-May-2021 14:53:17)
 ------------------------------------------------------
 Symbolic Z-matrix:
 Charge =  0 Multiplicity = 1

                         Standard orientation:
 ---------------------------------------------------------------------
 Center     Atomic      Atomic             Coordinates (Angstroms)
 Number     Number       Type             X           Y           Z
 ---------------------------------------------------------------------
      1          6           0       -5.282258    0.182571   -0.311701
      2          6           0       -6.254984    0.761870    0.716016
      3          6           0       -7.440598    1.478715    0.069295
      4          1           0       -4.915301    0.992444   -0.956986
      5          1           0       -5.822942   -0.516613   -0.964540
      6          1           0       -5.712324    1.458706    1.367596
      7          1           0       -6.619521   -0.049446    1.359051
      8          1           0       -8.007045    0.790262   -0.566135
      9          1           0       -7.094694    2.306983   -0.557541
     10          1           0       -8.123258    1.885090    0.822086
     11          6           0       -4.091730   -0.537142    0.319475
     12          6           0       -3.119005   -1.116442   -0.708242
     13          6           0       -1.933391   -1.833287   -0.061521
     14          1           0       -3.551046    0.162041    0.972314
     15          1           0       -4.458687   -1.347016    0.964760
     16          1           0       -2.754468   -0.305126   -1.351278
     17          1           0       -3.661664   -1.813277   -1.359822
     18          1           0       -2.279294   -2.661555    0.565315
     19          1           0       -1.366943   -1.144834    0.573908
     20          1           0       -1.250730   -2.239662   -0.814312
     21          6           0        2.992883   -2.293492    0.060055
     22          6           0        4.290797   -1.914916    0.418691
     23          6           0        4.672409   -0.570318    0.387460
     24          6           0        3.726375    0.373621   -0.009136
     25          6           0        2.425655    0.027861   -0.372274
     26          6           0        2.066089   -1.322607   -0.333589
     27          1           0        2.705000   -3.340288    0.087212
     28          1           0        5.012652   -2.666755    0.724808
     29          1           0        5.670527   -0.249509    0.659968
     30          1           0        1.728145    0.800115   -0.673139
     31          1           0        1.057410   -1.613707   -0.612649
     32          7           0        4.118701    1.800195   -0.046145
     33          8           0        3.266610    2.612569   -0.399166
     34          8           0        5.270868    2.078954    0.278570
 ---------------------------------------------------------------------

 SCF Done:  E(RHF) =  -669.535462944     A.U. after   15 cycles
 E2 =    -0.2090972113D+01 EUMP2 =    -0.67162643505729D+03

 The electronic state is 1-A.
 Alpha  occ. eigenvalues --  -20.60716 -20.60711 -15.85768 -11.31113 -11.27678
 Alpha  occ. eigenvalues --  -11.27662 -11.27400 -11.26695 -11.26604 -11.22346
 Alpha  occ. eigenvalues --  -11.22161 -11.21912 -11.21878 -11.21744 -11.21276
 Alpha  occ. eigenvalues --   -1.59792  -1.39346  -1.19276  -1.08931  -1.08675
 Alpha  occ. eigenvalues --   -1.04675  -1.04084  -0.96562  -0.95516  -0.87595
 Alpha  occ. eigenvalues --   -0.86069  -0.82348  -0.80158  -0.78693  -0.77399
 Alpha  occ. eigenvalues --   -0.71987  -0.71115  -0.70389  -0.65561  -0.64926
 Alpha  occ. eigenvalues --   -0.64701  -0.62084  -0.61448  -0.59956  -0.58140
 Alpha  occ. eigenvalues --   -0.55843  -0.55175  -0.53424  -0.53031  -0.52959
 Alpha  occ. eigenvalues --   -0.52603  -0.50470  -0.48744  -0.48741  -0.48465
 Alpha  occ. eigenvalues --   -0.47158  -0.46249  -0.46139  -0.44756  -0.44323
 Alpha  occ. eigenvalues --   -0.37258  -0.36274
 Alpha virt. eigenvalues --    0.05125   0.11359   0.16599   0.20447   0.22588
 Alpha virt. eigenvalues --    0.23821   0.26100   0.26251   0.27015   0.28131
 Alpha virt. eigenvalues --    0.28905   0.29939   0.30888   0.31515   0.32038

 Mulliken charges:
               1
     1  C   -0.298993
     2  C   -0.300205
     3  C   -0.476083
     4  H    0.151258
     5  H    0.149968
     6  H    0.153322
     7  H    0.152042
     8  H    0.155238
     9  H    0.156285
    10  H    0.161436
    11  C   -0.299527
    12  C   -0.299109
    13  C   -0.483732
    14  H    0.151596
    15  H    0.150524
    16  H    0.153270
    17  H    0.154454
    18  H    0.160216
    19  H    0.157418
    20  H    0.153026
    21  C   -0.173293
    22  C   -0.218402
    23  C   -0.171501
    24  C    0.158958
    25  C   -0.174500
    26  C   -0.225139
    27  H    0.225657
    28  H    0.223007
    29  H    0.275228
    30  H    0.275196
    31  H    0.235809
    32  N    0.488088
    33  O   -0.460813
    34  O   -0.460699
 Sum of Mulliken charges =  -0.00000

 Dipole moment (field-independent basis, Debye):
    X=             -1.6238    Y=             -5.0223    Z=              0.1621  Tot=              5.2808
 Quadrupole moment (field-independent basis, Debye-Ang):
   XX=           -100.7991   YY=            -98.3771   ZZ=            -95.2196
   XY=            -19.7996   XZ=              1.8491   YZ=             -0.2378

 Normal termination of Gaussian 16 at Wed May  5 23:38:04 2021.
