 Gaussian 16, Revision A.03,
 Gaussian 16:  EM64L-G16RevA.03 25-Dec-2016

 -------------
 #p 6-31g* mp2
 -------------

 ------------------------------------------------------
 Input file generated by CHIRIPA (05-May-2021 14:53:14)
 ------------------------------------------------------
 Symbolic Z-matrix:
 Charge =  0 Multiplicity = 1

                         Standard orientation:
 ---------------------------------------------------------------------
 Center     Atomic      Atomic             Coordinates (Angstroms)
 Number     Number       Type             X           Y           Z
 ---------------------------------------------------------------------
      1          6           0       -3.661244   -0.960346   -0.459667
      2          6           0       -2.142619   -1.063119   -0.314064
      3          6           0       -1.537808   -2.161256   -1.189332
      4          1           0       -4.114189   -1.927551   -0.202176
      5          1           0       -3.909534   -0.769431   -1.512899
      6          1           0       -1.897198   -1.252409    0.738815
      7          1           0       -1.693251   -0.095502   -0.571747
      8          1           0       -1.753626   -1.974115   -2.246215
      9          1           0       -1.958732   -3.137595   -0.928207
     10          1           0       -0.451342   -2.217229   -1.069668
     11          6           0       -4.280520    0.133007    0.409127
     12          6           0       -5.799145    0.235780    0.263525
     13          6           0       -6.403956    1.333917    1.138792
     14          1           0       -4.032230   -0.057909    1.462360
     15          1           0       -3.827575    1.100212    0.151636
     16          1           0       -6.248513   -0.731837    0.521208
     17          1           0       -6.044566    0.425069   -0.789354
     18          1           0       -5.983032    2.310256    0.877667
     19          1           0       -6.188138    1.146776    2.195676
     20          1           0       -7.490422    1.389889    1.019129
     21          6           0        4.241133   -1.741384    0.917769
     22          6           0        4.821586   -0.483031    1.107881
     23          6           0        4.199432    0.667706    0.614651
     24          6           0        2.992149    0.522773   -0.067076
     25          6           0        2.388819   -0.717005   -0.272575
     26          6           0        3.028739   -1.854156    0.229361
     27          1           0        4.731337   -2.630027    1.304303
     28          1           0        5.763087   -0.392437    1.642123
     29          1           0        4.626732    1.654188    0.747636
     30          1           0        1.449647   -0.775569   -0.809180
     31          1           0        2.575638   -2.830119    0.080230
     32          7           0        2.324098    1.733816   -0.593846
     33          8           0        1.261018    1.579328   -1.191032
     34          8           0        2.876210    2.814587   -0.399566
 ---------------------------------------------------------------------

 SCF Done:  E(RHF) =  -669.535735253     A.U. after   15 cycles
 E2 =    -0.2091363352D+01 EUMP2 =    -0.67162709860450D+03

 The electronic state is 1-A.
 Alpha  occ. eigenvalues --  -20.60807 -20.60801 -15.85851 -11.31178 -11.27754
 Alpha  occ. eigenvalues --  -11.27724 -11.27498 -11.26767 -11.26752 -11.21500
 Alpha  occ. eigenvalues --  -11.21395 -11.21387 -11.21252 -11.21127 -11.20842
 Alpha  occ. eigenvalues --   -1.59874  -1.39429  -1.19354  -1.08758  -1.08279
 Alpha  occ. eigenvalues --   -1.04757  -1.03450  -0.95936  -0.95595  -0.86950
 Alpha  occ. eigenvalues --   -0.86154  -0.82432  -0.79495  -0.78066  -0.77482
 Alpha  occ. eigenvalues --   -0.72073  -0.71191  -0.70477  -0.65013  -0.64897
 Alpha  occ. eigenvalues --   -0.64765  -0.62166  -0.60823  -0.59311  -0.57536
 Alpha  occ. eigenvalues --   -0.55264  -0.55192  -0.53086  -0.52935  -0.52594
 Alpha  occ. eigenvalues --   -0.52321  -0.49838  -0.48831  -0.48826  -0.47821
 Alpha  occ. eigenvalues --   -0.46488  -0.45620  -0.45512  -0.44831  -0.43705
 Alpha  occ. eigenvalues --   -0.37338  -0.36355
 Alpha virt. eigenvalues --    0.05039   0.11290   0.16531   0.19904   0.23088
 Alpha virt. eigenvalues --    0.23905   0.26210   0.26831   0.27590   0.27966
 Alpha virt. eigenvalues --    0.29049   0.30558   0.31500   0.31709   0.32286

 Mulliken charges:
               1
     1  C   -0.298397
     2  C   -0.306763
     3  C   -0.475170
     4  H    0.147312
     5  H    0.151257
     6  H    0.149164
     7  H    0.169320
     8  H    0.160911
     9  H    0.155157
    10  H    0.143944
    11  C   -0.299386
    12  C   -0.299704
    13  C   -0.475854
    14  H    0.148342
    15  H    0.155394
    16  H    0.150339
    17  H    0.152520
    18  H    0.157165
    19  H    0.154469
    20  H    0.159539
    21  C   -0.170613
    22  C   -0.219000
    23  C   -0.170292
    24  C    0.159639
    25  C   -0.179602
    26  C   -0.221194
    27  H    0.225621
    28  H    0.223454
    29  H    0.275490
    30  H    0.286681
    31  H    0.223720
    32  N    0.488118
    33  O   -0.461577
    34  O   -0.460002
 Sum of Mulliken charges =  -0.00000

 Dipole moment (field-independent basis, Debye):
    X=              2.2952    Y=             -4.1452    Z=              1.8293  Tot=              5.0791
 Quadrupole moment (field-independent basis, Debye-Ang):
   XX=            -78.4364   YY=            -98.4006   ZZ=            -94.8378
   XY=             -8.9680   XZ=              7.5548   YZ=              1.4158

 Normal termination of Gaussian 16 at Thu May  6 01:03:08 2021.
