 Gaussian 16, Revision A.03,
 Gaussian 16:  EM64L-G16RevA.03 25-Dec-2016

 -------------
 #p 6-31g* mp2
 -------------

 ------------------------------------------------------
 Input file generated by CHIRIPA (05-May-2021 14:55:20)
 ------------------------------------------------------
 Symbolic Z-matrix:
 Charge =  0 Multiplicity = 1

                         Standard orientation:
 ---------------------------------------------------------------------
 Center     Atomic      Atomic             Coordinates (Angstroms)
 Number     Number       Type             X           Y           Z
 ---------------------------------------------------------------------
      1          6           0       -0.600133   -0.663242    0.747604
      2          6           0       -1.025136   -0.914578   -0.561107
      3          6           0       -2.364656   -0.735853   -0.919285
      4          6           0       -3.256229   -0.302782    0.060938
      5          6           0       -2.863431   -0.044013    1.373202
      6          6           0       -1.519017   -0.229527    1.708887
      7          1           0        0.442339   -0.804716    1.017108
      8          1           0       -0.313733   -1.251494   -1.309730
      9          1           0       -2.720718   -0.923055   -1.925065
     10          1           0       -3.595918    0.290916    2.097566
     11          1           0       -1.191788   -0.033563    2.726022
     12          7           0       -4.676910   -0.109980   -0.306343
     13          8           0       -5.442694    0.272337    0.575725
     14          8           0       -4.997753   -0.344831   -1.469331
     15          6           0        3.428615    0.997695    0.101133
     16          6           0        2.177601    1.227573   -0.747456
     17          6           0        1.308187    2.370034   -0.221434
     18          1           0        3.127865    0.784906    1.136128
     19          1           0        4.018182    1.924465    0.131208
     20          1           0        1.591267    0.300237   -0.777061
     21          1           0        2.481357    1.439650   -1.780592
     22          1           0        1.871921    3.308450   -0.208063
     23          1           0        0.976775    2.162563    0.801172
     24          1           0        0.419341    2.517045   -0.842885
     25          6           0        4.307921   -0.141227   -0.412097
     26          6           0        5.558935   -0.371106    0.436493
     27          6           0        6.428348   -1.513566   -0.089529
     28          1           0        3.718353   -1.067997   -0.442171
     29          1           0        4.608670    0.071562   -1.447092
     30          1           0        5.255178   -0.583183    1.469629
     31          1           0        6.145268    0.556231    0.466097
     32          1           0        6.759761   -1.306095   -1.112135
     33          1           0        5.864615   -2.451983   -0.102900
     34          1           0        7.317195   -1.660577    0.531921
 ---------------------------------------------------------------------

 SCF Done:  E(RHF) =  -669.533909791     A.U. after   15 cycles
 E2 =    -0.2093804965D+01 EUMP2 =    -0.67162771475681D+03

 The electronic state is 1-A.
 Alpha  occ. eigenvalues --  -20.60771 -20.60766 -15.85827 -11.31199 -11.27783
 Alpha  occ. eigenvalues --  -11.27779 -11.27517 -11.26792 -11.26775 -11.22493
 Alpha  occ. eigenvalues --  -11.22345 -11.22313 -11.22241 -11.21722 -11.21698
 Alpha  occ. eigenvalues --   -1.59847  -1.39400  -1.19387  -1.09311  -1.08777
 Alpha  occ. eigenvalues --   -1.04795  -1.04304  -0.96733  -0.95613  -0.87742
 Alpha  occ. eigenvalues --   -0.86203  -0.82446  -0.80386  -0.79124  -0.77483
 Alpha  occ. eigenvalues --   -0.72047  -0.71171  -0.70571  -0.65988  -0.65040
 Alpha  occ. eigenvalues --   -0.64792  -0.62173  -0.61685  -0.60091  -0.58343
 Alpha  occ. eigenvalues --   -0.56072  -0.55278  -0.53407  -0.53143  -0.53030
 Alpha  occ. eigenvalues --   -0.52886  -0.50680  -0.48814  -0.48800  -0.48665
 Alpha  occ. eigenvalues --   -0.47445  -0.46635  -0.46605  -0.44805  -0.44569
 Alpha  occ. eigenvalues --   -0.37298  -0.36378
 Alpha virt. eigenvalues --    0.05035   0.11125   0.16458   0.19190   0.22716
 Alpha virt. eigenvalues --    0.23962   0.25259   0.25649   0.27084   0.27833
 Alpha virt. eigenvalues --    0.29476   0.30357   0.31066   0.31416   0.32131

 Mulliken charges:
               1
     1  C   -0.167279
     2  C   -0.218341
     3  C   -0.172064
     4  C    0.158089
     5  C   -0.170432
     6  C   -0.220573
     7  H    0.228204
     8  H    0.224320
     9  H    0.275799
    10  H    0.275779
    11  H    0.223372
    12  N    0.488121
    13  O   -0.460375
    14  O   -0.460422
    15  C   -0.299421
    16  C   -0.304075
    17  C   -0.473489
    18  H    0.143784
    19  H    0.154720
    20  H    0.142141
    21  H    0.155953
    22  H    0.157477
    23  H    0.151351
    24  H    0.165731
    25  C   -0.297683
    26  C   -0.299861
    27  C   -0.476108
    28  H    0.142986
    29  H    0.152909
    30  H    0.150931
    31  H    0.154508
    32  H    0.156747
    33  H    0.154644
    34  H    0.162558
 Sum of Mulliken charges =  -0.00000

 Dipole moment (field-independent basis, Debye):
    X=              5.0954    Y=             -0.5950    Z=              1.2585  Tot=              5.2821
 Quadrupole moment (field-independent basis, Debye-Ang):
   XX=           -127.4425   YY=            -94.7369   ZZ=            -89.9958
   XY=              1.4392   XZ=             -5.2698   YZ=              0.4253

 Normal termination of Gaussian 16 at Wed May  5 15:52:14 2021.
