 Gaussian 16, Revision A.03,
 Gaussian 16:  EM64L-G16RevA.03 25-Dec-2016

 -------------
 #p 6-31g* mp2
 -------------

 ------------------------------------------------------
 Input file generated by CHIRIPA (05-May-2021 14:55:20)
 ------------------------------------------------------
 Symbolic Z-matrix:
 Charge =  0 Multiplicity = 1

                         Standard orientation:
 ---------------------------------------------------------------------
 Center     Atomic      Atomic             Coordinates (Angstroms)
 Number     Number       Type             X           Y           Z
 ---------------------------------------------------------------------
      1          6           0        0.745205   -1.126095    1.409476
      2          6           0        1.775781   -2.006255    1.063424
      3          6           0        2.898411   -1.546830    0.368313
      4          6           0        2.957943   -0.194892    0.033634
      5          6           0        1.947492    0.706757    0.364252
      6          6           0        0.834193    0.225220    1.059403
      7          1           0       -0.123257   -1.491576    1.949470
      8          1           0        1.709366   -3.056220    1.333990
      9          1           0        3.710664   -2.206405    0.087915
     10          1           0        2.042085    1.747967    0.080789
     11          1           0        0.035345    0.911050    1.326841
     12          7           0        4.141482    0.303186   -0.702270
     13          8           0        4.169963    1.498844   -0.985514
     14          8           0        5.018248   -0.511510   -0.981892
     15          6           0       -3.930599   -0.127346   -0.640902
     16          6           0       -3.978743   -1.553548   -0.091709
     17          6           0       -4.770719   -2.505819   -0.988228
     18          1           0       -4.956325    0.247470   -0.760676
     19          1           0       -3.484436   -0.143369   -1.644932
     20          1           0       -4.423416   -1.534664    0.911548
     21          1           0       -2.952779   -1.924943    0.026951
     22          1           0       -4.325325   -2.554332   -1.987164
     23          1           0       -5.804318   -2.161836   -1.097541
     24          1           0       -4.792331   -3.519783   -0.576803
     25          6           0       -3.142377    0.836416    0.244307
     26          6           0       -3.094234    2.262619   -0.304886
     27          6           0       -2.302257    3.214891    0.591633
     28          1           0       -3.588540    0.852440    1.248337
     29          1           0       -2.116651    0.461600    0.364082
     30          1           0       -4.120197    2.634013   -0.423547
     31          1           0       -2.649561    2.243735   -1.308143
     32          1           0       -1.268658    2.870907    0.700946
     33          1           0       -2.747650    3.263402    1.590568
     34          1           0       -2.280646    4.228854    0.180208
 ---------------------------------------------------------------------

 SCF Done:  E(RHF) =  -669.535055548     A.U. after   15 cycles
 E2 =    -0.2092572275D+01 EUMP2 =    -0.67162762782364D+03

 The electronic state is 1-A.
 Alpha  occ. eigenvalues --  -20.60772 -20.60767 -15.85825 -11.31202 -11.27771
 Alpha  occ. eigenvalues --  -11.27761 -11.27503 -11.26782 -11.26729 -11.22406
 Alpha  occ. eigenvalues --  -11.22362 -11.22280 -11.22096 -11.22043 -11.21668
 Alpha  occ. eigenvalues --   -1.59847  -1.39400  -1.19373  -1.09243  -1.08762
 Alpha  occ. eigenvalues --   -1.04780  -1.04319  -0.96772  -0.95596  -0.87787
 Alpha  occ. eigenvalues --   -0.86180  -0.82433  -0.80387  -0.79088  -0.77473
 Alpha  occ. eigenvalues --   -0.72043  -0.71170  -0.70471  -0.65947  -0.65022
 Alpha  occ. eigenvalues --   -0.64745  -0.62217  -0.61620  -0.60128  -0.58389
 Alpha  occ. eigenvalues --   -0.56078  -0.55263  -0.53444  -0.53231  -0.53091
 Alpha  occ. eigenvalues --   -0.52886  -0.50723  -0.48838  -0.48797  -0.48660
 Alpha  occ. eigenvalues --   -0.47393  -0.46586  -0.46495  -0.44803  -0.44567
 Alpha  occ. eigenvalues --   -0.37337  -0.36365
 Alpha virt. eigenvalues --    0.05045   0.11116   0.16489   0.19585   0.22481
 Alpha virt. eigenvalues --    0.23128   0.25517   0.25749   0.26392   0.28264
 Alpha virt. eigenvalues --    0.29757   0.30203   0.31079   0.31254   0.31799

 Mulliken charges:
               1
     1  C   -0.173544
     2  C   -0.218525
     3  C   -0.170883
     4  C    0.158567
     5  C   -0.173836
     6  C   -0.224036
     7  H    0.227872
     8  H    0.223551
     9  H    0.275700
    10  H    0.275427
    11  H    0.233574
    12  N    0.488090
    13  O   -0.460238
    14  O   -0.460454
    15  C   -0.297988
    16  C   -0.300497
    17  C   -0.476080
    18  H    0.152512
    19  H    0.153242
    20  H    0.151217
    21  H    0.147719
    22  H    0.157604
    23  H    0.157234
    24  H    0.160662
    25  C   -0.305272
    26  C   -0.300620
    27  C   -0.478749
    28  H    0.148855
    29  H    0.146105
    30  H    0.156055
    31  H    0.156207
    32  H    0.146243
    33  H    0.157067
    34  H    0.167218
 Sum of Mulliken charges =  -0.00000

 Dipole moment (field-independent basis, Debye):
    X=             -4.3351    Y=             -1.7166    Z=              2.4988  Tot=              5.2899
 Quadrupole moment (field-independent basis, Debye-Ang):
   XX=           -118.1601   YY=            -90.1165   ZZ=            -95.3769
   XY=             -7.3439   XZ=              7.1585   YZ=             -0.9919

 Normal termination of Gaussian 16 at Thu May  6 12:26:01 2021.
