 Gaussian 16, Revision A.03,
 Gaussian 16:  EM64L-G16RevA.03 25-Dec-2016

 -------------
 #p 6-31g* mp2
 -------------

 ------------------------------------------------------
 Input file generated by CHIRIPA (05-May-2021 14:51:08)
 ------------------------------------------------------
 Symbolic Z-matrix:
 Charge =  0 Multiplicity = 1

                         Standard orientation:
 ---------------------------------------------------------------------
 Center     Atomic      Atomic             Coordinates (Angstroms)
 Number     Number       Type             X           Y           Z
 ---------------------------------------------------------------------
      1          6           0        2.303002    0.848234   -0.011831
      2          6           0        2.373564    2.316976   -0.431119
      3          6           0        1.325668    3.182643    0.269117
      4          1           0        1.298951    0.459163   -0.229660
      5          1           0        2.436048    0.778081    1.076642
      6          1           0        2.241805    2.384221   -1.518655
      7          1           0        3.377623    2.702543   -0.212443
      8          1           0        1.458469    3.145295    1.355197
      9          1           0        0.316198    2.825164    0.041564
     10          1           0        1.394016    4.228760   -0.045252
     11          6           0        3.344361   -0.029891   -0.703347
     12          6           0        3.273800   -1.498634   -0.284059
     13          6           0        4.321695   -2.364300   -0.984295
     14          1           0        3.211315    0.040262   -1.791819
     15          1           0        4.348413    0.359180   -0.485518
     16          1           0        2.269741   -1.884201   -0.502735
     17          1           0        3.405558   -1.565878    0.803477
     18          1           0        5.331165   -2.006821   -0.756742
     19          1           0        4.188894   -2.326952   -2.070375
     20          1           0        4.253348   -3.410417   -0.669926
     21          6           0       -2.574493   -0.237970    1.059035
     22          6           0       -1.294659   -0.979901    1.445748
     23          6           0       -0.808602   -0.626897    2.851781
     24          1           0       -2.398017    0.844267    1.126596
     25          1           0       -3.361029   -0.472616    1.789582
     26          1           0       -0.511168   -0.745016    0.713909
     27          1           0       -1.474144   -2.060496    1.377074
     28          1           0       -1.570445   -0.877571    3.597005
     29          1           0       -0.601997    0.445384    2.930071
     30          1           0        0.107420   -1.168463    3.107657
     31          6           0       -3.072870   -0.580373   -0.343858
     32          6           0       -4.352705    0.161559   -0.730570
     33          6           0       -4.838762   -0.191445   -2.136604
     34          1           0       -2.286334   -0.345727   -1.074403
     35          1           0       -3.249346   -1.662610   -0.411417
     36          1           0       -4.173218    1.242153   -0.661896
     37          1           0       -5.136195   -0.073328    0.001269
     38          1           0       -5.045366   -1.263726   -2.214894
     39          1           0       -4.076918    0.059229   -2.881827
     40          1           0       -5.754783    0.350120   -2.392479
 ---------------------------------------------------------------------

 SCF Done:  E(RHF) =  -470.733346481     A.U. after   11 cycles
 E2 =    -0.1583438018D+01 EUMP2 =    -0.47231678449837D+03

 The electronic state is 1-A.
 Alpha  occ. eigenvalues --  -11.21655 -11.21622 -11.21610 -11.21532 -11.21439
 Alpha  occ. eigenvalues --  -11.21408 -11.21380 -11.21341 -11.21145 -11.21085
 Alpha  occ. eigenvalues --  -11.21082 -11.21015  -1.08482  -1.08412  -1.03570
 Alpha  occ. eigenvalues --   -1.03507  -0.96023  -0.95958  -0.87036  -0.86978
 Alpha  occ. eigenvalues --   -0.79635  -0.79578  -0.78357  -0.78169  -0.65199
 Alpha  occ. eigenvalues --   -0.64970  -0.60988  -0.60894  -0.59384  -0.59332
 Alpha  occ. eigenvalues --   -0.57656  -0.57544  -0.55331  -0.55232  -0.52715
 Alpha  occ. eigenvalues --   -0.52652  -0.52448  -0.52384  -0.49989  -0.49892
 Alpha  occ. eigenvalues --   -0.47996  -0.47878  -0.46790  -0.46619  -0.46061
 Alpha  occ. eigenvalues --   -0.45775  -0.45739  -0.45258  -0.43823  -0.43766
 Alpha virt. eigenvalues --    0.20230   0.23146   0.23905   0.24311   0.25109
 Alpha virt. eigenvalues --    0.26409   0.26564   0.28275   0.28468   0.29422
 Alpha virt. eigenvalues --    0.31121   0.31412   0.31695   0.31773   0.32491

 Mulliken charges:
               1
     1  C   -0.305295
     2  C   -0.299147
     3  C   -0.476267
     4  H    0.155672
     5  H    0.150694
     6  H    0.151826
     7  H    0.152346
     8  H    0.155544
     9  H    0.154421
    10  H    0.160720
    11  C   -0.297886
    12  C   -0.300687
    13  C   -0.475709
    14  H    0.149330
    15  H    0.149840
    16  H    0.152984
    17  H    0.151921
    18  H    0.155246
    19  H    0.155212
    20  H    0.160419
    21  C   -0.298681
    22  C   -0.306864
    23  C   -0.475434
    24  H    0.149876
    25  H    0.149644
    26  H    0.159098
    27  H    0.151513
    28  H    0.154658
    29  H    0.155770
    30  H    0.160138
    31  C   -0.298071
    32  C   -0.299635
    33  C   -0.475688
    34  H    0.148058
    35  H    0.149806
    36  H    0.151964
    37  H    0.152142
    38  H    0.155199
    39  H    0.154975
    40  H    0.160349
 Sum of Mulliken charges =  -0.00000

 Dipole moment (field-independent basis, Debye):
    X=              0.0310    Y=              0.0057    Z=              0.0016  Tot=              0.0316
 Quadrupole moment (field-independent basis, Debye-Ang):
   XX=            -84.7060   YY=            -84.7491   ZZ=            -85.2572
   XY=              1.0253   XZ=              0.1258   YZ=             -0.6095

 Normal termination of Gaussian 16 at Thu May  6 02:07:02 2021.
