 Gaussian 16, Revision A.03,
 Gaussian 16:  EM64L-G16RevA.03 25-Dec-2016

 -------------
 #p 6-31g* mp2
 -------------

 ------------------------------------------------------
 Input file generated by CHIRIPA (05-May-2021 14:57:22)
 ------------------------------------------------------
 Symbolic Z-matrix:
 Charge =  0 Multiplicity = 1

                         Standard orientation:
 ---------------------------------------------------------------------
 Center     Atomic      Atomic             Coordinates (Angstroms)
 Number     Number       Type             X           Y           Z
 ---------------------------------------------------------------------
      1          6           0        1.628818    1.784556    0.330289
      2          6           0        1.370930    0.480075   -0.103698
      3          6           0        2.423630   -0.397427   -0.380033
      4          6           0        3.727853    0.064807   -0.210820
      5          6           0        4.017075    1.358635    0.220049
      6          6           0        2.948740    2.218907    0.490495
      7          1           0        0.804982    2.459528    0.542665
      8          1           0        0.346865    0.140026   -0.229004
      9          1           0        2.252467   -1.412481   -0.717355
     10          1           0        5.048486    1.668884    0.335608
     11          1           0        3.152004    3.231442    0.827394
     12          7           0        4.850576   -0.855045   -0.500246
     13          8           0        5.990672   -0.423562   -0.343275
     14          8           0        4.569210   -1.990090   -0.878589
     15          6           0       -1.752300   -1.159523    1.669942
     16          6           0       -1.853864    0.223079    1.483887
     17          6           0       -2.842045    0.756752    0.651278
     18          6           0       -3.715915   -0.125232    0.017446
     19          6           0       -3.640268   -1.507355    0.182688
     20          6           0       -2.644254   -2.018813    1.019895
     21          1           0       -0.981615   -1.565465    2.318519
     22          1           0       -1.162530    0.892805    1.987444
     23          1           0       -2.943210    1.823056    0.489479
     24          1           0       -4.343852   -2.149775   -0.332756
     25          1           0       -2.567741   -3.092986    1.162526
     26          7           0       -4.766205    0.427985   -0.866435
     27          8           0       -5.523905   -0.370317   -1.413466
     28          8           0       -4.811834    1.649422   -0.995452
 ---------------------------------------------------------------------

 SCF Done:  E(RHF) =  -868.336679340     A.U. after   16 cycles
 E2 =    -0.2601772903D+01 EUMP2 =    -0.87093845224340D+03

 The electronic state is 1-A.
 Alpha  occ. eigenvalues --  -20.61534 -20.61522 -20.61180 -20.61172 -15.86592
 Alpha  occ. eigenvalues --  -15.86229 -11.32152 -11.31669 -11.28799 -11.28689
 Alpha  occ. eigenvalues --  -11.28473 -11.28205 -11.28197 -11.28016 -11.27827
 Alpha  occ. eigenvalues --  -11.27707 -11.27279 -11.27123  -1.60603  -1.60251
 Alpha  occ. eigenvalues --   -1.40151  -1.39803  -1.20362  -1.19832  -1.09708
 Alpha  occ. eigenvalues --   -1.09229  -1.05799  -1.05221  -0.96494  -0.96059
 Alpha  occ. eigenvalues --   -0.87186  -0.86605  -0.83326  -0.82871  -0.78357
 Alpha  occ. eigenvalues --   -0.77895  -0.72802  -0.72447  -0.71932  -0.71575
 Alpha  occ. eigenvalues --   -0.71398  -0.70990  -0.65990  -0.65846  -0.65464
 Alpha  occ. eigenvalues --   -0.65181  -0.63110  -0.62564  -0.56213  -0.55798
 Alpha  occ. eigenvalues --   -0.54271  -0.53869  -0.53543  -0.53120  -0.49577
 Alpha  occ. eigenvalues --   -0.49548  -0.49209  -0.49199  -0.45514  -0.45192
 Alpha  occ. eigenvalues --   -0.38386  -0.37842  -0.37393  -0.36770
 Alpha virt. eigenvalues --    0.04159   0.04598   0.09951   0.11031   0.15514
 Alpha virt. eigenvalues --    0.16067   0.19609   0.21648   0.25173   0.27152
 Alpha virt. eigenvalues --    0.27474   0.28740   0.29879   0.31602   0.31921

 Mulliken charges:
               1
     1  C   -0.177544
     2  C   -0.226555
     3  C   -0.174166
     4  C    0.159887
     5  C   -0.171584
     6  C   -0.217311
     7  H    0.220198
     8  H    0.235474
     9  H    0.275422
    10  H    0.276961
    11  H    0.224792
    12  N    0.487870
    13  O   -0.458896
    14  O   -0.460107
    15  C   -0.173885
    16  C   -0.231532
    17  C   -0.173511
    18  C    0.159730
    19  C   -0.169541
    20  C   -0.218656
    21  H    0.232135
    22  H    0.225013
    23  H    0.275512
    24  H    0.279621
    25  H    0.228769
    26  N    0.488110
    27  O   -0.456807
    28  O   -0.459398
 Sum of Mulliken charges =  -0.00000

 Dipole moment (field-independent basis, Debye):
    X=             -0.4398    Y=              1.1204    Z=              4.1167  Tot=              4.2891
 Quadrupole moment (field-independent basis, Debye-Ang):
   XX=           -158.9983   YY=            -97.1456   ZZ=           -106.0648
   XY=             23.5787   XZ=             -5.6330   YZ=              0.8131

 Normal termination of Gaussian 16 at Wed May  5 17:48:52 2021.
