 Gaussian 16, Revision A.03,
 Gaussian 16:  EM64L-G16RevA.03 25-Dec-2016

 -------------
 #p 6-31g* mp2
 -------------

 ------------------------------------------------------
 Input file generated by CHIRIPA (05-May-2021 14:57:24)
 ------------------------------------------------------
 Symbolic Z-matrix:
 Charge =  0 Multiplicity = 1

                         Standard orientation:
 ---------------------------------------------------------------------
 Center     Atomic      Atomic             Coordinates (Angstroms)
 Number     Number       Type             X           Y           Z
 ---------------------------------------------------------------------
      1          6           0        2.797966    2.118491    1.027375
      2          6           0        2.304162    0.820839    1.197016
      3          6           0        2.961827   -0.270075    0.620881
      4          6           0        4.115879   -0.025896   -0.121973
      5          6           0        4.632646    1.255214   -0.309052
      6          6           0        3.958586    2.331162    0.276207
      7          1           0        2.280709    2.960126    1.478475
      8          1           0        1.403022    0.652689    1.779869
      9          1           0        2.601403   -1.285061    0.736273
     10          1           0        5.533190    1.391366   -0.895482
     11          1           0        4.344373    3.337846    0.142792
     12          7           0        4.820798   -1.172876   -0.736731
     13          8           0        5.835624   -0.931186   -1.386617
     14          8           0        4.345139   -2.291849   -0.557053
     15          6           0       -2.062954   -1.265707    1.203568
     16          6           0       -1.943799    0.048856    0.740699
     17          6           0       -3.010416    0.669767    0.083929
     18          6           0       -4.186937   -0.056548   -0.093707
     19          6           0       -4.336393   -1.367559    0.355964
     20          6           0       -3.256767   -1.968479    1.010064
     21          1           0       -1.229328   -1.740281    1.712726
     22          1           0       -1.017862    0.597054    0.889575
     23          1           0       -2.945293    1.686328   -0.284555
     24          1           0       -5.271988   -1.888570    0.192785
     25          1           0       -3.352147   -2.989505    1.368472
     26          7           0       -5.323003    0.590201   -0.787587
     27          8           0       -6.348903   -0.071178   -0.931611
     28          8           0       -5.166039    1.746256   -1.174285
 ---------------------------------------------------------------------

 SCF Done:  E(RHF) =  -868.336686560     A.U. after   16 cycles
 E2 =    -0.2599671666D+01 EUMP2 =    -0.87093635822568D+03

 The electronic state is 1-A.
 Alpha  occ. eigenvalues --  -20.61372 -20.61359 -20.61118 -20.61109 -15.86430
 Alpha  occ. eigenvalues --  -15.86174 -11.31927 -11.31631 -11.28613 -11.28488
 Alpha  occ. eigenvalues --  -11.28318 -11.28254 -11.28186 -11.28039 -11.27703
 Alpha  occ. eigenvalues --  -11.27492 -11.27355 -11.27220  -1.60440  -1.60189
 Alpha  occ. eigenvalues --   -1.39991  -1.39740  -1.20133  -1.19826  -1.09500
 Alpha  occ. eigenvalues --   -1.09217  -1.05574  -1.05248  -0.96306  -0.96030
 Alpha  occ. eigenvalues --   -0.86974  -0.86650  -0.83151  -0.82861  -0.78183
 Alpha  occ. eigenvalues --   -0.77878  -0.72645  -0.72392  -0.71765  -0.71513
 Alpha  occ. eigenvalues --   -0.71232  -0.70963  -0.65793  -0.65734  -0.65486
 Alpha  occ. eigenvalues --   -0.65190  -0.62964  -0.62549  -0.56055  -0.55787
 Alpha  occ. eigenvalues --   -0.53882  -0.53740  -0.53562  -0.53278  -0.49415
 Alpha  occ. eigenvalues --   -0.49391  -0.49158  -0.49139  -0.45367  -0.45125
 Alpha  occ. eigenvalues --   -0.38108  -0.37824  -0.37173  -0.36839
 Alpha virt. eigenvalues --    0.04393   0.04665   0.10358   0.10803   0.15768
 Alpha virt. eigenvalues --    0.16125   0.18160   0.22030   0.24897   0.26558
 Alpha virt. eigenvalues --    0.27921   0.29021   0.29803   0.30992   0.31878

 Mulliken charges:
               1
     1  C   -0.170662
     2  C   -0.222366
     3  C   -0.169188
     4  C    0.159068
     5  C   -0.168835
     6  C   -0.218159
     7  H    0.227222
     8  H    0.215813
     9  H    0.273244
    10  H    0.278623
    11  H    0.226900
    12  N    0.488225
    13  O   -0.457581
    14  O   -0.460362
    15  C   -0.170573
    16  C   -0.220171
    17  C   -0.170571
    18  C    0.159332
    19  C   -0.170066
    20  C   -0.217795
    21  H    0.221746
    22  H    0.217322
    23  H    0.275871
    24  H    0.277626
    25  H    0.226079
    26  N    0.488017
    27  O   -0.458644
    28  O   -0.460115
 Sum of Mulliken charges =  -0.00000

 Dipole moment (field-independent basis, Debye):
    X=              1.6141    Y=              1.7700    Z=              4.4878  Tot=              5.0871
 Quadrupole moment (field-independent basis, Debye-Ang):
   XX=           -153.9729   YY=            -99.5080   ZZ=           -106.6741
   XY=             31.7805   XZ=             -3.4074   YZ=             -2.4437

 Normal termination of Gaussian 16 at Thu May  6 11:20:42 2021.
