 Gaussian 16, Revision A.03,
 Gaussian 16:  EM64L-G16RevA.03 25-Dec-2016

 -------------
 #p 6-31g* mp2
 -------------

 ------------------------------------------------------
 Input file generated by CHIRIPA (05-May-2021 14:53:16)
 ------------------------------------------------------
 Symbolic Z-matrix:
 Charge =  0 Multiplicity = 1

                         Standard orientation:
 ---------------------------------------------------------------------
 Center     Atomic      Atomic             Coordinates (Angstroms)
 Number     Number       Type             X           Y           Z
 ---------------------------------------------------------------------
      1          6           0        3.804332    0.843046    0.214895
      2          6           0        2.619507    1.780278    0.451048
      3          6           0        3.052188    3.213852    0.759993
      4          1           0        4.451094    0.849050    1.102931
      5          1           0        4.410108    1.231244   -0.615606
      6          1           0        2.015380    1.389685    1.279954
      7          1           0        1.975389    1.771895   -0.437578
      8          1           0        3.636526    3.626924   -0.068573
      9          1           0        3.676744    3.242543    1.658718
     10          1           0        2.189512    3.866768    0.925376
     11          6           0        3.387866   -0.593676   -0.095128
     12          6           0        4.572692   -1.530909   -0.331282
     13          6           0        4.140011   -2.964483   -0.640227
     14          1           0        2.782090   -0.981875    0.735373
     15          1           0        2.741104   -0.599680   -0.983164
     16          1           0        5.216810   -1.522526    0.557345
     17          1           0        5.176819   -1.140316   -1.160187
     18          1           0        3.515454   -2.993173   -1.538952
     19          1           0        3.555672   -3.377554    0.188339
     20          1           0        5.002687   -3.617399   -0.805609
     21          6           0       -2.527934    2.320573   -0.710131
     22          6           0       -1.403468    1.507348   -0.534732
     23          6           0       -1.547537    0.166169   -0.167266
     24          6           0       -2.836669   -0.331172    0.017346
     25          6           0       -3.976509    0.453755   -0.149818
     26          6           0       -3.808608    1.792112   -0.517455
     27          1           0       -2.406761    3.361336   -0.995654
     28          1           0       -0.407663    1.915059   -0.683688
     29          1           0       -0.694227   -0.485733   -0.024779
     30          1           0       -4.956349    0.018893    0.005838
     31          1           0       -4.683687    2.421332   -0.652970
     32          7           0       -3.001803   -1.749524    0.406456
     33          8           0       -4.148361   -2.163675    0.563047
     34          8           0       -1.981551   -2.420221    0.547481
 ---------------------------------------------------------------------

 SCF Done:  E(RHF) =  -669.535684339     A.U. after   15 cycles
 E2 =    -0.2091430271D+01 EUMP2 =    -0.67162711461087D+03

 The electronic state is 1-A.
 Alpha  occ. eigenvalues --  -20.60708 -20.60703 -15.85760 -11.31107 -11.27680
 Alpha  occ. eigenvalues --  -11.27649 -11.27413 -11.26698 -11.26630 -11.22525
 Alpha  occ. eigenvalues --  -11.21969 -11.21849 -11.21848 -11.21788 -11.21089
 Alpha  occ. eigenvalues --   -1.59784  -1.39338  -1.19276  -1.08965  -1.08677
 Alpha  occ. eigenvalues --   -1.04674  -1.04023  -0.96434  -0.95515  -0.87453
 Alpha  occ. eigenvalues --   -0.86076  -0.82350  -0.80149  -0.78755  -0.77384
 Alpha  occ. eigenvalues --   -0.71979  -0.71107  -0.70388  -0.65607  -0.64926
 Alpha  occ. eigenvalues --   -0.64680  -0.62054  -0.61395  -0.59844  -0.58051
 Alpha  occ. eigenvalues --   -0.55697  -0.55184  -0.53152  -0.53010  -0.52889
 Alpha  occ. eigenvalues --   -0.52734  -0.50369  -0.48747  -0.48734  -0.48403
 Alpha  occ. eigenvalues --   -0.47172  -0.46280  -0.46170  -0.44747  -0.44275
 Alpha  occ. eigenvalues --   -0.37264  -0.36275
 Alpha virt. eigenvalues --    0.05130   0.11368   0.16612   0.19763   0.22753
 Alpha virt. eigenvalues --    0.23673   0.25077   0.25673   0.26987   0.28467
 Alpha virt. eigenvalues --    0.29585   0.30349   0.31092   0.31405   0.32298

 Mulliken charges:
               1
     1  C   -0.297171
     2  C   -0.306673
     3  C   -0.475869
     4  H    0.153399
     5  H    0.151069
     6  H    0.155176
     7  H    0.143119
     8  H    0.157180
     9  H    0.160249
    10  H    0.157510
    11  C   -0.301178
    12  C   -0.300130
    13  C   -0.476715
    14  H    0.153083
    15  H    0.146875
    16  H    0.153165
    17  H    0.151793
    18  H    0.156250
    19  H    0.159824
    20  H    0.161130
    21  C   -0.172267
    22  C   -0.224557
    23  C   -0.175049
    24  C    0.158653
    25  C   -0.171252
    26  C   -0.218513
    27  H    0.225602
    28  H    0.233308
    29  H    0.277092
    30  H    0.275232
    31  H    0.222975
    32  N    0.488072
    33  O   -0.460824
    34  O   -0.460556
 Sum of Mulliken charges =  -0.00000

 Dipole moment (field-independent basis, Debye):
    X=              0.7981    Y=              4.9372    Z=             -1.3054  Tot=              5.1688
 Quadrupole moment (field-independent basis, Debye-Ang):
   XX=            -92.4617   YY=            -99.5477   ZZ=            -94.7015
   XY=            -15.4499   XZ=              4.1116   YZ=              0.1163

 Normal termination of Gaussian 16 at Thu May  6 15:33:41 2021.
