 Gaussian 16, Revision A.03,
 Gaussian 16:  EM64L-G16RevA.03 25-Dec-2016

 -------------
 #p 6-31g* mp2
 -------------

 ------------------------------------------------------
 Input file generated by CHIRIPA (05-May-2021 14:53:15)
 ------------------------------------------------------
 Symbolic Z-matrix:
 Charge =  0 Multiplicity = 1

                         Standard orientation:
 ---------------------------------------------------------------------
 Center     Atomic      Atomic             Coordinates (Angstroms)
 Number     Number       Type             X           Y           Z
 ---------------------------------------------------------------------
      1          6           0       -5.462416    0.222418    0.240444
      2          6           0       -6.819676   -0.470114    0.367831
      3          6           0       -7.912391    0.462517    0.891250
      4          1           0       -5.167747    0.620840    1.220941
      5          1           0       -5.561062    1.086436   -0.431223
      6          1           0       -6.718185   -1.333384    1.037966
      7          1           0       -7.111059   -0.867101   -0.613043
      8          1           0       -8.042752    1.317843    0.220411
      9          1           0       -7.647645    0.848911    1.880801
     10          1           0       -8.874244   -0.053004    0.974538
     11          6           0       -4.359783   -0.697031   -0.281612
     12          6           0       -3.002522   -0.004499   -0.408999
     13          6           0       -1.909807   -0.937130   -0.932418
     14          1           0       -4.261136   -1.561049    0.390054
     15          1           0       -4.654452   -1.095453   -1.262109
     16          1           0       -2.711139    0.392488    0.571874
     17          1           0       -3.104013    0.858771   -1.079134
     18          1           0       -2.174553   -1.323524   -1.921969
     19          1           0       -1.779447   -1.792456   -0.261579
     20          1           0       -0.947954   -0.421608   -1.015706
     21          6           0        5.654878   -1.430540    0.686348
     22          6           0        4.524262   -1.892437    0.004524
     23          6           0        3.510687   -1.006091   -0.371773
     24          6           0        3.661031    0.341618   -0.048718
     25          6           0        4.775512    0.832390    0.629784
     26          6           0        5.776679   -0.071996    0.996255
     27          1           0        6.437427   -2.126082    0.974849
     28          1           0        4.426989   -2.946961   -0.237475
     29          1           0        2.624834   -1.336701   -0.900338
     30          1           0        4.844227    1.889284    0.857097
     31          1           0        6.653621    0.289548    1.525693
     32          7           0        2.594572    1.289502   -0.441886
     33          8           0        2.750879    2.472029   -0.145517
     34          8           0        1.622567    0.831978   -1.038976
 ---------------------------------------------------------------------

 SCF Done:  E(RHF) =  -669.536225184     A.U. after   15 cycles
 E2 =    -0.2090631784D+01 EUMP2 =    -0.67162685696709D+03

 The electronic state is 1-A.
 Alpha  occ. eigenvalues --  -20.60929 -20.60915 -15.85966 -11.31270 -11.27835
 Alpha  occ. eigenvalues --  -11.27828 -11.27574 -11.26842 -11.26831 -11.21162
 Alpha  occ. eigenvalues --  -11.20825 -11.20731 -11.20691 -11.20673 -11.19991
 Alpha  occ. eigenvalues --   -1.59987  -1.39544  -1.19440  -1.08847  -1.07795
 Alpha  occ. eigenvalues --   -1.04835  -1.02846  -0.95693  -0.95295  -0.86322
 Alpha  occ. eigenvalues --   -0.86236  -0.82526  -0.78932  -0.77601  -0.77572
 Alpha  occ. eigenvalues --   -0.72194  -0.71301  -0.70550  -0.65098  -0.64838
 Alpha  occ. eigenvalues --   -0.64436  -0.62182  -0.60258  -0.58661  -0.56871
 Alpha  occ. eigenvalues --   -0.55342  -0.54612  -0.53168  -0.52927  -0.51947
 Alpha  occ. eigenvalues --   -0.51723  -0.49278  -0.48946  -0.48932  -0.47232
 Alpha  occ. eigenvalues --   -0.45986  -0.45140  -0.45064  -0.44953  -0.43072
 Alpha  occ. eigenvalues --   -0.37420  -0.36436
 Alpha virt. eigenvalues --    0.04931   0.11219   0.16411   0.21282   0.23461
 Alpha virt. eigenvalues --    0.24980   0.27146   0.27250   0.27809   0.28117
 Alpha virt. eigenvalues --    0.28930   0.30673   0.31894   0.32023   0.32420

 Mulliken charges:
               1
     1  C   -0.297820
     2  C   -0.299061
     3  C   -0.475369
     4  H    0.149205
     5  H    0.149974
     6  H    0.150481
     7  H    0.151090
     8  H    0.155234
     9  H    0.154760
    10  H    0.158629
    11  C   -0.297596
    12  C   -0.297375
    13  C   -0.489028
    14  H    0.146411
    15  H    0.147789
    16  H    0.151822
    17  H    0.154579
    18  H    0.149903
    19  H    0.145735
    20  H    0.187345
    21  C   -0.170600
    22  C   -0.218640
    23  C   -0.170639
    24  C    0.157704
    25  C   -0.170814
    26  C   -0.218610
    27  H    0.225920
    28  H    0.223954
    29  H    0.276511
    30  H    0.275757
    31  H    0.223713
    32  N    0.493777
    33  O   -0.458878
    34  O   -0.465863
 Sum of Mulliken charges =  -0.00000

 Dipole moment (field-independent basis, Debye):
    X=              4.0324    Y=             -3.2341    Z=              1.3659  Tot=              5.3465
 Quadrupole moment (field-independent basis, Debye-Ang):
   XX=            -67.9305   YY=            -94.8622   ZZ=            -94.0516
   XY=             -8.8227   XZ=              6.9112   YZ=              1.8863

 Normal termination of Gaussian 16 at Thu May  6 18:47:23 2021.
