 Gaussian 16, Revision A.03,
 Gaussian 16:  EM64L-G16RevA.03 25-Dec-2016

 -------------
 #p 6-31g* mp2
 -------------

 ------------------------------------------------------
 Input file generated by CHIRIPA (05-May-2021 14:53:14)
 ------------------------------------------------------
 Symbolic Z-matrix:
 Charge =  0 Multiplicity = 1

                         Standard orientation:
 ---------------------------------------------------------------------
 Center     Atomic      Atomic             Coordinates (Angstroms)
 Number     Number       Type             X           Y           Z
 ---------------------------------------------------------------------
      1          6           0       -3.295710    0.422396   -0.118766
      2          6           0       -3.039950    1.777571   -0.779124
      3          6           0       -1.604895    2.268263   -0.585133
      4          1           0       -3.074181    0.497104    0.954681
      5          1           0       -2.595458   -0.316866   -0.531724
      6          1           0       -3.741400    2.513743   -0.366043
      7          1           0       -3.262297    1.699680   -1.851090
      8          1           0       -0.892819    1.555518   -1.013553
      9          1           0       -1.374644    2.374206    0.479931
     10          1           0       -1.444054    3.238606   -1.065159
     11          6           0       -4.725935   -0.081470   -0.303976
     12          6           0       -4.981694   -1.436645    0.356383
     13          6           0       -6.416749   -1.927337    0.162392
     14          1           0       -5.426186    0.657792    0.108982
     15          1           0       -4.947464   -0.156178   -1.377423
     16          1           0       -4.759347   -1.358754    1.428348
     17          1           0       -4.280244   -2.172817   -0.056698
     18          1           0       -6.647000   -2.033280   -0.902672
     19          1           0       -7.128825   -1.214592    0.590812
     20          1           0       -6.577590   -2.897680    0.642418
     21          6           0        1.663600    1.775453    0.915194
     22          6           0        1.234662    0.454491    1.081305
     23          6           0        2.040795   -0.610893    0.669416
     24          6           0        3.275555   -0.317693    0.092620
     25          6           0        3.730843    0.987661   -0.086415
     26          6           0        2.908127    2.037360    0.332891
     27          1           0        1.030934    2.596977    1.238040
     28          1           0        0.268626    0.248108    1.533217
     29          1           0        1.733368   -1.643026    0.786070
     30          1           0        4.698898    1.161959   -0.540185
     31          1           0        3.243828    3.062242    0.202635
     32          7           0        4.137750   -1.437266   -0.347354
     33          8           0        5.221301   -1.152416   -0.852740
     34          8           0        3.713662   -2.578436   -0.178489
 ---------------------------------------------------------------------

 SCF Done:  E(RHF) =  -669.534811077     A.U. after   15 cycles
 E2 =    -0.2092215085D+01 EUMP2 =    -0.67162702616116D+03

 The electronic state is 1-A.
 Alpha  occ. eigenvalues --  -20.60715 -20.60710 -15.85769 -11.31111 -11.27690
 Alpha  occ. eigenvalues --  -11.27679 -11.27385 -11.26683 -11.26656 -11.22347
 Alpha  occ. eigenvalues --  -11.22145 -11.22078 -11.21997 -11.21932 -11.21439
 Alpha  occ. eigenvalues --   -1.59792  -1.39346  -1.19289  -1.09083  -1.08681
 Alpha  occ. eigenvalues --   -1.04692  -1.04166  -0.96648  -0.95515  -0.87668
 Alpha  occ. eigenvalues --   -0.86082  -0.82353  -0.80252  -0.78889  -0.77403
 Alpha  occ. eigenvalues --   -0.71987  -0.71116  -0.70397  -0.65705  -0.64939
 Alpha  occ. eigenvalues --   -0.64695  -0.62045  -0.61558  -0.60007  -0.58248
 Alpha  occ. eigenvalues --   -0.55971  -0.55172  -0.53384  -0.53265  -0.52775
 Alpha  occ. eigenvalues --   -0.52742  -0.50570  -0.48747  -0.48744  -0.48540
 Alpha  occ. eigenvalues --   -0.47267  -0.46431  -0.46331  -0.44757  -0.44425
 Alpha  occ. eigenvalues --   -0.37202  -0.36287
 Alpha virt. eigenvalues --    0.05117   0.11319   0.16564   0.20057   0.22485
 Alpha virt. eigenvalues --    0.23859   0.25533   0.26244   0.26522   0.27969
 Alpha virt. eigenvalues --    0.28802   0.30110   0.31110   0.31247   0.31653

 Mulliken charges:
               1
     1  C   -0.299676
     2  C   -0.300034
     3  C   -0.479183
     4  H    0.144191
     5  H    0.150600
     6  H    0.153182
     7  H    0.156086
     8  H    0.164647
     9  H    0.141643
    10  H    0.161728
    11  C   -0.298514
    12  C   -0.300345
    13  C   -0.476097
    14  H    0.150560
    15  H    0.152192
    16  H    0.150828
    17  H    0.153064
    18  H    0.156535
    19  H    0.155572
    20  H    0.161906
    21  C   -0.167378
    22  C   -0.218695
    23  C   -0.172789
    24  C    0.158078
    25  C   -0.171064
    26  C   -0.220027
    27  H    0.227511
    28  H    0.225203
    29  H    0.275255
    30  H    0.275264
    31  H    0.223157
    32  N    0.488129
    33  O   -0.460724
    34  O   -0.460803
 Sum of Mulliken charges =  -0.00000

 Dipole moment (field-independent basis, Debye):
    X=             -3.1961    Y=              3.9411    Z=              1.4550  Tot=              5.2787
 Quadrupole moment (field-independent basis, Debye-Ang):
   XX=           -113.1466   YY=            -95.5407   ZZ=            -93.9684
   XY=             16.1864   XZ=              3.5518   YZ=             -1.0043

 Normal termination of Gaussian 16 at Wed May  5 20:13:32 2021.
