 Gaussian 16, Revision A.03,
 Gaussian 16:  EM64L-G16RevA.03 25-Dec-2016

 -------------
 #p 6-31g* mp2
 -------------

 ------------------------------------------------------
 Input file generated by CHIRIPA (05-May-2021 14:53:13)
 ------------------------------------------------------
 Symbolic Z-matrix:
 Charge =  0 Multiplicity = 1

                         Standard orientation:
 ---------------------------------------------------------------------
 Center     Atomic      Atomic             Coordinates (Angstroms)
 Number     Number       Type             X           Y           Z
 ---------------------------------------------------------------------
      1          6           0       -2.905736    1.299285   -0.005129
      2          6           0       -1.651441    2.167592   -0.108915
      3          6           0       -1.915369    3.631909    0.243097
      4          1           0       -3.680289    1.704057   -0.670841
      5          1           0       -3.305596    1.365516    1.016203
      6          1           0       -1.253279    2.098650   -1.129371
      7          1           0       -0.879718    1.760593    0.556977
      8          1           0       -2.291004    3.720157    1.267652
      9          1           0       -2.666687    4.060134   -0.428278
     10          1           0       -1.005335    4.234547    0.162315
     11          6           0       -2.657916   -0.167206   -0.354009
     12          6           0       -3.912211   -1.035513   -0.250224
     13          6           0       -3.648283   -2.499830   -0.602236
     14          1           0       -2.258055   -0.233438   -1.375342
     15          1           0       -1.883363   -0.571979    0.311702
     16          1           0       -4.683933   -0.628515   -0.916116
     17          1           0       -4.310373   -0.966571    0.770232
     18          1           0       -2.896965   -2.928056    0.069139
     19          1           0       -3.272648   -2.588078   -1.626790
     20          1           0       -4.558316   -3.102468   -0.521454
     21          6           0        3.397027    1.673888   -0.484619
     22          6           0        3.728280    0.464606   -1.104640
     23          6           0        3.056878   -0.714063   -0.766250
     24          6           0        2.054996   -0.646796    0.200702
     25          6           0        1.702062    0.542653    0.836264
     26          6           0        2.386756    1.708991    0.482150
     27          1           0        3.923751    2.584718   -0.753596
     28          1           0        4.512437    0.434357   -1.855792
     29          1           0        3.293117   -1.663830   -1.230528
     30          1           0        0.915818    0.541333    1.581406
     31          1           0        2.127383    2.646713    0.965314
     32          7           0        1.337177   -1.888072    0.567264
     33          8           0        0.458365   -1.802238    1.422225
     34          8           0        1.666954   -2.923316   -0.007328
 ---------------------------------------------------------------------

 SCF Done:  E(RHF) =  -669.535413800     A.U. after   15 cycles
 E2 =    -0.2093797514D+01 EUMP2 =    -0.67162921131425D+03

 The electronic state is 1-A.
 Alpha  occ. eigenvalues --  -20.60978 -20.60972 -15.85987 -11.31260 -11.27829
 Alpha  occ. eigenvalues --  -11.27825 -11.27558 -11.26824 -11.26812 -11.21710
 Alpha  occ. eigenvalues --  -11.21355 -11.21159 -11.20951 -11.20726 -11.20189
 Alpha  occ. eigenvalues --   -1.60022  -1.39583  -1.19436  -1.08844  -1.08108
 Alpha  occ. eigenvalues --   -1.04834  -1.03224  -0.95698  -0.95657  -0.86679
 Alpha  occ. eigenvalues --   -0.86231  -0.82539  -0.79366  -0.77909  -0.77527
 Alpha  occ. eigenvalues --   -0.72219  -0.71321  -0.70563  -0.65097  -0.64908
 Alpha  occ. eigenvalues --   -0.64683  -0.62208  -0.60606  -0.59115  -0.57255
 Alpha  occ. eigenvalues --   -0.55339  -0.54926  -0.53181  -0.52939  -0.52396
 Alpha  occ. eigenvalues --   -0.52061  -0.49605  -0.48970  -0.48968  -0.47634
 Alpha  occ. eigenvalues --   -0.46397  -0.45650  -0.45345  -0.44584  -0.43451
 Alpha  occ. eigenvalues --   -0.37407  -0.36358
 Alpha virt. eigenvalues --    0.04878   0.11167   0.16291   0.20475   0.23282
 Alpha virt. eigenvalues --    0.24502   0.25894   0.27143   0.27353   0.28393
 Alpha virt. eigenvalues --    0.29541   0.30777   0.31549   0.31970   0.32655

 Mulliken charges:
               1
     1  C   -0.297369
     2  C   -0.300506
     3  C   -0.475363
     4  H    0.148413
     5  H    0.149333
     6  H    0.152592
     7  H    0.144904
     8  H    0.155591
     9  H    0.157836
    10  H    0.152492
    11  C   -0.310705
    12  C   -0.298178
    13  C   -0.479004
    14  H    0.145425
    15  H    0.168817
    16  H    0.147528
    17  H    0.151440
    18  H    0.169720
    19  H    0.152563
    20  H    0.156856
    21  C   -0.170746
    22  C   -0.218585
    23  C   -0.171092
    24  C    0.157948
    25  C   -0.168090
    26  C   -0.216839
    27  H    0.225962
    28  H    0.223660
    29  H    0.275657
    30  H    0.275166
    31  H    0.224477
    32  N    0.488743
    33  O   -0.460656
    34  O   -0.457993
 Sum of Mulliken charges =  -0.00000

 Dipole moment (field-independent basis, Debye):
    X=              2.6700    Y=              4.1874    Z=             -1.2542  Tot=              5.1221
 Quadrupole moment (field-independent basis, Debye-Ang):
   XX=            -83.5568   YY=           -100.8574   ZZ=            -92.8019
   XY=              5.9982   XZ=             -4.3753   YZ=              3.0617

 Normal termination of Gaussian 16 at Wed May  5 18:34:59 2021.
