 Gaussian 16, Revision A.03,
 Gaussian 16:  EM64L-G16RevA.03 25-Dec-2016

 -------------
 #p 6-31g* mp2
 -------------

 ------------------------------------------------------
 Input file generated by CHIRIPA (05-May-2021 14:57:21)
 ------------------------------------------------------
 Symbolic Z-matrix:
 Charge =  0 Multiplicity = 1

                         Standard orientation:
 ---------------------------------------------------------------------
 Center     Atomic      Atomic             Coordinates (Angstroms)
 Number     Number       Type             X           Y           Z
 ---------------------------------------------------------------------
      1          6           0        3.384121    2.669207    0.197849
      2          6           0        2.329139    1.921657    0.731425
      3          6           0        2.363465    0.524318    0.702871
      4          6           0        3.473193   -0.095540    0.130534
      5          6           0        4.539850    0.621513   -0.409252
      6          6           0        4.484170    2.017898   -0.369786
      7          1           0        3.349161    3.754323    0.224269
      8          1           0        1.473557    2.424785    1.172885
      9          1           0        1.560457   -0.078896    1.108737
     10          1           0        5.379363    0.091651   -0.842706
     11          1           0        5.304921    2.595889   -0.784923
     12          7           0        3.520836   -1.574334    0.094529
     13          8           0        4.509799   -2.096521   -0.415286
     14          8           0        2.568314   -2.183225    0.576804
     15          6           0       -5.642683    1.091853    0.159195
     16          6           0       -4.503923    1.772700   -0.283745
     17          6           0       -3.292192    1.095770   -0.451143
     18          6           0       -3.254844   -0.268066   -0.165052
     19          6           0       -4.372150   -0.974304    0.277831
     20          6           0       -5.573284   -0.277063    0.438077
     21          1           0       -6.579869    1.625597    0.286456
     22          1           0       -4.554878    2.835813   -0.501090
     23          1           0       -2.395365    1.598245   -0.792665
     24          1           0       -4.290368   -2.034115    0.486467
     25          1           0       -6.456063   -0.808397    0.782214
     26          7           0       -1.977648   -0.995452   -0.338483
     27          8           0       -1.970904   -2.196953   -0.079661
     28          8           0       -1.007509   -0.350306   -0.729956
 ---------------------------------------------------------------------

 SCF Done:  E(RHF) =  -868.337183316     A.U. after   16 cycles
 E2 =    -0.2599585880D+01 EUMP2 =    -0.87093676919532D+03

 The electronic state is 1-A.
 Alpha  occ. eigenvalues --  -20.60946 -20.60875 -20.59638 -20.59563 -15.85962
 Alpha  occ. eigenvalues --  -15.84660 -11.31397 -11.30136 -11.28007 -11.27936
 Alpha  occ. eigenvalues --  -11.27713 -11.27017 -11.26966 -11.26828 -11.26668
 Alpha  occ. eigenvalues --  -11.26643 -11.25880 -11.25823  -1.59977  -1.58677
 Alpha  occ. eigenvalues --   -1.39533  -1.38223  -1.19572  -1.18365  -1.08950
 Alpha  occ. eigenvalues --   -1.07761  -1.04985  -1.03791  -0.95773  -0.94560
 Alpha  occ. eigenvalues --   -0.86378  -0.85195  -0.82605  -0.81392  -0.77648
 Alpha  occ. eigenvalues --   -0.76391  -0.72169  -0.71317  -0.70883  -0.70675
 Alpha  occ. eigenvalues --   -0.69996  -0.69505  -0.65222  -0.64984  -0.64032
 Alpha  occ. eigenvalues --   -0.63832  -0.62333  -0.61128  -0.55473  -0.54360
 Alpha  occ. eigenvalues --   -0.53311  -0.53076  -0.52116  -0.51908  -0.48928
 Alpha  occ. eigenvalues --   -0.48899  -0.47669  -0.47615  -0.44924  -0.43600
 Alpha  occ. eigenvalues --   -0.37553  -0.36593  -0.36398  -0.35376
 Alpha virt. eigenvalues --    0.04861   0.06162   0.11060   0.12262   0.16347
 Alpha virt. eigenvalues --    0.17579   0.21178   0.22247   0.27060   0.27816
 Alpha virt. eigenvalues --    0.28375   0.29205   0.30800   0.31690   0.32409

 Mulliken charges:
               1
     1  C   -0.171549
     2  C   -0.219936
     3  C   -0.158535
     4  C    0.156253
     5  C   -0.171232
     6  C   -0.219781
     7  H    0.220075
     8  H    0.217232
     9  H    0.283660
    10  H    0.273137
    11  H    0.219153
    12  N    0.487927
    13  O   -0.466771
    14  O   -0.451517
    15  C   -0.170897
    16  C   -0.218373
    17  C   -0.172656
    18  C    0.158340
    19  C   -0.170600
    20  C   -0.218368
    21  H    0.226061
    22  H    0.222500
    23  H    0.272363
    24  H    0.277882
    25  H    0.224702
    26  N    0.487548
    27  O   -0.450562
    28  O   -0.466057
 Sum of Mulliken charges =  -0.00000

 Dipole moment (field-independent basis, Debye):
    X=             -5.0306    Y=              7.4500    Z=              0.7761  Tot=              9.0229
 Quadrupole moment (field-independent basis, Debye-Ang):
   XX=            -73.3687   YY=           -104.6926   ZZ=           -105.0934
   XY=             13.1576   XZ=             -3.9904   YZ=             -1.5979

 Normal termination of Gaussian 16 at Thu May  6 09:36:52 2021.
