 Gaussian 16, Revision A.03,
 Gaussian 16:  EM64L-G16RevA.03 25-Dec-2016

 -------------
 #p 6-31g* mp2
 -------------

 ------------------------------------------------------
 Input file generated by CHIRIPA (05-May-2021 14:55:24)
 ------------------------------------------------------
 Symbolic Z-matrix:
 Charge =  0 Multiplicity = 1

                         Standard orientation:
 ---------------------------------------------------------------------
 Center     Atomic      Atomic             Coordinates (Angstroms)
 Number     Number       Type             X           Y           Z
 ---------------------------------------------------------------------
      1          6           0        3.345964    2.680667    0.142697
      2          6           0        2.590491    1.974454    1.084528
      3          6           0        2.518085    0.579169    1.034691
      4          6           0        3.216830   -0.080811    0.025002
      5          6           0        3.978019    0.594539   -0.927774
      6          6           0        4.036101    1.989674   -0.858682
      7          1           0        3.396647    3.764500    0.188891
      8          1           0        2.053491    2.508455    1.863321
      9          1           0        1.940716    0.007500    1.751112
     10          1           0        4.502465    0.034471   -1.692430
     11          1           0        4.623596    2.535514   -1.591453
     12          7           0        3.147760   -1.557857   -0.037950
     13          8           0        3.772526   -2.115872   -0.937352
     14          8           0        2.470164   -2.129584    0.813302
     15          6           0       -4.595909    0.387385   -0.162132
     16          6           0       -6.079352    0.021760   -0.101289
     17          6           0       -6.994580    1.223674   -0.336983
     18          1           0       -4.384980    1.163099    0.586681
     19          1           0       -4.374720    0.831143   -1.142718
     20          1           0       -6.297383   -0.422446    0.878385
     21          1           0       -6.286733   -0.753312   -0.850203
     22          1           0       -6.805934    1.664376   -1.321257
     23          1           0       -6.816645    1.997121    0.417153
     24          1           0       -8.050488    0.939722   -0.289137
     25          6           0       -3.668319   -0.803703    0.071565
     26          6           0       -2.184876   -0.438078    0.010722
     27          6           0       -1.269647   -1.639992    0.246416
     28          1           0       -3.889507   -1.247462    1.052152
     29          1           0       -3.879247   -1.579417   -0.677247
     30          1           0       -1.977495    0.336993    0.759637
     31          1           0       -1.966844    0.006128   -0.968951
     32          1           0       -1.447583   -2.413439   -0.507719
     33          1           0       -1.458293   -2.080694    1.230691
     34          1           0       -0.213740   -1.356040    0.198571
 ---------------------------------------------------------------------

 SCF Done:  E(RHF) =  -669.535961492     A.U. after   15 cycles
 E2 =    -0.2091430975D+01 EUMP2 =    -0.67162739246776D+03

 The electronic state is 1-A.
 Alpha  occ. eigenvalues --  -20.60899 -20.60889 -15.85913 -11.31257 -11.27817
 Alpha  occ. eigenvalues --  -11.27813 -11.27556 -11.26832 -11.26822 -11.21521
 Alpha  occ. eigenvalues --  -11.21341 -11.21286 -11.21159 -11.21040 -11.20423
 Alpha  occ. eigenvalues --   -1.59952  -1.39508  -1.19425  -1.08826  -1.08259
 Alpha  occ. eigenvalues --   -1.04823  -1.03309  -0.95739  -0.95654  -0.86733
 Alpha  occ. eigenvalues --   -0.86222  -0.82497  -0.79374  -0.78078  -0.77549
 Alpha  occ. eigenvalues --   -0.72139  -0.71269  -0.70531  -0.65080  -0.64897
 Alpha  occ. eigenvalues --   -0.64825  -0.62174  -0.60712  -0.59109  -0.57353
 Alpha  occ. eigenvalues --   -0.55326  -0.55017  -0.53153  -0.52920  -0.52390
 Alpha  occ. eigenvalues --   -0.52150  -0.49670  -0.48903  -0.48897  -0.47689
 Alpha  occ. eigenvalues --   -0.46432  -0.45612  -0.45550  -0.44929  -0.43475
 Alpha  occ. eigenvalues --   -0.37403  -0.36419
 Alpha virt. eigenvalues --    0.04960   0.11155   0.16439   0.21246   0.22994
 Alpha virt. eigenvalues --    0.24352   0.26754   0.27119   0.27667   0.27784
 Alpha virt. eigenvalues --    0.28725   0.30630   0.31633   0.31762   0.32013

 Mulliken charges:
               1
     1  C   -0.170622
     2  C   -0.218398
     3  C   -0.172019
     4  C    0.158505
     5  C   -0.170908
     6  C   -0.218433
     7  H    0.225911
     8  H    0.223873
     9  H    0.276852
    10  H    0.275746
    11  H    0.223717
    12  N    0.487729
    13  O   -0.458787
    14  O   -0.457744
    15  C   -0.297589
    16  C   -0.299507
    17  C   -0.475499
    18  H    0.147174
    19  H    0.148676
    20  H    0.151992
    21  H    0.152627
    22  H    0.154734
    23  H    0.154062
    24  H    0.160235
    25  C   -0.297782
    26  C   -0.299932
    27  C   -0.478209
    28  H    0.149477
    29  H    0.150914
    30  H    0.144394
    31  H    0.149972
    32  H    0.157303
    33  H    0.155221
    34  H    0.166317
 Sum of Mulliken charges =  -0.00000

 Dipole moment (field-independent basis, Debye):
    X=              0.4022    Y=              5.1326    Z=              0.2087  Tot=              5.1526
 Quadrupole moment (field-independent basis, Debye-Ang):
   XX=            -92.7813   YY=            -96.5575   ZZ=            -90.8384
   XY=             17.7034   XZ=             -2.2040   YZ=              0.4148

 Normal termination of Gaussian 16 at Thu May  6 15:59:42 2021.
