 Gaussian 16, Revision A.03,
 Gaussian 16:  EM64L-G16RevA.03 25-Dec-2016

 -------------
 #p 6-31g* mp2
 -------------

 ------------------------------------------------------
 Input file generated by CHIRIPA (05-May-2021 14:57:24)
 ------------------------------------------------------
 Symbolic Z-matrix:
 Charge =  0 Multiplicity = 1

                         Standard orientation:
 ---------------------------------------------------------------------
 Center     Atomic      Atomic             Coordinates (Angstroms)
 Number     Number       Type             X           Y           Z
 ---------------------------------------------------------------------
      1          6           0       -1.375657    1.850016    1.748910
      2          6           0       -2.182652    2.417258    0.757185
      3          6           0       -2.937698    1.605210   -0.094302
      4          6           0       -2.861632    0.223570    0.074741
      5          6           0       -2.067014   -0.371592    1.053340
      6          6           0       -1.320511    0.459853    1.893567
      7          1           0       -0.792438    2.488368    2.405992
      8          1           0       -2.227433    3.496561    0.642538
      9          1           0       -3.570750    2.017874   -0.870428
     10          1           0       -2.042960   -1.450823    1.143341
     11          1           0       -0.694659    0.016550    2.662876
     12          7           0       -3.656444   -0.646376   -0.820730
     13          8           0       -3.572050   -1.860793   -0.651300
     14          8           0       -4.348760   -0.097350   -1.675075
     15          6           0        1.187497   -2.228505    0.498261
     16          6           0        2.387349   -2.009325    1.182979
     17          6           0        3.250026   -0.980810    0.792479
     18          6           0        2.879823   -0.186979   -0.291990
     19          6           0        1.691285   -0.380341   -0.994327
     20          6           0        0.843901   -1.414747   -0.586295
     21          1           0        0.523288   -3.029768    0.808421
     22          1           0        2.656767   -2.639733    2.025620
     23          1           0        4.185002   -0.789058    1.304797
     24          1           0        1.449876    0.264587   -1.830514
     25          1           0       -0.087281   -1.582651   -1.119919
     26          7           0        3.785006    0.904982   -0.714675
     27          8           0        3.435925    1.590414   -1.673301
     28          8           0        4.826430    1.054754   -0.079347
 ---------------------------------------------------------------------

 SCF Done:  E(RHF) =  -868.337500036     A.U. after   16 cycles
 E2 =    -0.2602550193D+01 EUMP2 =    -0.87094005022961D+03

 The electronic state is 1-A.
 Alpha  occ. eigenvalues --  -20.61528 -20.61493 -20.61111 -20.61102 -15.86548
 Alpha  occ. eigenvalues --  -15.86158 -11.31762 -11.31539 -11.28365 -11.28250
 Alpha  occ. eigenvalues --  -11.28097 -11.28006 -11.27931 -11.27815 -11.27250
 Alpha  occ. eigenvalues --  -11.27207 -11.27166 -11.27014  -1.60587  -1.60185
 Alpha  occ. eigenvalues --   -1.40145  -1.39737  -1.19919  -1.19690  -1.09314
 Alpha  occ. eigenvalues --   -1.09105  -1.05303  -1.05061  -0.96186  -0.95930
 Alpha  occ. eigenvalues --   -0.86711  -0.86461  -0.83015  -0.82748  -0.78109
 Alpha  occ. eigenvalues --   -0.77790  -0.72758  -0.72375  -0.71924  -0.71512
 Alpha  occ. eigenvalues --   -0.71035  -0.70774  -0.65550  -0.65368  -0.65274
 Alpha  occ. eigenvalues --   -0.65034  -0.62664  -0.62393  -0.55749  -0.55601
 Alpha  occ. eigenvalues --   -0.54001  -0.53368  -0.53198  -0.53020  -0.49539
 Alpha  occ. eigenvalues --   -0.49496  -0.49134  -0.49130  -0.45572  -0.45138
 Alpha  occ. eigenvalues --   -0.38039  -0.37828  -0.37115  -0.36065
 Alpha virt. eigenvalues --    0.04369   0.04713   0.10338   0.11377   0.15920
 Alpha virt. eigenvalues --    0.16154   0.20077   0.21612   0.25771   0.26952
 Alpha virt. eigenvalues --    0.27448   0.28884   0.30482   0.30887   0.31874

 Mulliken charges:
               1
     1  C   -0.170744
     2  C   -0.217693
     3  C   -0.171921
     4  C    0.154919
     5  C   -0.173433
     6  C   -0.211392
     7  H    0.229581
     8  H    0.227409
     9  H    0.277219
    10  H    0.267398
    11  H    0.223578
    12  N    0.487296
    13  O   -0.466060
    14  O   -0.455830
    15  C   -0.180185
    16  C   -0.220885
    17  C   -0.173421
    18  C    0.158042
    19  C   -0.171217
    20  C   -0.215007
    21  H    0.226782
    22  H    0.223285
    23  H    0.275374
    24  H    0.277229
    25  H    0.232102
    26  N    0.487610
    27  O   -0.459351
    28  O   -0.460687
 Sum of Mulliken charges =  -0.00000

 Dipole moment (field-independent basis, Debye):
    X=             -0.4212    Y=             -0.5637    Z=              4.6070  Tot=              4.6605
 Quadrupole moment (field-independent basis, Debye-Ang):
   XX=           -137.9422   YY=            -99.0765   ZZ=           -102.2287
   XY=            -21.6410   XZ=             -0.0147   YZ=             -1.1725

 Normal termination of Gaussian 16 at Fri May  7 06:29:23 2021.
