 Gaussian 16, Revision A.03,
 Gaussian 16:  EM64L-G16RevA.03 25-Dec-2016

 -------------
 #p 6-31g* mp2
 -------------

 ------------------------------------------------------
 Input file generated by CHIRIPA (05-May-2021 14:53:11)
 ------------------------------------------------------
 Symbolic Z-matrix:
 Charge =  0 Multiplicity = 1

                         Standard orientation:
 ---------------------------------------------------------------------
 Center     Atomic      Atomic             Coordinates (Angstroms)
 Number     Number       Type             X           Y           Z
 ---------------------------------------------------------------------
      1          6           0       -3.658487    0.119809    0.149477
      2          6           0       -4.464941   -0.611646   -0.924110
      3          6           0       -5.337425   -1.728264   -0.349890
      4          1           0       -3.026504   -0.604476    0.681411
      5          1           0       -4.348680    0.538979    0.894679
      6          1           0       -3.773514   -1.028129   -1.667807
      7          1           0       -5.094936    0.114496   -1.453677
      8          1           0       -6.049829   -1.325223    0.377186
      9          1           0       -4.720900   -2.474341    0.161839
     10          1           0       -5.905231   -2.237863   -1.134597
     11          6           0       -2.781327    1.238897   -0.409058
     12          6           0       -1.974872    1.970352    0.664530
     13          6           0       -1.102388    3.086970    0.090309
     14          1           0       -2.091133    0.819728   -1.154259
     15          1           0       -3.413310    1.963182   -0.940991
     16          1           0       -1.344878    1.244210    1.194097
     17          1           0       -2.666300    2.386835    1.408227
     18          1           0       -1.718914    3.833047   -0.421420
     19          1           0       -0.389984    2.683930   -0.636766
     20          1           0       -0.534583    3.596570    0.875017
     21          6           0        0.842990   -2.269615    0.839498
     22          6           0        1.895845   -2.626897   -0.009245
     23          6           0        2.828422   -1.671736   -0.424596
     24          6           0        2.677249   -0.362637    0.030042
     25          6           0        1.639109    0.024332    0.876097
     26          6           0        0.718202   -0.947471    1.278686
     27          1           0        0.123074   -3.018070    1.157196
     28          1           0        1.995240   -3.652935   -0.351902
     29          1           0        3.653078   -1.920981   -1.081283
     30          1           0        1.566189    1.055112    1.201045
     31          1           0       -0.098457   -0.667133    1.937871
     32          7           0        3.658349    0.657358   -0.402916
     33          8           0        3.503080    1.803941    0.011660
     34          8           0        4.564029    0.290932   -1.148647
 ---------------------------------------------------------------------

 SCF Done:  E(RHF) =  -669.535209799     A.U. after   15 cycles
 E2 =    -0.2092712945D+01 EUMP2 =    -0.67162792274416D+03

 The electronic state is 1-A.
 Alpha  occ. eigenvalues --  -20.60794 -20.60788 -15.85847 -11.31231 -11.27806
 Alpha  occ. eigenvalues --  -11.27790 -11.27551 -11.26823 -11.26804 -11.22161
 Alpha  occ. eigenvalues --  -11.22108 -11.21982 -11.21835 -11.21594 -11.21336
 Alpha  occ. eigenvalues --   -1.59869  -1.39421  -1.19410  -1.08957  -1.08798
 Alpha  occ. eigenvalues --   -1.04821  -1.04014  -0.96440  -0.95629  -0.87449
 Alpha  occ. eigenvalues --   -0.86209  -0.82471  -0.80088  -0.78789  -0.77503
 Alpha  occ. eigenvalues --   -0.72064  -0.71193  -0.70513  -0.65640  -0.65057
 Alpha  occ. eigenvalues --   -0.64800  -0.62260  -0.61321  -0.59807  -0.58060
 Alpha  occ. eigenvalues --   -0.55728  -0.55301  -0.53154  -0.53102  -0.52949
 Alpha  occ. eigenvalues --   -0.52829  -0.50364  -0.48828  -0.48817  -0.48392
 Alpha  occ. eigenvalues --   -0.47129  -0.46322  -0.46220  -0.44821  -0.44268
 Alpha  occ. eigenvalues --   -0.37389  -0.36390
 Alpha virt. eigenvalues --    0.04997   0.11146   0.16370   0.19746   0.22867
 Alpha virt. eigenvalues --    0.23494   0.24955   0.26499   0.26716   0.28487
 Alpha virt. eigenvalues --    0.29241   0.30487   0.31223   0.31540   0.32176

 Mulliken charges:
               1
     1  C   -0.296972
     2  C   -0.300277
     3  C   -0.475313
     4  H    0.140666
     5  H    0.150736
     6  H    0.152762
     7  H    0.154616
     8  H    0.156350
     9  H    0.151345
    10  H    0.162117
    11  C   -0.298486
    12  C   -0.302555
    13  C   -0.479066
    14  H    0.152826
    15  H    0.152852
    16  H    0.141091
    17  H    0.153241
    18  H    0.158542
    19  H    0.161341
    20  H    0.162037
    21  C   -0.171773
    22  C   -0.218681
    23  C   -0.170785
    24  C    0.157446
    25  C   -0.171554
    26  C   -0.220501
    27  H    0.225809
    28  H    0.223668
    29  H    0.275814
    30  H    0.278682
    31  H    0.226304
    32  N    0.488075
    33  O   -0.460002
    34  O   -0.460353
 Sum of Mulliken charges =  -0.00000

 Dipole moment (field-independent basis, Debye):
    X=             -3.4938    Y=             -3.5086    Z=              1.4103  Tot=              5.1484
 Quadrupole moment (field-independent basis, Debye-Ang):
   XX=           -112.2579   YY=            -89.9639   ZZ=            -93.9511
   XY=            -11.6180   XZ=              2.8532   YZ=              1.6517

 Normal termination of Gaussian 16 at Wed May  5 18:27:39 2021.
