 Gaussian 16, Revision A.03,
 Gaussian 16:  EM64L-G16RevA.03 25-Dec-2016

 -------------
 #p 6-31g* mp2
 -------------

 ------------------------------------------------------
 Input file generated by CHIRIPA (05-May-2021 14:57:26)
 ------------------------------------------------------
 Symbolic Z-matrix:
 Charge =  0 Multiplicity = 1

                         Standard orientation:
 ---------------------------------------------------------------------
 Center     Atomic      Atomic             Coordinates (Angstroms)
 Number     Number       Type             X           Y           Z
 ---------------------------------------------------------------------
      1          6           0       -3.779804    0.205780   -1.642860
      2          6           0       -4.072440    0.750059   -0.388011
      3          6           0       -3.268820    0.457178    0.717866
      4          6           0       -2.175536   -0.387525    0.532134
      5          6           0       -1.858005   -0.945332   -0.705329
      6          6           0       -2.675468   -0.638689   -1.797242
      7          1           0       -4.409452    0.438642   -2.496508
      8          1           0       -4.929435    1.406194   -0.265165
      9          1           0       -3.472453    0.864839    1.700599
     10          1           0       -0.996894   -1.596147   -0.796684
     11          1           0       -2.445801   -1.062820   -2.770593
     12          7           0       -1.317452   -0.704869    1.695485
     13          8           0       -0.360021   -1.451800    1.505595
     14          8           0       -1.618565   -0.200665    2.775182
     15          6           0        3.048325   -2.069093   -0.564652
     16          6           0        1.956241   -1.598051   -1.300854
     17          6           0        1.542191   -0.267797   -1.184510
     18          6           0        2.246253    0.567663   -0.318720
     19          6           0        3.338162    0.128103    0.428148
     20          6           0        3.734590   -1.206035    0.295982
     21          1           0        3.363125   -3.103975   -0.661176
     22          1           0        1.421400   -2.266054   -1.970003
     23          1           0        0.700123    0.123120   -1.742654
     24          1           0        3.851515    0.817808    1.087082
     25          1           0        4.583072   -1.569100    0.868962
     26          7           0        1.817243    1.977999   -0.187177
     27          8           0        2.454241    2.693944    0.582430
     28          8           0        0.852112    2.340772   -0.856172
 ---------------------------------------------------------------------

 SCF Done:  E(RHF) =  -868.335778492     A.U. after   16 cycles
 E2 =    -0.2604034874D+01 EUMP2 =    -0.87093981336622D+03

 The electronic state is 1-A.
 Alpha  occ. eigenvalues --  -20.60753 -20.60747 -20.60427 -20.60399 -15.85791
 Alpha  occ. eigenvalues --  -15.85465 -11.31153 -11.30688 -11.27796 -11.27682
 Alpha  occ. eigenvalues --  -11.27469 -11.27366 -11.27257 -11.27052 -11.26831
 Alpha  occ. eigenvalues --  -11.26681 -11.26401 -11.26224  -1.59825  -1.59492
 Alpha  occ. eigenvalues --   -1.39379  -1.39051  -1.19334  -1.18876  -1.08720
 Alpha  occ. eigenvalues --   -1.08302  -1.04797  -1.04309  -0.95575  -0.95161
 Alpha  occ. eigenvalues --   -0.86169  -0.85731  -0.82425  -0.82043  -0.77510
 Alpha  occ. eigenvalues --   -0.77070  -0.72032  -0.71702  -0.71187  -0.70769
 Alpha  occ. eigenvalues --   -0.70524  -0.70004  -0.65006  -0.64833  -0.64555
 Alpha  occ. eigenvalues --   -0.64396  -0.62288  -0.61569  -0.55253  -0.54837
 Alpha  occ. eigenvalues --   -0.53090  -0.52975  -0.52454  -0.52398  -0.48797
 Alpha  occ. eigenvalues --   -0.48763  -0.48459  -0.48438  -0.44777  -0.44483
 Alpha  occ. eigenvalues --   -0.37280  -0.36808  -0.36434  -0.35684
 Alpha virt. eigenvalues --    0.04925   0.05589   0.10971   0.12085   0.16464
 Alpha virt. eigenvalues --    0.16837   0.20606   0.22285   0.26108   0.27913
 Alpha virt. eigenvalues --    0.28621   0.29448   0.30471   0.31541   0.32622

 Mulliken charges:
               1
     1  C   -0.167437
     2  C   -0.216533
     3  C   -0.165931
     4  C    0.161045
     5  C   -0.177306
     6  C   -0.220273
     7  H    0.226300
     8  H    0.225095
     9  H    0.277463
    10  H    0.273457
    11  H    0.218928
    12  N    0.486770
    13  O   -0.463651
    14  O   -0.457761
    15  C   -0.164526
    16  C   -0.215356
    17  C   -0.170250
    18  C    0.161448
    19  C   -0.164980
    20  C   -0.215178
    21  H    0.224436
    22  H    0.212412
    23  H    0.270452
    24  H    0.275630
    25  H    0.223215
    26  N    0.487373
    27  O   -0.458934
    28  O   -0.465909
 Sum of Mulliken charges =  -0.00000

 Dipole moment (field-independent basis, Debye):
    X=             -1.5132    Y=             -3.7483    Z=             -4.2542  Tot=              5.8684
 Quadrupole moment (field-independent basis, Debye-Ang):
   XX=            -80.0656   YY=           -110.9726   ZZ=           -106.2579
   XY=            -13.5787   XZ=              7.0645   YZ=              5.9244

 Normal termination of Gaussian 16 at Thu May  6 22:56:14 2021.
