 Gaussian 16, Revision A.03,
 Gaussian 16:  EM64L-G16RevA.03 25-Dec-2016

 -------------
 #p 6-31g* mp2
 -------------

 ------------------------------------------------------
 Input file generated by CHIRIPA (05-May-2021 14:55:24)
 ------------------------------------------------------
 Symbolic Z-matrix:
 Charge =  0 Multiplicity = 1

                         Standard orientation:
 ---------------------------------------------------------------------
 Center     Atomic      Atomic             Coordinates (Angstroms)
 Number     Number       Type             X           Y           Z
 ---------------------------------------------------------------------
      1          6           0       -1.390397    2.476352   -1.086067
      2          6           0       -0.824815    2.238815    0.170999
      3          6           0       -1.225828    1.137682    0.933392
      4          6           0       -2.199210    0.290742    0.405651
      5          6           0       -2.781486    0.500668   -0.843419
      6          6           0       -2.365209    1.608051   -1.588378
      7          1           0       -1.072951    3.334166   -1.671540
      8          1           0       -0.067564    2.911468    0.563624
      9          1           0       -0.804538    0.930196    1.909549
     10          1           0       -3.534253   -0.187574   -1.208225
     11          1           0       -2.806183    1.790052   -2.564320
     12          7           0       -2.631825   -0.878286    1.203534
     13          8           0       -3.491147   -1.609491    0.716152
     14          8           0       -2.103394   -1.041230    2.301190
     15          6           0        3.020279    0.030992   -0.080172
     16          6           0        4.411269   -0.145216    0.529813
     17          6           0        4.991269    1.163497    1.067089
     18          1           0        3.073421    0.770361   -0.891007
     19          1           0        2.344609    0.448077    0.679371
     20          1           0        5.083772   -0.563138   -0.230250
     21          1           0        4.354846   -0.884393    1.339165
     22          1           0        4.343365    1.581666    1.844236
     23          1           0        5.076432    1.904746    0.265903
     24          1           0        5.985988    1.014538    1.498602
     25          6           0        2.427172   -1.268528   -0.621653
     26          6           0        1.036182   -1.092320   -1.231639
     27          6           0        0.456182   -2.401033   -1.768914
     28          1           0        3.102841   -1.685613   -1.381196
     29          1           0        2.374029   -2.007897    0.189182
     30          1           0        1.092605   -0.353142   -2.040990
     31          1           0        0.363679   -0.674397   -0.471575
     32          1           0        0.371019   -3.142282   -0.967729
     33          1           0        1.104086   -2.819201   -2.546060
     34          1           0       -0.538538   -2.252074   -2.200427
 ---------------------------------------------------------------------

 SCF Done:  E(RHF) =  -669.534521413     A.U. after   15 cycles
 E2 =    -0.2094540570D+01 EUMP2 =    -0.67162906198290D+03

 The electronic state is 1-A.
 Alpha  occ. eigenvalues --  -20.60829 -20.60824 -15.85881 -11.31233 -11.27837
 Alpha  occ. eigenvalues --  -11.27800 -11.27572 -11.26863 -11.26835 -11.21783
 Alpha  occ. eigenvalues --  -11.21609 -11.21431 -11.21355 -11.21351 -11.20898
 Alpha  occ. eigenvalues --   -1.59905  -1.39458  -1.19447  -1.08827  -1.08514
 Alpha  occ. eigenvalues --   -1.04846  -1.03584  -0.96051  -0.95661  -0.87062
 Alpha  occ. eigenvalues --   -0.86238  -0.82491  -0.79664  -0.78340  -0.77536
 Alpha  occ. eigenvalues --   -0.72100  -0.71239  -0.70542  -0.65161  -0.65088
 Alpha  occ. eigenvalues --   -0.64837  -0.62188  -0.61007  -0.59445  -0.57680
 Alpha  occ. eigenvalues --   -0.55352  -0.55337  -0.53294  -0.52929  -0.52674
 Alpha  occ. eigenvalues --   -0.52465  -0.49983  -0.48861  -0.48854  -0.47942
 Alpha  occ. eigenvalues --   -0.46699  -0.45834  -0.45790  -0.44850  -0.43845
 Alpha  occ. eigenvalues --   -0.37362  -0.36379
 Alpha virt. eigenvalues --    0.04959   0.11136   0.16415   0.21005   0.22829
 Alpha virt. eigenvalues --    0.24095   0.25931   0.26914   0.27566   0.28101
 Alpha virt. eigenvalues --    0.28713   0.30727   0.31440   0.31711   0.31774

 Mulliken charges:
               1
     1  C   -0.171127
     2  C   -0.210789
     3  C   -0.180126
     4  C    0.163373
     5  C   -0.171882
     6  C   -0.216655
     7  H    0.226073
     8  H    0.224642
     9  H    0.275227
    10  H    0.275927
    11  H    0.223918
    12  N    0.488387
    13  O   -0.460205
    14  O   -0.461032
    15  C   -0.296423
    16  C   -0.299884
    17  C   -0.475427
    18  H    0.146078
    19  H    0.143272
    20  H    0.152950
    21  H    0.154778
    22  H    0.152480
    23  H    0.153171
    24  H    0.162008
    25  C   -0.298357
    26  C   -0.304903
    27  C   -0.476923
    28  H    0.148849
    29  H    0.153428
    30  H    0.146804
    31  H    0.159686
    32  H    0.160906
    33  H    0.153485
    34  H    0.158292
 Sum of Mulliken charges =  -0.00000

 Dipole moment (field-independent basis, Debye):
    X=              1.4433    Y=              4.1105    Z=             -2.7985  Tot=              5.1779
 Quadrupole moment (field-independent basis, Debye-Ang):
   XX=           -100.0875   YY=            -93.1945   ZZ=            -94.2552
   XY=             -8.3231   XZ=              9.0762   YZ=              1.1699

 Normal termination of Gaussian 16 at Thu May  6 11:04:26 2021.
