 Gaussian 16, Revision A.03,
 Gaussian 16:  EM64L-G16RevA.03 25-Dec-2016

 -------------
 #p 6-31g* mp2
 -------------

 ------------------------------------------------------
 Input file generated by CHIRIPA (05-May-2021 14:57:24)
 ------------------------------------------------------
 Symbolic Z-matrix:
 Charge =  0 Multiplicity = 1

                         Standard orientation:
 ---------------------------------------------------------------------
 Center     Atomic      Atomic             Coordinates (Angstroms)
 Number     Number       Type             X           Y           Z
 ---------------------------------------------------------------------
      1          6           0       -5.852072    1.320016   -0.178499
      2          6           0       -4.641202    1.784913   -0.702127
      3          6           0       -3.509277    0.964404   -0.709707
      4          6           0       -3.624397   -0.321242   -0.183255
      5          6           0       -4.816723   -0.813247    0.345497
      6          6           0       -5.935820    0.024704    0.342723
      7          1           0       -6.726396    1.964182   -0.176632
      8          1           0       -4.573232    2.790416   -1.107576
      9          1           0       -2.559427    1.298884   -1.108864
     10          1           0       -4.853605   -1.820364    0.742704
     11          1           0       -6.874894   -0.339006    0.750032
     12          7           0       -2.432868   -1.199111   -0.185800
     13          8           0       -2.560355   -2.327730    0.283884
     14          8           0       -1.394023   -0.741942   -0.657430
     15          6           0        1.524721    0.559410    1.156223
     16          6           0        1.919360   -0.728475    0.779216
     17          6           0        3.189168   -0.952316    0.238817
     18          6           0        4.042749    0.139546    0.088733
     19          6           0        3.678722    1.434436    0.454840
     20          6           0        2.404111    1.634859    0.993119
     21          1           0        0.536438    0.724199    1.575194
     22          1           0        1.238501   -1.565566    0.904735
     23          1           0        3.520416   -1.938996   -0.061445
     24          1           0        4.379438    2.249042    0.317611
     25          1           0        2.100327    2.636133    1.285028
     26          7           0        5.389581   -0.085029   -0.482242
     27          8           0        6.123011    0.893660   -0.604247
     28          8           0        5.686294   -1.235487   -0.796954
 ---------------------------------------------------------------------

 SCF Done:  E(RHF) =  -868.339652350     A.U. after   15 cycles
 E2 =    -0.2599147904D+01 EUMP2 =    -0.87093880025379D+03

 The electronic state is 1-A.
 Alpha  occ. eigenvalues --  -20.61886 -20.61874 -20.59987 -20.59972 -15.86887
 Alpha  occ. eigenvalues --  -15.85026 -11.32021 -11.30194 -11.28563 -11.28543
 Alpha  occ. eigenvalues --  -11.28238 -11.27511 -11.27494 -11.26788 -11.26627
 Alpha  occ. eigenvalues --  -11.26379 -11.25804 -11.25483  -1.60953  -1.59062
 Alpha  occ. eigenvalues --   -1.40506  -1.38621  -1.20169  -1.18324  -1.09607
 Alpha  occ. eigenvalues --   -1.07745  -1.05529  -1.03685  -0.96479  -0.94625
 Alpha  occ. eigenvalues --   -0.86937  -0.85084  -0.83310  -0.81461  -0.78393
 Alpha  occ. eigenvalues --   -0.76542  -0.73109  -0.72270  -0.71261  -0.71249
 Alpha  occ. eigenvalues --   -0.70381  -0.69427  -0.65817  -0.65522  -0.63967
 Alpha  occ. eigenvalues --   -0.63657  -0.62875  -0.61032  -0.56028  -0.54190
 Alpha  occ. eigenvalues --   -0.53878  -0.53611  -0.52037  -0.51766  -0.49884
 Alpha  occ. eigenvalues --   -0.49850  -0.48017  -0.47985  -0.45953  -0.44071
 Alpha  occ. eigenvalues --   -0.38134  -0.37125  -0.36262  -0.35267
 Alpha virt. eigenvalues --    0.04085   0.05971   0.10530   0.12382   0.15642
 Alpha virt. eigenvalues --    0.17538   0.20720   0.22492   0.26651   0.27564
 Alpha virt. eigenvalues --    0.28492   0.29117   0.30438   0.31704   0.32235

 Mulliken charges:
               1
     1  C   -0.169834
     2  C   -0.218514
     3  C   -0.172804
     4  C    0.156666
     5  C   -0.170577
     6  C   -0.218468
     7  H    0.228417
     8  H    0.225689
     9  H    0.275816
    10  H    0.276783
    11  H    0.226075
    12  N    0.487121
    13  O   -0.458976
    14  O   -0.464415
    15  C   -0.166042
    16  C   -0.209681
    17  C   -0.174356
    18  C    0.157895
    19  C   -0.173475
    20  C   -0.220662
    21  H    0.221515
    22  H    0.237681
    23  H    0.274302
    24  H    0.271065
    25  H    0.216530
    26  N    0.488154
    27  O   -0.464267
    28  O   -0.461639
 Sum of Mulliken charges =  -0.00000

 Dipole moment (field-independent basis, Debye):
    X=             -9.5210    Y=              3.7117    Z=              1.9936  Tot=             10.4116
 Quadrupole moment (field-independent basis, Debye-Ang):
   XX=           -112.4090   YY=            -99.5459   ZZ=           -105.1159
   XY=             -4.8056   XZ=              7.2046   YZ=             -1.7771

 Normal termination of Gaussian 16 at Thu May  6 03:26:42 2021.
