 Gaussian 16, Revision A.03,
 Gaussian 16:  EM64L-G16RevA.03 25-Dec-2016

 -------------
 #p 6-31g* mp2
 -------------

 ------------------------------------------------------
 Input file generated by CHIRIPA (05-May-2021 14:53:16)
 ------------------------------------------------------
 Symbolic Z-matrix:
 Charge =  0 Multiplicity = 1

                         Standard orientation:
 ---------------------------------------------------------------------
 Center     Atomic      Atomic             Coordinates (Angstroms)
 Number     Number       Type             X           Y           Z
 ---------------------------------------------------------------------
      1          6           0       -4.512441   -0.525190    0.350500
      2          6           0       -5.745095   -1.275656   -0.154821
      3          6           0       -5.985943   -2.587673    0.592440
      4          1           0       -3.630503   -1.172680    0.251067
      5          1           0       -4.630660   -0.320669    1.423622
      6          1           0       -5.625203   -1.477483   -1.226972
      7          1           0       -6.624171   -0.626234   -0.054351
      8          1           0       -6.131411   -2.401096    1.661379
      9          1           0       -5.126767   -3.257181    0.482095
     10          1           0       -6.871969   -3.107754    0.215171
     11          6           0       -4.258490    0.788453   -0.386778
     12          6           0       -3.025835    1.538919    0.118542
     13          6           0       -2.784988    2.850935   -0.628718
     14          1           0       -4.140271    0.583932   -1.459900
     15          1           0       -5.140428    1.435943   -0.287345
     16          1           0       -2.146760    0.889497    0.018073
     17          1           0       -3.145728    1.740745    1.190693
     18          1           0       -3.644164    3.520444   -0.518373
     19          1           0       -2.639520    2.664359   -1.697657
     20          1           0       -1.898961    3.371017   -0.251449
     21          6           0        1.156198    0.994790    0.106274
     22          6           0        2.257039    1.611683    0.709692
     23          6           0        3.519450    1.012635    0.664891
     24          6           0        3.645595   -0.208951    0.005266
     25          6           0        2.567975   -0.848461   -0.605515
     26          6           0        1.314901   -0.231153   -0.548249
     27          1           0        0.179153    1.467238    0.145918
     28          1           0        2.136747    2.563780    1.218697
     29          1           0        4.388606    1.468257    1.123582
     30          1           0        2.719051   -1.797413   -1.105601
     31          1           0        0.461746   -0.712541   -1.017757
     32          7           0        4.977112   -0.852803   -0.048759
     33          8           0        5.061936   -1.929145   -0.636065
     34          8           0        5.910717   -0.268919    0.497224
 ---------------------------------------------------------------------

 SCF Done:  E(RHF) =  -669.535393941     A.U. after   15 cycles
 E2 =    -0.2091324388D+01 EUMP2 =    -0.67162671832936D+03

 The electronic state is 1-A.
 Alpha  occ. eigenvalues --  -20.60726 -20.60721 -15.85780 -11.31135 -11.27714
 Alpha  occ. eigenvalues --  -11.27707 -11.27399 -11.26720 -11.26704 -11.22886
 Alpha  occ. eigenvalues --  -11.22357 -11.22295 -11.22257 -11.22176 -11.21604
 Alpha  occ. eigenvalues --   -1.59802  -1.39356  -1.19308  -1.09362  -1.08699
 Alpha  occ. eigenvalues --   -1.04714  -1.04460  -0.96882  -0.95537  -0.87892
 Alpha  occ. eigenvalues --   -0.86111  -0.82377  -0.80552  -0.79132  -0.77425
 Alpha  occ. eigenvalues --   -0.71998  -0.71125  -0.70437  -0.65997  -0.64959
 Alpha  occ. eigenvalues --   -0.64723  -0.62071  -0.61847  -0.60309  -0.58509
 Alpha  occ. eigenvalues --   -0.56166  -0.55148  -0.53586  -0.53296  -0.53039
 Alpha  occ. eigenvalues --   -0.52807  -0.50812  -0.48849  -0.48755  -0.48752
 Alpha  occ. eigenvalues --   -0.47583  -0.46672  -0.46569  -0.44764  -0.44698
 Alpha  occ. eigenvalues --   -0.37277  -0.36323
 Alpha virt. eigenvalues --    0.05113   0.11325   0.16597   0.19095   0.22407
 Alpha virt. eigenvalues --    0.23663   0.24978   0.25877   0.26295   0.27890
 Alpha virt. eigenvalues --    0.29188   0.29993   0.30816   0.31050   0.32006

 Mulliken charges:
               1
     1  C   -0.298519
     2  C   -0.300414
     3  C   -0.476164
     4  H    0.147438
     5  H    0.151538
     6  H    0.152545
     7  H    0.153567
     8  H    0.156325
     9  H    0.155482
    10  H    0.162485
    11  C   -0.298437
    12  C   -0.304437
    13  C   -0.478417
    14  H    0.150677
    15  H    0.153631
    16  H    0.141819
    17  H    0.156285
    18  H    0.162260
    19  H    0.158474
    20  H    0.154918
    21  C   -0.177809
    22  C   -0.220194
    23  C   -0.170540
    24  C    0.158032
    25  C   -0.170651
    26  C   -0.221519
    27  H    0.238288
    28  H    0.223433
    29  H    0.275377
    30  H    0.275309
    31  H    0.222377
    32  N    0.488057
    33  O   -0.460661
    34  O   -0.460555
 Sum of Mulliken charges =  -0.00000

 Dipole moment (field-independent basis, Debye):
    X=             -4.9854    Y=              2.2913    Z=              0.1944  Tot=              5.4902
 Quadrupole moment (field-independent basis, Debye-Ang):
   XX=           -127.3511   YY=            -93.5922   ZZ=            -93.7515
   XY=             10.3015   XZ=              1.5922   YZ=              3.0364

 Normal termination of Gaussian 16 at Thu May  6 02:44:05 2021.
