 Gaussian 16, Revision A.03,
 Gaussian 16:  EM64L-G16RevA.03 25-Dec-2016

 -------------
 #p 6-31g* mp2
 -------------

 ------------------------------------------------------
 Input file generated by CHIRIPA (05-May-2021 14:55:20)
 ------------------------------------------------------
 Symbolic Z-matrix:
 Charge =  0 Multiplicity = 1

                         Standard orientation:
 ---------------------------------------------------------------------
 Center     Atomic      Atomic             Coordinates (Angstroms)
 Number     Number       Type             X           Y           Z
 ---------------------------------------------------------------------
      1          6           0        4.146905    2.104047    0.361198
      2          6           0        4.641459    1.119501   -0.500549
      3          6           0        3.938901   -0.073804   -0.692857
      4          6           0        2.739682   -0.250182   -0.004340
      5          6           0        2.220935    0.711842    0.860934
      6          6           0        2.940349    1.897439    1.037996
      7          1           0        4.699216    3.028041    0.504665
      8          1           0        5.578218    1.277230   -1.027474
      9          1           0        4.298816   -0.852686   -1.354085
     10          1           0        1.284298    0.525890    1.372354
     11          1           0        2.553867    2.660302    1.707859
     12          7           0        1.986993   -1.509401   -0.199857
     13          8           0        0.932869   -1.640542    0.418415
     14          8           0        2.465413   -2.341393   -0.967674
     15          6           0       -3.858738   -0.655197    0.170041
     16          6           0       -2.693699   -1.643399    0.105799
     17          6           0       -3.095833   -3.059129    0.520272
     18          1           0       -4.261648   -0.639103    1.191975
     19          1           0       -4.669519   -1.012206   -0.480016
     20          1           0       -1.884812   -1.283917    0.754713
     21          1           0       -2.293395   -1.656999   -0.916056
     22          1           0       -3.886458   -3.441912   -0.133173
     23          1           0       -3.475554   -3.066710    1.547090
     24          1           0       -2.247951   -3.749142    0.467004
     25          6           0       -3.472422    0.764375   -0.241422
     26          6           0       -4.637461    1.752576   -0.177181
     27          6           0       -4.235328    3.168308   -0.591653
     28          1           0       -2.661642    1.121384    0.408635
     29          1           0       -3.069514    0.748281   -1.263357
     30          1           0       -5.037767    1.766177    0.844674
     31          1           0       -5.446349    1.393094   -0.826094
     32          1           0       -3.855606    3.175888   -1.618472
     33          1           0       -3.444703    3.551091    0.061790
     34          1           0       -5.083210    3.858321   -0.538386
 ---------------------------------------------------------------------

 SCF Done:  E(RHF) =  -669.535840674     A.U. after   15 cycles
 E2 =    -0.2091130965D+01 EUMP2 =    -0.67162697163890D+03

 The electronic state is 1-A.
 Alpha  occ. eigenvalues --  -20.60893 -20.60878 -15.85926 -11.31265 -11.27834
 Alpha  occ. eigenvalues --  -11.27827 -11.27570 -11.26843 -11.26833 -11.21277
 Alpha  occ. eigenvalues --  -11.20909 -11.20903 -11.20593 -11.20303 -11.19880
 Alpha  occ. eigenvalues --   -1.59952  -1.39508  -1.19435  -1.08836  -1.07765
 Alpha  occ. eigenvalues --   -1.04835  -1.02785  -0.95677  -0.95288  -0.86317
 Alpha  occ. eigenvalues --   -0.86234  -0.82514  -0.78907  -0.77620  -0.77422
 Alpha  occ. eigenvalues --   -0.72150  -0.71266  -0.70545  -0.65093  -0.64839
 Alpha  occ. eigenvalues --   -0.64411  -0.62184  -0.60192  -0.58694  -0.56832
 Alpha  occ. eigenvalues --   -0.55338  -0.54614  -0.53164  -0.52928  -0.51966
 Alpha  occ. eigenvalues --   -0.51708  -0.49283  -0.48909  -0.48906  -0.47202
 Alpha  occ. eigenvalues --   -0.45969  -0.45184  -0.44947  -0.44711  -0.43054
 Alpha  occ. eigenvalues --   -0.37414  -0.36437
 Alpha virt. eigenvalues --    0.04964   0.11217   0.16451   0.21182   0.23340
 Alpha virt. eigenvalues --    0.24985   0.26355   0.27457   0.27721   0.28608
 Alpha virt. eigenvalues --    0.28917   0.30860   0.31838   0.32184   0.32915

 Mulliken charges:
               1
     1  C   -0.170653
     2  C   -0.218534
     3  C   -0.170870
     4  C    0.158020
     5  C   -0.170243
     6  C   -0.218458
     7  H    0.225919
     8  H    0.223717
     9  H    0.275771
    10  H    0.275046
    11  H    0.223709
    12  N    0.492724
    13  O   -0.463823
    14  O   -0.459812
    15  C   -0.298902
    16  C   -0.298864
    17  C   -0.477254
    18  H    0.145948
    19  H    0.146781
    20  H    0.165139
    21  H    0.153099
    22  H    0.149200
    23  H    0.149263
    24  H    0.170720
    25  C   -0.295630
    26  C   -0.298930
    27  C   -0.474795
    28  H    0.143862
    29  H    0.149557
    30  H    0.150755
    31  H    0.152186
    32  H    0.154815
    33  H    0.151466
    34  H    0.159070
 Sum of Mulliken charges =  -0.00000

 Dipole moment (field-independent basis, Debye):
    X=              2.9066    Y=              4.3284    Z=              0.6738  Tot=              5.2572
 Quadrupole moment (field-independent basis, Debye-Ang):
   XX=            -79.0292   YY=            -98.2960   ZZ=            -92.4607
   XY=             10.4522   XZ=             -0.3834   YZ=              1.5929

 Normal termination of Gaussian 16 at Thu May  6 20:39:15 2021.
