 Gaussian 16, Revision A.03,
 Gaussian 16:  EM64L-G16RevA.03 25-Dec-2016

 -------------
 #p 6-31g* mp2
 -------------

 ------------------------------------------------------
 Input file generated by CHIRIPA (05-May-2021 14:57:25)
 ------------------------------------------------------
 Symbolic Z-matrix:
 Charge =  0 Multiplicity = 1

                         Standard orientation:
 ---------------------------------------------------------------------
 Center     Atomic      Atomic             Coordinates (Angstroms)
 Number     Number       Type             X           Y           Z
 ---------------------------------------------------------------------
      1          6           0       -2.835963    2.265307    0.210824
      2          6           0       -4.181467    2.267328   -0.171453
      3          6           0       -4.890899    1.067434   -0.278738
      4          6           0       -4.220592   -0.121471    0.004956
      5          6           0       -2.880738   -0.156235    0.388198
      6          6           0       -2.191030    1.055665    0.488939
      7          1           0       -2.292520    3.202077    0.291624
      8          1           0       -4.684897    3.205245   -0.388052
      9          1           0       -5.933166    1.040100   -0.572593
     10          1           0       -2.405934   -1.107074    0.597682
     11          1           0       -1.146159    1.051067    0.786040
     12          7           0       -4.961195   -1.398100   -0.105158
     13          8           0       -4.347825   -2.432123    0.150207
     14          8           0       -6.141027   -1.340526   -0.444746
     15          6           0        6.605192   -0.339658   -0.163491
     16          6           0        5.794033   -1.472777   -0.042733
     17          6           0        4.403982   -1.345771    0.035864
     18          6           0        3.856197   -0.064693   -0.009532
     19          6           0        4.637705    1.083423   -0.129374
     20          6           0        6.025462    0.932583   -0.206351
     21          1           0        7.684126   -0.447577   -0.223918
     22          1           0        6.241502   -2.462065   -0.009199
     23          1           0        3.752476   -2.206085    0.129764
     24          1           0        4.162590    2.056426   -0.160179
     25          1           0        6.652953    1.814350   -0.300088
     26          7           0        2.385826    0.082378    0.072818
     27          8           0        1.927757    1.222127    0.030609
     28          8           0        1.719260   -0.944881    0.178012
 ---------------------------------------------------------------------

 SCF Done:  E(RHF) =  -868.341198905     A.U. after   16 cycles
 E2 =    -0.2598460917D+01 EUMP2 =    -0.87093965982203D+03

 The electronic state is 1-A.
 Alpha  occ. eigenvalues --  -20.61817 -20.61808 -20.59787 -20.59773 -15.86798
 Alpha  occ. eigenvalues --  -15.84822 -11.31844 -11.29962 -11.28384 -11.28350
 Alpha  occ. eigenvalues --  -11.28052 -11.27318 -11.27292 -11.26558 -11.26348
 Alpha  occ. eigenvalues --  -11.26155 -11.25572 -11.25179  -1.60856  -1.58863
 Alpha  occ. eigenvalues --   -1.40415  -1.38421  -1.19983  -1.18090  -1.09441
 Alpha  occ. eigenvalues --   -1.07531  -1.05334  -1.03424  -0.96330  -0.94410
 Alpha  occ. eigenvalues --   -0.86748  -0.84835  -0.83173  -0.81226  -0.78255
 Alpha  occ. eigenvalues --   -0.76300  -0.73032  -0.72137  -0.71086  -0.71049
 Alpha  occ. eigenvalues --   -0.70182  -0.69206  -0.65638  -0.65335  -0.63725
 Alpha  occ. eigenvalues --   -0.63379  -0.62683  -0.60748  -0.55850  -0.53957
 Alpha  occ. eigenvalues --   -0.53681  -0.53421  -0.51815  -0.51495  -0.49797
 Alpha  occ. eigenvalues --   -0.49757  -0.47815  -0.47779  -0.45885  -0.43877
 Alpha  occ. eigenvalues --   -0.37943  -0.36921  -0.36086  -0.35024
 Alpha virt. eigenvalues --    0.04258   0.06171   0.10739   0.12618   0.15821
 Alpha virt. eigenvalues --    0.17733   0.20909   0.22862   0.26847   0.27767
 Alpha virt. eigenvalues --    0.28947   0.29570   0.30513   0.31981   0.32462

 Mulliken charges:
               1
     1  C   -0.173187
     2  C   -0.219027
     3  C   -0.173973
     4  C    0.157680
     5  C   -0.173607
     6  C   -0.224376
     7  H    0.224133
     8  H    0.218101
     9  H    0.270899
    10  H    0.279158
    11  H    0.247507
    12  N    0.488056
    13  O   -0.461472
    14  O   -0.464876
    15  C   -0.169556
    16  C   -0.218601
    17  C   -0.170071
    18  C    0.157971
    19  C   -0.170384
    20  C   -0.218572
    21  H    0.228010
    22  H    0.226182
    23  H    0.277585
    24  H    0.274732
    25  H    0.225057
    26  N    0.489827
    27  O   -0.467308
    28  O   -0.459891
 Sum of Mulliken charges =  -0.00000

 Dipole moment (field-independent basis, Debye):
    X=              8.5140    Y=              3.8812    Z=              0.1368  Tot=              9.3580
 Quadrupole moment (field-independent basis, Debye-Ang):
   XX=            -84.9087   YY=           -100.3086   ZZ=           -106.1594
   XY=            -23.6259   XZ=             -1.7809   YZ=             -1.1587

 Normal termination of Gaussian 16 at Thu May  6 14:44:40 2021.
