 Gaussian 16, Revision A.03,
 Gaussian 16:  EM64L-G16RevA.03 25-Dec-2016

 -------------
 #p 6-31g* mp2
 -------------

 ------------------------------------------------------
 Input file generated by CHIRIPA (05-May-2021 14:57:26)
 ------------------------------------------------------
 Symbolic Z-matrix:
 Charge =  0 Multiplicity = 1

                         Standard orientation:
 ---------------------------------------------------------------------
 Center     Atomic      Atomic             Coordinates (Angstroms)
 Number     Number       Type             X           Y           Z
 ---------------------------------------------------------------------
      1          6           0        3.016977   -2.434224   -0.176360
      2          6           0        2.204228   -1.681462    0.677636
      3          6           0        2.315575   -0.288455    0.718651
      4          6           0        3.254480    0.321804   -0.111609
      5          6           0        4.078539   -0.400632   -0.973179
      6          6           0        3.949894   -1.792538   -0.997594
      7          1           0        2.923761   -3.515917   -0.201773
      8          1           0        1.478842   -2.177115    1.316531
      9          1           0        1.698987    0.318626    1.370333
     10          1           0        4.792463    0.121790   -1.598324
     11          1           0        4.582408   -2.374594   -1.661809
     12          7           0        3.381515    1.795935   -0.076975
     13          8           0        4.216439    2.309656   -0.818344
     14          8           0        2.643754    2.409725    0.690885
     15          6           0       -1.694651   -0.636519    2.037405
     16          6           0       -2.538027    0.476556    2.116796
     17          6           0       -3.394830    0.795049    1.058969
     18          6           0       -3.382317   -0.024936   -0.068310
     19          6           0       -2.553723   -1.140656   -0.177358
     20          6           0       -1.705173   -1.440155    0.892600
     21          1           0       -1.032271   -0.876555    2.863862
     22          1           0       -2.531982    1.102456    3.004635
     23          1           0       -4.058051    1.650811    1.094006
     24          1           0       -2.582160   -1.745772   -1.075380
     25          1           0       -1.051277   -2.305207    0.828174
     26          7           0       -4.285009    0.302185   -1.194605
     27          8           0       -4.255065   -0.436104   -2.176782
     28          8           0       -5.005390    1.290677   -1.073893
 ---------------------------------------------------------------------

 SCF Done:  E(RHF) =  -868.336484898     A.U. after   16 cycles
 E2 =    -0.2600718866D+01 EUMP2 =    -0.87093720376453D+03

 The electronic state is 1-A.
 Alpha  occ. eigenvalues --  -20.61182 -20.61170 -20.60995 -20.60983 -15.86240
 Alpha  occ. eigenvalues --  -15.86049 -11.31715 -11.31554 -11.28372 -11.28283
 Alpha  occ. eigenvalues --  -11.28162 -11.28118 -11.28080 -11.28001 -11.27479
 Alpha  occ. eigenvalues --  -11.27316 -11.27301 -11.27158  -1.60250  -1.60062
 Alpha  occ. eigenvalues --   -1.39802  -1.39612  -1.19922  -1.19747  -1.09300
 Alpha  occ. eigenvalues --   -1.09146  -1.05365  -1.05161  -0.96107  -0.95949
 Alpha  occ. eigenvalues --   -0.86780  -0.86565  -0.82951  -0.82771  -0.77995
 Alpha  occ. eigenvalues --   -0.77761  -0.72458  -0.72269  -0.71573  -0.71382
 Alpha  occ. eigenvalues --   -0.71049  -0.70893  -0.65605  -0.65574  -0.65403
 Alpha  occ. eigenvalues --   -0.65063  -0.62776  -0.62430  -0.55860  -0.55746
 Alpha  occ. eigenvalues --   -0.53717  -0.53555  -0.53437  -0.53174  -0.49226
 Alpha  occ. eigenvalues --   -0.49202  -0.49038  -0.49012  -0.45182  -0.44986
 Alpha  occ. eigenvalues --   -0.37919  -0.37811  -0.37031  -0.36607
 Alpha virt. eigenvalues --    0.04583   0.04734   0.10558   0.10912   0.15975
 Alpha virt. eigenvalues --    0.16159   0.18488   0.22132   0.25129   0.26467
 Alpha virt. eigenvalues --    0.28003   0.29105   0.30076   0.31005   0.31921

 Mulliken charges:
               1
     1  C   -0.171035
     2  C   -0.219313
     3  C   -0.167547
     4  C    0.158748
     5  C   -0.169100
     6  C   -0.218273
     7  H    0.225697
     8  H    0.212315
     9  H    0.273647
    10  H    0.278060
    11  H    0.225880
    12  N    0.488344
    13  O   -0.458029
    14  O   -0.460532
    15  C   -0.176433
    16  C   -0.215819
    17  C   -0.168930
    18  C    0.159984
    19  C   -0.169812
    20  C   -0.216748
    21  H    0.220861
    22  H    0.227262
    23  H    0.278652
    24  H    0.276228
    25  H    0.215612
    26  N    0.488066
    27  O   -0.459975
    28  O   -0.457812
 Sum of Mulliken charges =  -0.00000

 Dipole moment (field-independent basis, Debye):
    X=              2.6896    Y=             -6.1297    Z=              3.6893  Tot=              7.6432
 Quadrupole moment (field-independent basis, Debye-Ang):
   XX=           -125.7850   YY=           -106.0215   ZZ=           -102.6244
   XY=            -15.3602   XZ=            -18.3176   YZ=              3.3920

 Normal termination of Gaussian 16 at Fri May  7 11:12:53 2021.
