 Gaussian 16, Revision A.03,
 Gaussian 16:  EM64L-G16RevA.03 25-Dec-2016

 -------------
 #p 6-31g* mp2
 -------------

 ------------------------------------------------------
 Input file generated by CHIRIPA (05-May-2021 14:57:23)
 ------------------------------------------------------
 Symbolic Z-matrix:
 Charge =  0 Multiplicity = 1

                         Standard orientation:
 ---------------------------------------------------------------------
 Center     Atomic      Atomic             Coordinates (Angstroms)
 Number     Number       Type             X           Y           Z
 ---------------------------------------------------------------------
      1          6           0       -2.603526    2.135028   -1.017424
      2          6           0       -1.680406    1.143806   -0.668354
      3          6           0       -2.114664   -0.080870   -0.152471
      4          6           0       -3.485516   -0.281470    0.001852
      5          6           0       -4.429876    0.686443   -0.336702
      6          6           0       -3.972901    1.903591   -0.850777
      7          1           0       -2.257361    3.083462   -1.417472
      8          1           0       -0.616329    1.320770   -0.796691
      9          1           0       -1.421750   -0.865593    0.125913
     10          1           0       -5.484256    0.480812   -0.197357
     11          1           0       -4.692087    2.671567   -1.121016
     12          7           0       -3.957270   -1.573995    0.547038
     13          8           0       -5.170348   -1.726050    0.673361
     14          8           0       -3.105020   -2.410546    0.837708
     15          6           0        2.522593    1.798210    1.697446
     16          6           0        2.145893    1.837254    0.350934
     17          6           0        2.630187    0.883960   -0.549753
     18          6           0        3.493340   -0.098781   -0.067595
     19          6           0        3.887082   -0.164221    1.268062
     20          6           0        3.390455    0.799358    2.150912
     21          1           0        2.141592    2.542745    2.390193
     22          1           0        1.472040    2.611824   -0.004042
     23          1           0        2.354818    0.890769   -1.597390
     24          1           0        4.560293   -0.948474    1.592332
     25          1           0        3.684710    0.766581    3.196084
     26          7           0        4.012569   -1.113435   -1.011670
     27          8           0        4.771757   -1.968996   -0.561908
     28          8           0        3.650520   -1.033946   -2.183523
 ---------------------------------------------------------------------

 SCF Done:  E(RHF) =  -868.336709241     A.U. after   16 cycles
 E2 =    -0.2600476005D+01 EUMP2 =    -0.87093718524608D+03

 The electronic state is 1-A.
 Alpha  occ. eigenvalues --  -20.61274 -20.61261 -20.60953 -20.60946 -15.86333
 Alpha  occ. eigenvalues --  -15.86009 -11.31878 -11.31468 -11.28563 -11.28422
 Alpha  occ. eigenvalues --  -11.28229 -11.28052 -11.28048 -11.27875 -11.27629
 Alpha  occ. eigenvalues --  -11.27434 -11.27125 -11.27092  -1.60343  -1.60026
 Alpha  occ. eigenvalues --   -1.39891  -1.39576  -1.20081  -1.19664  -1.09425
 Alpha  occ. eigenvalues --   -1.09056  -1.05535  -1.05076  -0.96229  -0.95867
 Alpha  occ. eigenvalues --   -0.86904  -0.86487  -0.83085  -0.82687  -0.78114
 Alpha  occ. eigenvalues --   -0.77702  -0.72544  -0.72226  -0.71671  -0.71351
 Alpha  occ. eigenvalues --   -0.71152  -0.70795  -0.65742  -0.65603  -0.65321
 Alpha  occ. eigenvalues --   -0.65064  -0.62917  -0.62360  -0.55972  -0.55623
 Alpha  occ. eigenvalues --   -0.53869  -0.53642  -0.53402  -0.53096  -0.49319
 Alpha  occ. eigenvalues --   -0.49290  -0.48994  -0.48973  -0.45258  -0.44960
 Alpha  occ. eigenvalues --   -0.38041  -0.37675  -0.37140  -0.36664
 Alpha virt. eigenvalues --    0.04419   0.04823   0.10429   0.11015   0.15674
 Alpha virt. eigenvalues --    0.16285   0.19317   0.21882   0.25214   0.27325
 Alpha virt. eigenvalues --    0.27976   0.28572   0.30296   0.31139   0.31978

 Mulliken charges:
               1
     1  C   -0.172486
     2  C   -0.221587
     3  C   -0.171535
     4  C    0.158843
     5  C   -0.170551
     6  C   -0.218242
     7  H    0.222727
     8  H    0.219707
     9  H    0.278728
    10  H    0.276704
    11  H    0.224085
    12  N    0.487955
    13  O   -0.459904
    14  O   -0.458603
    15  C   -0.170135
    16  C   -0.221848
    17  C   -0.175171
    18  C    0.159222
    19  C   -0.168608
    20  C   -0.217984
    21  H    0.228484
    22  H    0.217231
    23  H    0.274584
    24  H    0.279348
    25  H    0.227522
    26  N    0.488190
    27  O   -0.456768
    28  O   -0.459906
 Sum of Mulliken charges =  -0.00000

 Dipole moment (field-independent basis, Debye):
    X=              0.0069    Y=              7.9551    Z=              1.5823  Tot=              8.1109
 Quadrupole moment (field-independent basis, Debye-Ang):
   XX=           -122.6992   YY=           -107.9862   ZZ=           -103.3044
   XY=             -6.8030   XZ=             21.6254   YZ=             -1.8112

 Normal termination of Gaussian 16 at Thu May  6 22:44:45 2021.
