 Gaussian 16, Revision A.03,
 Gaussian 16:  EM64L-G16RevA.03 25-Dec-2016

 -------------
 #p 6-31g* mp2
 -------------

 ------------------------------------------------------
 Input file generated by CHIRIPA (05-May-2021 14:53:12)
 ------------------------------------------------------
 Symbolic Z-matrix:
 Charge =  0 Multiplicity = 1

                         Standard orientation:
 ---------------------------------------------------------------------
 Center     Atomic      Atomic             Coordinates (Angstroms)
 Number     Number       Type             X           Y           Z
 ---------------------------------------------------------------------
      1          6           0        3.573756   -0.383797    0.308663
      2          6           0        3.188525   -1.590225   -0.548140
      3          6           0        3.882281   -2.877709   -0.102179
      4          1           0        4.663169   -0.247369    0.269791
      5          1           0        3.322124   -0.592559    1.357708
      6          1           0        3.439537   -1.378703   -1.595454
      7          1           0        2.099882   -1.723681   -0.507377
      8          1           0        3.622881   -3.115918    0.934436
      9          1           0        4.970149   -2.768979   -0.159824
     10          1           0        3.592610   -3.727421   -0.728230
     11          6           0        2.888286    0.910779   -0.124847
     12          6           0        3.273517    2.117208    0.731957
     13          6           0        2.579760    3.404692    0.285995
     14          1           0        3.139917    1.119541   -1.173892
     15          1           0        1.798872    0.774351   -0.085974
     16          1           0        4.362160    2.250664    0.691193
     17          1           0        3.022504    1.905685    1.779271
     18          1           0        1.491893    3.295962    0.343640
     19          1           0        2.839160    3.642901   -0.750619
     20          1           0        2.869432    4.254403    0.912046
     21          6           0       -1.992747   -2.651797    0.245683
     22          6           0       -1.117827   -1.833309   -0.476198
     23          6           0       -1.402186   -0.476662   -0.658393
     24          6           0       -2.575617    0.030612   -0.102496
     25          6           0       -3.467198   -0.759209    0.621764
     26          6           0       -3.162578   -2.113085    0.791398
     27          1           0       -1.763981   -3.704597    0.382338
     28          1           0       -0.208590   -2.248956   -0.901135
     29          1           0       -0.742390    0.179624   -1.212809
     30          1           0       -4.365872   -0.316163    1.033485
     31          1           0       -3.843892   -2.746360    1.352486
     32          7           0       -2.887380    1.465367   -0.288730
     33          8           0       -3.927675    1.888038    0.211043
     34          8           0       -2.085542    2.140089   -0.930945
 ---------------------------------------------------------------------

 SCF Done:  E(RHF) =  -669.535638411     A.U. after   15 cycles
 E2 =    -0.2092093403D+01 EUMP2 =    -0.67162773181380D+03

 The electronic state is 1-A.
 Alpha  occ. eigenvalues --  -20.60804 -20.60799 -15.85855 -11.31221 -11.27796
 Alpha  occ. eigenvalues --  -11.27780 -11.27529 -11.26809 -11.26778 -11.22321
 Alpha  occ. eigenvalues --  -11.21797 -11.21720 -11.21648 -11.21578 -11.20761
 Alpha  occ. eigenvalues --   -1.59878  -1.39431  -1.19396  -1.08794  -1.08767
 Alpha  occ. eigenvalues --   -1.04798  -1.03810  -0.96225  -0.95623  -0.87243
 Alpha  occ. eigenvalues --   -0.86194  -0.82458  -0.79929  -0.78560  -0.77493
 Alpha  occ. eigenvalues --   -0.72072  -0.71201  -0.70499  -0.65439  -0.65042
 Alpha  occ. eigenvalues --   -0.64802  -0.62155  -0.61188  -0.59656  -0.57835
 Alpha  occ. eigenvalues --   -0.55495  -0.55297  -0.53129  -0.52970  -0.52898
 Alpha  occ. eigenvalues --   -0.52602  -0.50157  -0.48837  -0.48827  -0.48198
 Alpha  occ. eigenvalues --   -0.46959  -0.46082  -0.45978  -0.44833  -0.44067
 Alpha  occ. eigenvalues --   -0.37374  -0.36386
 Alpha virt. eigenvalues --    0.04990   0.11176   0.16387   0.19906   0.22953
 Alpha virt. eigenvalues --    0.23703   0.24896   0.26723   0.27213   0.28147
 Alpha virt. eigenvalues --    0.29300   0.30410   0.31344   0.31557   0.32109

 Mulliken charges:
               1
     1  C   -0.297479
     2  C   -0.304719
     3  C   -0.475808
     4  H    0.152246
     5  H    0.150828
     6  H    0.154063
     7  H    0.143236
     8  H    0.155838
     9  H    0.159324
    10  H    0.157680
    11  C   -0.301254
    12  C   -0.300011
    13  C   -0.478312
    14  H    0.150418
    15  H    0.148024
    16  H    0.151405
    17  H    0.152037
    18  H    0.165273
    19  H    0.155341
    20  H    0.160513
    21  C   -0.171496
    22  C   -0.222846
    23  C   -0.174751
    24  C    0.158383
    25  C   -0.170756
    26  C   -0.218429
    27  H    0.226112
    28  H    0.230113
    29  H    0.278393
    30  H    0.275733
    31  H    0.223601
    32  N    0.488044
    33  O   -0.460164
    34  O   -0.460576
 Sum of Mulliken charges =  -0.00000

 Dipole moment (field-independent basis, Debye):
    X=              1.1397    Y=             -4.9572    Z=              0.6954  Tot=              5.1339
 Quadrupole moment (field-independent basis, Debye-Ang):
   XX=            -96.2495   YY=            -96.3664   ZZ=            -93.8251
   XY=             14.4399   XZ=             -4.9420   YZ=              0.1880

 Normal termination of Gaussian 16 at Thu May  6 00:57:51 2021.
