 Gaussian 16, Revision A.03,
 Gaussian 16:  EM64L-G16RevA.03 25-Dec-2016

 -------------
 #p 6-31g* mp2
 -------------

 ------------------------------------------------------
 Input file generated by CHIRIPA (05-May-2021 14:53:12)
 ------------------------------------------------------
 Symbolic Z-matrix:
 Charge =  0 Multiplicity = 1

                         Standard orientation:
 ---------------------------------------------------------------------
 Center     Atomic      Atomic             Coordinates (Angstroms)
 Number     Number       Type             X           Y           Z
 ---------------------------------------------------------------------
      1          6           0        2.851845   -0.247447   -0.467940
      2          6           0        2.646639   -1.495639   -1.326946
      3          6           0        1.176415   -1.746388   -1.663635
      4          1           0        2.273891   -0.350114    0.460701
      5          1           0        2.441914    0.624341   -0.996464
      6          1           0        3.058077   -2.364599   -0.797566
      7          1           0        3.225301   -1.390072   -2.253565
      8          1           0        0.756972   -0.897706   -2.213551
      9          1           0        0.588798   -1.877770   -0.749280
     10          1           0        1.052660   -2.643469   -2.278281
     11          6           0        4.316457    0.016533   -0.123040
     12          6           0        4.521663    1.264725    0.735966
     13          6           0        5.991887    1.515474    1.072655
     14          1           0        4.726389   -0.855255    0.405483
     15          1           0        4.894411    0.119200   -1.051681
     16          1           0        3.943001    1.159158    1.662585
     17          1           0        4.110225    2.133685    0.206585
     18          1           0        6.579504    1.646856    0.158299
     19          1           0        6.411330    0.666792    1.622571
     20          1           0        6.115642    2.412555    1.687301
     21          6           0       -3.506027    1.845772   -1.438155
     22          6           0       -2.809658    0.711307   -1.867784
     23          6           0       -2.413565   -0.267844   -0.951857
     24          6           0       -2.731874   -0.079521    0.392205
     25          6           0       -3.424529    1.039789    0.851186
     26          6           0       -3.810702    2.006110   -0.082432
     27          1           0       -3.809869    2.601417   -2.156540
     28          1           0       -2.571679    0.584144   -2.920039
     29          1           0       -1.873441   -1.155802   -1.257169
     30          1           0       -3.647381    1.138704    1.906634
     31          1           0       -4.351404    2.886134    0.254084
     32          7           0       -2.317798   -1.109314    1.371219
     33          8           0       -2.610366   -0.919890    2.549846
     34          8           0       -1.708517   -2.086388    0.941407
 ---------------------------------------------------------------------

 SCF Done:  E(RHF) =  -669.536079222     A.U. after   15 cycles
 E2 =    -0.2091860198D+01 EUMP2 =    -0.67162793942069D+03

 The electronic state is 1-A.
 Alpha  occ. eigenvalues --  -20.60896 -20.60882 -15.85917 -11.31183 -11.27771
 Alpha  occ. eigenvalues --  -11.27707 -11.27506 -11.26765 -11.26744 -11.21430
 Alpha  occ. eigenvalues --  -11.21385 -11.21196 -11.21130 -11.20922 -11.20828
 Alpha  occ. eigenvalues --   -1.59951  -1.39509  -1.19362  -1.08780  -1.08224
 Alpha  occ. eigenvalues --   -1.04752  -1.03337  -0.95813  -0.95613  -0.86835
 Alpha  occ. eigenvalues --   -0.86150  -0.82462  -0.79427  -0.78050  -0.77500
 Alpha  occ. eigenvalues --   -0.72144  -0.71261  -0.70477  -0.65027  -0.64844
 Alpha  occ. eigenvalues --   -0.64759  -0.62111  -0.60721  -0.59162  -0.57407
 Alpha  occ. eigenvalues --   -0.55272  -0.55072  -0.53097  -0.52907  -0.52488
 Alpha  occ. eigenvalues --   -0.52162  -0.49763  -0.48893  -0.48877  -0.47716
 Alpha  occ. eigenvalues --   -0.46428  -0.45595  -0.45507  -0.44853  -0.43596
 Alpha  occ. eigenvalues --   -0.37349  -0.36341
 Alpha virt. eigenvalues --    0.04969   0.11282   0.16431   0.21188   0.23108
 Alpha virt. eigenvalues --    0.24529   0.26210   0.26841   0.27782   0.27869
 Alpha virt. eigenvalues --    0.29246   0.30192   0.31690   0.31910   0.32218

 Mulliken charges:
               1
     1  C   -0.299309
     2  C   -0.298425
     3  C   -0.492308
     4  H    0.154917
     5  H    0.145677
     6  H    0.155612
     7  H    0.149024
     8  H    0.142742
     9  H    0.179472
    10  H    0.159191
    11  C   -0.298270
    12  C   -0.299721
    13  C   -0.475617
    14  H    0.151166
    15  H    0.148073
    16  H    0.153880
    17  H    0.149915
    18  H    0.154204
    19  H    0.156045
    20  H    0.159647
    21  C   -0.170233
    22  C   -0.221237
    23  C   -0.171205
    24  C    0.156279
    25  C   -0.170518
    26  C   -0.218962
    27  H    0.225563
    28  H    0.223817
    29  H    0.284008
    30  H    0.275351
    31  H    0.223344
    32  N    0.488938
    33  O   -0.459200
    34  O   -0.461861
 Sum of Mulliken charges =  -0.00000

 Dipole moment (field-independent basis, Debye):
    X=             -1.5189    Y=              3.5632    Z=             -3.3113  Tot=              5.0959
 Quadrupole moment (field-independent basis, Debye-Ang):
   XX=            -87.7428   YY=            -94.1055   ZZ=            -94.7296
   XY=            -11.7010   XZ=              7.0226   YZ=              3.1990

 Normal termination of Gaussian 16 at Thu May  6 13:38:36 2021.
