 Gaussian 16, Revision A.03,
 Gaussian 16:  EM64L-G16RevA.03 25-Dec-2016

 -------------
 #p 6-31g* mp2
 -------------

 ------------------------------------------------------
 Input file generated by CHIRIPA (05-May-2021 14:55:25)
 ------------------------------------------------------
 Symbolic Z-matrix:
 Charge =  0 Multiplicity = 1

                         Standard orientation:
 ---------------------------------------------------------------------
 Center     Atomic      Atomic             Coordinates (Angstroms)
 Number     Number       Type             X           Y           Z
 ---------------------------------------------------------------------
      1          6           0        4.721766   -1.830147   -0.177462
      2          6           0        5.364548   -0.625256    0.125176
      3          6           0        4.639662    0.568142    0.195097
      4          6           0        3.267208    0.519923   -0.044345
      5          6           0        2.598114   -0.664687   -0.348157
      6          6           0        3.343031   -1.845989   -0.412748
      7          1           0        5.292656   -2.752509   -0.229709
      8          1           0        6.435180   -0.609953    0.308366
      9          1           0        5.111981    1.514916    0.427373
     10          1           0        1.529673   -0.648332   -0.525877
     11          1           0        2.841186   -2.780257   -0.647992
     12          7           0        2.489200    1.776917    0.026857
     13          8           0        1.281064    1.707748   -0.188224
     14          8           0        3.102266    2.807517    0.296396
     15          6           0       -4.807539    0.133168   -0.221373
     16          6           0       -6.261024   -0.006359    0.232389
     17          6           0       -7.171759    1.068118   -0.362469
     18          1           0       -4.435992    1.127898    0.060425
     19          1           0       -4.766797    0.083492   -1.318308
     20          1           0       -6.298856    0.042180    1.328212
     21          1           0       -6.629094   -1.000942   -0.050353
     22          1           0       -7.163734    1.017661   -1.456083
     23          1           0       -6.831619    2.066709   -0.069686
     24          1           0       -8.206111    0.949534   -0.024958
     25          6           0       -3.884768   -0.933821    0.364937
     26          6           0       -2.431284   -0.794294   -0.088825
     27          6           0       -1.520548   -1.868771    0.506033
     28          1           0       -3.925510   -0.884144    1.461872
     29          1           0       -4.256315   -1.928550    0.083139
     30          1           0       -2.063213    0.200290    0.193916
     31          1           0       -2.393452   -0.842832   -1.184648
     32          1           0       -1.860688   -2.867362    0.213250
     33          1           0       -1.528573   -1.818313    1.599647
     34          1           0       -0.486197   -1.750186    0.168522
 ---------------------------------------------------------------------

 SCF Done:  E(RHF) =  -669.535560380     A.U. after   15 cycles
 E2 =    -0.2091069285D+01 EUMP2 =    -0.67162662966498D+03

 The electronic state is 1-A.
 Alpha  occ. eigenvalues --  -20.60786 -20.60781 -15.85837 -11.31188 -11.27760
 Alpha  occ. eigenvalues --  -11.27744 -11.27502 -11.26776 -11.26763 -11.21357
 Alpha  occ. eigenvalues --  -11.21353 -11.21245 -11.21173 -11.21074 -11.20818
 Alpha  occ. eigenvalues --   -1.59859  -1.39412  -1.19362  -1.08760  -1.08202
 Alpha  occ. eigenvalues --   -1.04766  -1.03359  -0.95851  -0.95595  -0.86870
 Alpha  occ. eigenvalues --   -0.86162  -0.82429  -0.79403  -0.77990  -0.77479
 Alpha  occ. eigenvalues --   -0.72057  -0.71180  -0.70483  -0.65017  -0.64824
 Alpha  occ. eigenvalues --   -0.64777  -0.62159  -0.60743  -0.59220  -0.57449
 Alpha  occ. eigenvalues --   -0.55269  -0.55125  -0.53100  -0.52948  -0.52495
 Alpha  occ. eigenvalues --   -0.52240  -0.49766  -0.48813  -0.48812  -0.47728
 Alpha  occ. eigenvalues --   -0.46405  -0.45543  -0.45445  -0.44820  -0.43621
 Alpha  occ. eigenvalues --   -0.37343  -0.36363
 Alpha virt. eigenvalues --    0.05042   0.11272   0.16538   0.20232   0.23089
 Alpha virt. eigenvalues --    0.23936   0.26250   0.26920   0.27682   0.27969
 Alpha virt. eigenvalues --    0.29069   0.30872   0.31562   0.31594   0.32227

 Mulliken charges:
               1
     1  C   -0.170752
     2  C   -0.218753
     3  C   -0.170464
     4  C    0.159367
     5  C   -0.178870
     6  C   -0.220720
     7  H    0.225686
     8  H    0.223488
     9  H    0.275571
    10  H    0.285802
    11  H    0.223803
    12  N    0.487554
    13  O   -0.460912
    14  O   -0.460293
    15  C   -0.298874
    16  C   -0.299584
    17  C   -0.475737
    18  H    0.154002
    19  H    0.149370
    20  H    0.151794
    21  H    0.150438
    22  H    0.154946
    23  H    0.156654
    24  H    0.159310
    25  C   -0.298744
    26  C   -0.302344
    27  C   -0.475714
    28  H    0.149670
    29  H    0.147064
    30  H    0.167427
    31  H    0.150585
    32  H    0.153258
    33  H    0.158462
    34  H    0.147510
 Sum of Mulliken charges =  -0.00000

 Dipole moment (field-independent basis, Debye):
    X=              2.7182    Y=             -4.3214    Z=             -0.2250  Tot=              5.1102
 Quadrupole moment (field-independent basis, Debye-Ang):
   XX=            -74.0447   YY=            -98.9184   ZZ=            -94.8442
   XY=            -10.4509   XZ=             -0.0352   YZ=              1.4798

 Normal termination of Gaussian 16 at Wed May  5 17:38:22 2021.
