 Gaussian 16, Revision A.03,
 Gaussian 16:  EM64L-G16RevA.03 25-Dec-2016

 -------------
 #p 6-31g* mp2
 -------------

 ------------------------------------------------------
 Input file generated by CHIRIPA (05-May-2021 14:55:25)
 ------------------------------------------------------
 Symbolic Z-matrix:
 Charge =  0 Multiplicity = 1

                         Standard orientation:
 ---------------------------------------------------------------------
 Center     Atomic      Atomic             Coordinates (Angstroms)
 Number     Number       Type             X           Y           Z
 ---------------------------------------------------------------------
      1          6           0        1.808100    1.741585    0.963049
      2          6           0        2.994845    2.278847    0.453631
      3          6           0        3.962123    1.447671   -0.119140
      4          6           0        3.708746    0.077681   -0.166224
      5          6           0        2.536301   -0.487719    0.332760
      6          6           0        1.583012    0.362448    0.901097
      7          1           0        1.062129    2.394638    1.406269
      8          1           0        3.172344    3.349526    0.500389
      9          1           0        4.889629    1.837033   -0.521070
     10          1           0        2.387736   -1.558998    0.271880
     11          1           0        0.662290   -0.057582    1.295926
     12          7           0        4.725355   -0.812300   -0.770244
     13          8           0        4.478174   -2.015908   -0.799678
     14          8           0        5.750105   -0.289408   -1.202803
     15          6           0       -4.887606   -0.166305   -0.580154
     16          6           0       -6.293223    0.414160   -0.421140
     17          6           0       -6.990331    0.650413   -1.761296
     18          1           0       -4.283489    0.515613   -1.194137
     19          1           0       -4.950011   -1.113268   -1.134013
     20          1           0       -6.228334    1.359054    0.133459
     21          1           0       -6.894008   -0.269124    0.192696
     22          1           0       -7.084426   -0.287997   -2.317296
     23          1           0       -6.414970    1.349434   -2.376869
     24          1           0       -7.993668    1.065609   -1.624230
     25          6           0       -4.177858   -0.408058    0.750839
     26          6           0       -2.772242   -0.988523    0.591825
     27          6           0       -2.075133   -1.224775    1.931982
     28          1           0       -4.115453    0.538906    1.304698
     29          1           0       -4.781976   -1.089975    1.364823
     30          1           0       -2.171456   -0.305237   -0.022012
     31          1           0       -2.837131   -1.933417    0.037225
     32          1           0       -2.650494   -1.923796    2.547554
     33          1           0       -1.981038   -0.286365    2.487981
     34          1           0       -1.071797   -1.639971    1.794914
 ---------------------------------------------------------------------

 SCF Done:  E(RHF) =  -669.535457768     A.U. after   15 cycles
 E2 =    -0.2091072627D+01 EUMP2 =    -0.67162653039499D+03

 The electronic state is 1-A.
 Alpha  occ. eigenvalues --  -20.60725 -20.60720 -15.85777 -11.31135 -11.27703
 Alpha  occ. eigenvalues --  -11.27689 -11.27438 -11.26723 -11.26647 -11.22494
 Alpha  occ. eigenvalues --  -11.22235 -11.22100 -11.22065 -11.21923 -11.21447
 Alpha  occ. eigenvalues --   -1.59800  -1.39354  -1.19302  -1.09106  -1.08699
 Alpha  occ. eigenvalues --   -1.04705  -1.04243  -0.96709  -0.95538  -0.87728
 Alpha  occ. eigenvalues --   -0.86099  -0.82370  -0.80305  -0.78872  -0.77420
 Alpha  occ. eigenvalues --   -0.71996  -0.71123  -0.70418  -0.65750  -0.64954
 Alpha  occ. eigenvalues --   -0.64734  -0.62140  -0.61593  -0.60080  -0.58293
 Alpha  occ. eigenvalues --   -0.55995  -0.55203  -0.53492  -0.53154  -0.53035
 Alpha  occ. eigenvalues --   -0.52654  -0.50629  -0.48753  -0.48751  -0.48615
 Alpha  occ. eigenvalues --   -0.47330  -0.46423  -0.46325  -0.44761  -0.44482
 Alpha  occ. eigenvalues --   -0.37286  -0.36304
 Alpha virt. eigenvalues --    0.05113   0.11322   0.16599   0.19754   0.22568
 Alpha virt. eigenvalues --    0.23750   0.25947   0.26201   0.26849   0.27836
 Alpha virt. eigenvalues --    0.29135   0.30399   0.30798   0.31391   0.31928

 Mulliken charges:
               1
     1  C   -0.173406
     2  C   -0.218336
     3  C   -0.171421
     4  C    0.158860
     5  C   -0.173705
     6  C   -0.227431
     7  H    0.225386
     8  H    0.223032
     9  H    0.275363
    10  H    0.275103
    11  H    0.238397
    12  N    0.488105
    13  O   -0.460514
    14  O   -0.460682
    15  C   -0.298899
    16  C   -0.300094
    17  C   -0.476070
    18  H    0.149906
    19  H    0.151670
    20  H    0.151552
    21  H    0.152966
    22  H    0.156413
    23  H    0.155509
    24  H    0.161493
    25  C   -0.298574
    26  C   -0.302103
    27  C   -0.481736
    28  H    0.148395
    29  H    0.152125
    30  H    0.150750
    31  H    0.157077
    32  H    0.164123
    33  H    0.152156
    34  H    0.154590
 Sum of Mulliken charges =  -0.00000

 Dipole moment (field-independent basis, Debye):
    X=             -3.8283    Y=              3.0908    Z=              2.1121  Tot=              5.3544
 Quadrupole moment (field-independent basis, Debye-Ang):
   XX=           -119.6032   YY=            -90.4106   ZZ=            -96.8815
   XY=             14.8253   XZ=              7.3380   YZ=             -1.0729

 Normal termination of Gaussian 16 at Wed May  5 16:10:04 2021.
