 Gaussian 16, Revision A.03,
 Gaussian 16:  EM64L-G16RevA.03 25-Dec-2016

 -------------
 #p 6-31g* mp2
 -------------

 ------------------------------------------------------
 Input file generated by CHIRIPA (05-May-2021 14:57:25)
 ------------------------------------------------------
 Symbolic Z-matrix:
 Charge =  0 Multiplicity = 1

                         Standard orientation:
 ---------------------------------------------------------------------
 Center     Atomic      Atomic             Coordinates (Angstroms)
 Number     Number       Type             X           Y           Z
 ---------------------------------------------------------------------
      1          6           0        5.071105    1.558415   -1.197407
      2          6           0        5.571751    0.318523   -0.786868
      3          6           0        4.762636   -0.574459   -0.078020
      4          6           0        3.451807   -0.193399    0.204487
      5          6           0        2.923999    1.034761   -0.190900
      6          6           0        3.751155    1.911954   -0.898640
      7          1           0        5.706652    2.245973   -1.747627
      8          1           0        6.596447    0.041295   -1.017492
      9          1           0        5.124629   -1.540673    0.251845
     10          1           0        1.898370    1.283028    0.053774
     11          1           0        3.359664    2.874207   -1.216209
     12          7           0        2.585684   -1.130402    0.954326
     13          8           0        1.434356   -0.770974    1.190740
     14          8           0        3.074546   -2.206509    1.291437
     15          6           0       -3.815942    2.362799    0.876555
     16          6           0       -4.826507    1.842346    0.061443
     17          6           0       -4.714463    0.555979   -0.474516
     18          6           0       -3.573152   -0.185690   -0.173468
     19          6           0       -2.549244    0.304981    0.635325
     20          6           0       -2.682534    1.593811    1.160394
     21          1           0       -3.911233    3.363037    1.288671
     22          1           0       -5.707842    2.437287   -0.160679
     23          1           0       -5.481758    0.128469   -1.108482
     24          1           0       -1.682445   -0.311957    0.838959
     25          1           0       -1.896138    1.995424    1.793114
     26          7           0       -3.443289   -1.548812   -0.735100
     27          8           0       -2.427864   -2.182069   -0.454859
     28          8           0       -4.359387   -1.958162   -1.444914
 ---------------------------------------------------------------------

 SCF Done:  E(RHF) =  -868.338274061     A.U. after   16 cycles
 E2 =    -0.2599061186D+01 EUMP2 =    -0.87093733524696D+03

 The electronic state is 1-A.
 Alpha  occ. eigenvalues --  -20.61003 -20.60959 -20.60097 -20.60051 -15.86041
 Alpha  occ. eigenvalues --  -15.85130 -11.31370 -11.30561 -11.27978 -11.27905
 Alpha  occ. eigenvalues --  -11.27665 -11.27228 -11.27013 -11.27003 -11.26964
 Alpha  occ. eigenvalues --  -11.26920 -11.26265 -11.26179  -1.60033  -1.59160
 Alpha  occ. eigenvalues --   -1.39598  -1.38704  -1.19535  -1.18774  -1.08932
 Alpha  occ. eigenvalues --   -1.08175  -1.04941  -1.04175  -0.95777  -0.94979
 Alpha  occ. eigenvalues --   -0.86341  -0.85577  -0.82622  -0.81799  -0.77675
 Alpha  occ. eigenvalues --   -0.76810  -0.72272  -0.71351  -0.71333  -0.70652
 Alpha  occ. eigenvalues --   -0.70492  -0.69878  -0.65198  -0.64947  -0.64423
 Alpha  occ. eigenvalues --   -0.64184  -0.62298  -0.61481  -0.55439  -0.54720
 Alpha  occ. eigenvalues --   -0.53261  -0.53039  -0.52535  -0.52254  -0.49020
 Alpha  occ. eigenvalues --   -0.48983  -0.48130  -0.48082  -0.45004  -0.44095
 Alpha  occ. eigenvalues --   -0.37506  -0.36809  -0.36540  -0.35796
 Alpha virt. eigenvalues --    0.04874   0.05695   0.11116   0.11849   0.16364
 Alpha virt. eigenvalues --    0.17138   0.21037   0.22017   0.26748   0.27459
 Alpha virt. eigenvalues --    0.28373   0.29077   0.30946   0.31483   0.32394

 Mulliken charges:
               1
     1  C   -0.170563
     2  C   -0.218262
     3  C   -0.170163
     4  C    0.159613
     5  C   -0.169389
     6  C   -0.218078
     7  H    0.226144
     8  H    0.224521
     9  H    0.277043
    10  H    0.269812
    11  H    0.222612
    12  N    0.493827
    13  O   -0.470528
    14  O   -0.454739
    15  C   -0.171421
    16  C   -0.219749
    17  C   -0.171255
    18  C    0.156499
    19  C   -0.178919
    20  C   -0.223223
    21  H    0.222259
    22  H    0.220658
    23  H    0.273809
    24  H    0.297886
    25  H    0.222905
    26  N    0.486717
    27  O   -0.453073
    28  O   -0.464944
 Sum of Mulliken charges =  -0.00000

 Dipole moment (field-independent basis, Debye):
    X=              2.9578    Y=              7.9013    Z=             -0.6293  Tot=              8.4602
 Quadrupole moment (field-independent basis, Debye-Ang):
   XX=            -74.5415   YY=           -106.8071   ZZ=           -107.1054
   XY=             -9.5510   XZ=            -13.4173   YZ=             -0.6847

 Normal termination of Gaussian 16 at Thu May  6 09:52:42 2021.
