 Gaussian 16, Revision A.03,
 Gaussian 16:  EM64L-G16RevA.03 25-Dec-2016

 -------------
 #p 6-31g* mp2
 -------------

 ------------------------------------------------------
 Input file generated by CHIRIPA (05-May-2021 14:53:12)
 ------------------------------------------------------
 Symbolic Z-matrix:
 Charge =  0 Multiplicity = 1

                         Standard orientation:
 ---------------------------------------------------------------------
 Center     Atomic      Atomic             Coordinates (Angstroms)
 Number     Number       Type             X           Y           Z
 ---------------------------------------------------------------------
      1          6           0       -2.848280    0.676878   -0.777113
      2          6           0       -2.002346    1.744586   -0.082578
      3          6           0       -1.233990    2.624254   -1.069293
      4          1           0       -2.196085    0.048945   -1.399437
      5          1           0       -3.555481    1.166715   -1.460722
      6          1           0       -1.297892    1.252955    0.600548
      7          1           0       -2.656603    2.369930    0.538316
      8          1           0       -1.924719    3.140956   -1.743469
      9          1           0       -0.558289    2.017634   -1.680883
     10          1           0       -0.635949    3.380575   -0.551428
     11          6           0       -3.622342   -0.210483    0.196103
     12          6           0       -4.468277   -1.278191   -0.498432
     13          6           0       -5.236633   -2.157859    0.488283
     14          1           0       -2.915141   -0.700320    0.879712
     15          1           0       -4.274537    0.417449    0.818427
     16          1           0       -3.814020   -1.903535   -1.119326
     17          1           0       -5.172730   -0.786560   -1.181558
     18          1           0       -5.912334   -1.551239    1.099873
     19          1           0       -4.545903   -2.674561    1.162459
     20          1           0       -5.834673   -2.914181   -0.029582
     21          6           0        1.490293    1.894308    1.215956
     22          6           0        2.294921    1.988788    0.075706
     23          6           0        2.874792    0.844879   -0.480863
     24          6           0        2.627868   -0.382933    0.131345
     25          6           0        1.830864   -0.509570    1.268022
     26          6           0        1.261237    0.647628    1.807432
     27          1           0        1.043814    2.788087    1.641647
     28          1           0        2.474539    2.955654   -0.385760
     29          1           0        3.501825    0.889340   -1.363060
     30          1           0        1.670043   -1.487314    1.705712
     31          1           0        0.636783    0.571248    2.693021
     32          7           0        3.236330   -1.600974   -0.448788
     33          8           0        3.003398   -2.670922    0.109414
     34          8           0        3.934652   -1.462661   -1.450712
 ---------------------------------------------------------------------

 SCF Done:  E(RHF) =  -669.534169754     A.U. after   15 cycles
 E2 =    -0.2094145294D+01 EUMP2 =    -0.67162831504773D+03

 The electronic state is 1-A.
 Alpha  occ. eigenvalues --  -20.60823 -20.60818 -15.85879 -11.31258 -11.27837
 Alpha  occ. eigenvalues --  -11.27828 -11.27565 -11.26840 -11.26824 -11.21985
 Alpha  occ. eigenvalues --  -11.21805 -11.21722 -11.21664 -11.21606 -11.21247
 Alpha  occ. eigenvalues --   -1.59900  -1.39453  -1.19448  -1.08880  -1.08715
 Alpha  occ. eigenvalues --   -1.04852  -1.03864  -0.96335  -0.95655  -0.87350
 Alpha  occ. eigenvalues --   -0.86242  -0.82494  -0.79940  -0.78570  -0.77537
 Alpha  occ. eigenvalues --   -0.72097  -0.71225  -0.70558  -0.65401  -0.65095
 Alpha  occ. eigenvalues --   -0.64845  -0.62192  -0.61288  -0.59742  -0.57963
 Alpha  occ. eigenvalues --   -0.55654  -0.55339  -0.53227  -0.52939  -0.52873
 Alpha  occ. eigenvalues --   -0.52748  -0.50257  -0.48856  -0.48850  -0.48256
 Alpha  occ. eigenvalues --   -0.46974  -0.46111  -0.46030  -0.44855  -0.44131
 Alpha  occ. eigenvalues --   -0.37316  -0.36403
 Alpha virt. eigenvalues --    0.04976   0.11092   0.16402   0.20476   0.22772
 Alpha virt. eigenvalues --    0.24161   0.25957   0.26576   0.26864   0.28019
 Alpha virt. eigenvalues --    0.28654   0.30556   0.31173   0.31513   0.32194

 Mulliken charges:
               1
     1  C   -0.298111
     2  C   -0.306981
     3  C   -0.472008
     4  H    0.152904
     5  H    0.150182
     6  H    0.155626
     7  H    0.148448
     8  H    0.156284
     9  H    0.159681
    10  H    0.146714
    11  C   -0.297833
    12  C   -0.300265
    13  C   -0.475878
    14  H    0.146793
    15  H    0.148560
    16  H    0.154614
    17  H    0.152474
    18  H    0.154424
    19  H    0.155109
    20  H    0.161906
    21  C   -0.165481
    22  C   -0.215313
    23  C   -0.172433
    24  C    0.158200
    25  C   -0.171749
    26  C   -0.221309
    27  H    0.227134
    28  H    0.224342
    29  H    0.275998
    30  H    0.275804
    31  H    0.224703
    32  N    0.488080
    33  O   -0.460398
    34  O   -0.460219
 Sum of Mulliken charges =  -0.00000

 Dipole moment (field-independent basis, Debye):
    X=             -2.0998    Y=              4.2302    Z=              2.0113  Tot=              5.1331
 Quadrupole moment (field-independent basis, Debye-Ang):
   XX=           -105.5106   YY=            -97.3305   ZZ=            -92.3131
   XY=             12.9537   XZ=              3.9019   YZ=             -2.0278

 Normal termination of Gaussian 16 at Thu May  6 10:26:19 2021.
