 Gaussian 16, Revision A.03,
 Gaussian 16:  EM64L-G16RevA.03 25-Dec-2016

 -------------
 #p 6-31g* mp2
 -------------

 ------------------------------------------------------
 Input file generated by CHIRIPA (05-May-2021 14:51:07)
 ------------------------------------------------------
 Symbolic Z-matrix:
 Charge =  0 Multiplicity = 1

                         Standard orientation:
 ---------------------------------------------------------------------
 Center     Atomic      Atomic             Coordinates (Angstroms)
 Number     Number       Type             X           Y           Z
 ---------------------------------------------------------------------
      1          6           0        3.499447    0.838486    0.333024
      2          6           0        3.664457    2.078133   -0.546766
      3          6           0        3.410827    3.380407    0.213199
      4          1           0        2.484570    0.827587    0.753560
      5          1           0        4.190057    0.907443    1.184902
      6          1           0        2.974723    2.006198   -1.397476
      7          1           0        4.678998    2.085982   -0.965410
      8          1           0        4.107509    3.478916    1.051967
      9          1           0        2.393551    3.398679    0.617446
     10          1           0        3.534183    4.253859   -0.434663
     11          6           0        3.749765   -0.471189   -0.412510
     12          6           0        3.584754   -1.710836    0.467280
     13          6           0        3.838384   -3.013110   -0.292686
     14          1           0        3.059154   -0.540146   -1.264389
     15          1           0        4.764642   -0.460290   -0.833046
     16          1           0        2.570214   -1.718685    0.885924
     17          1           0        4.274489   -1.638901    1.317990
     18          1           0        4.855661   -3.031382   -0.696932
     19          1           0        3.141702   -3.111619   -1.131453
     20          1           0        3.715028   -3.886562    0.355177
     21          6           0       -4.291429   -0.000720    0.364268
     22          6           0       -5.429174    0.170431   -0.642820
     23          6           0       -6.756749    0.536280    0.021629
     24          1           0       -4.566473   -0.778360    1.089921
     25          1           0       -4.172612    0.930983    0.934538
     26          1           0       -5.544896   -0.760853   -1.211973
     27          1           0       -5.151309    0.947620   -1.366273
     28          1           0       -6.664524    1.476666    0.574594
     29          1           0       -7.060348   -0.241514    0.729771
     30          1           0       -7.556203    0.653783   -0.716561
     31          6           0       -2.957783   -0.366576   -0.284782
     32          6           0       -1.820037   -0.537728    0.722306
     33          6           0       -0.492462   -0.903577    0.057857
     34          1           0       -3.076599   -1.298279   -0.855052
     35          1           0       -2.682739    0.411064   -1.010434
     36          1           0       -2.097902   -1.314917    1.445760
     37          1           0       -1.704315    0.393556    1.291459
     38          1           0       -0.188863   -0.125783   -0.650285
     39          1           0       -0.584687   -1.843964   -0.495107
     40          1           0        0.306992   -1.021081    0.796048
 ---------------------------------------------------------------------

 SCF Done:  E(RHF) =  -470.733134115     A.U. after   11 cycles
 E2 =    -0.1583075760D+01 EUMP2 =    -0.47231620987474D+03

 The electronic state is 1-A.
 Alpha  occ. eigenvalues --  -11.21681 -11.21634 -11.21568 -11.21510 -11.21457
 Alpha  occ. eigenvalues --  -11.21395 -11.21331 -11.21271 -11.21173 -11.21096
 Alpha  occ. eigenvalues --  -11.21054 -11.21007  -1.08487  -1.08366  -1.03594
 Alpha  occ. eigenvalues --   -1.03474  -0.96047  -0.95923  -0.87071  -0.86938
 Alpha  occ. eigenvalues --   -0.79667  -0.79534  -0.78296  -0.78182  -0.65126
 Alpha  occ. eigenvalues --   -0.65007  -0.60998  -0.60896  -0.59431  -0.59263
 Alpha  occ. eigenvalues --   -0.57654  -0.57538  -0.55382  -0.55157  -0.52797
 Alpha  occ. eigenvalues --   -0.52601  -0.52472  -0.52347  -0.49987  -0.49858
 Alpha  occ. eigenvalues --   -0.48005  -0.47844  -0.46696  -0.46557  -0.45843
 Alpha  occ. eigenvalues --   -0.45766  -0.45718  -0.45636  -0.43781  -0.43711
 Alpha virt. eigenvalues --    0.20765   0.23016   0.24016   0.24442   0.26111
 Alpha virt. eigenvalues --    0.26475   0.26737   0.27702   0.27885   0.29394
 Alpha virt. eigenvalues --    0.30372   0.31349   0.31674   0.31980   0.32060

 Mulliken charges:
               1
     1  C   -0.300975
     2  C   -0.299544
     3  C   -0.475621
     4  H    0.152399
     5  H    0.148993
     6  H    0.151524
     7  H    0.151894
     8  H    0.155178
     9  H    0.154831
    10  H    0.160046
    11  C   -0.298024
    12  C   -0.305076
    13  C   -0.475424
    14  H    0.150790
    15  H    0.149225
    16  H    0.157306
    17  H    0.151262
    18  H    0.154855
    19  H    0.155519
    20  H    0.159724
    21  C   -0.298293
    22  C   -0.299674
    23  C   -0.475738
    24  H    0.149789
    25  H    0.149633
    26  H    0.151997
    27  H    0.151991
    28  H    0.155252
    29  H    0.155243
    30  H    0.160372
    31  C   -0.298798
    32  C   -0.299467
    33  C   -0.482409
    34  H    0.149704
    35  H    0.149663
    36  H    0.152392
    37  H    0.152030
    38  H    0.155510
    39  H    0.155659
    40  H    0.166263
 Sum of Mulliken charges =  -0.00000

 Dipole moment (field-independent basis, Debye):
    X=             -0.0483    Y=             -0.0112    Z=              0.0008  Tot=              0.0496
 Quadrupole moment (field-independent basis, Debye-Ang):
   XX=            -84.9452   YY=            -84.9586   ZZ=            -85.0110
   XY=              0.7311   XZ=              0.6091   YZ=             -0.5877

 Normal termination of Gaussian 16 at Wed May  5 15:00:55 2021.
