 Gaussian 16, Revision A.03,
 Gaussian 16:  EM64L-G16RevA.03 25-Dec-2016

 -------------
 #p 6-31g* mp2
 -------------

 ------------------------------------------------------
 Input file generated by CHIRIPA (05-May-2021 14:57:26)
 ------------------------------------------------------
 Symbolic Z-matrix:
 Charge =  0 Multiplicity = 1

                         Standard orientation:
 ---------------------------------------------------------------------
 Center     Atomic      Atomic             Coordinates (Angstroms)
 Number     Number       Type             X           Y           Z
 ---------------------------------------------------------------------
      1          6           0        2.112816    1.876325    0.391458
      2          6           0        2.184458    0.744643    1.210411
      3          6           0        3.123019   -0.259240    0.953761
      4          6           0        3.978320   -0.098218   -0.135194
      5          6           0        3.931545    1.017606   -0.969484
      6          6           0        2.985050    2.008961   -0.693962
      7          1           0        1.380638    2.651300    0.598159
      8          1           0        1.508339    0.638967    2.054058
      9          1           0        3.200192   -1.145672    1.571579
     10          1           0        4.618912    1.094811   -1.803140
     11          1           0        2.931687    2.886758   -1.331669
     12          7           0        4.976132   -1.154353   -0.416888
     13          8           0        5.718357   -0.988736   -1.382449
     14          8           0        4.997098   -2.127770    0.333217
     15          6           0       -1.879936    0.659913    1.532544
     16          6           0       -2.331559    1.482287    0.495115
     17          6           0       -3.402280    1.084785   -0.311171
     18          6           0       -4.000834   -0.146976   -0.050811
     19          6           0       -3.573814   -0.988562    0.975190
     20          6           0       -2.501409   -0.570717    1.768854
     21          1           0       -1.047520    0.976602    2.153984
     22          1           0       -1.850823    2.438533    0.309289
     23          1           0       -3.772156    1.701821   -1.121033
     24          1           0       -4.073146   -1.936284    1.136146
     25          1           0       -2.152795   -1.211441    2.573831
     26          7           0       -5.135250   -0.578560   -0.897709
     27          8           0       -5.645598   -1.668396   -0.647828
     28          8           0       -5.492577    0.181172   -1.795350
 ---------------------------------------------------------------------

 SCF Done:  E(RHF) =  -868.335899730     A.U. after   16 cycles
 E2 =    -0.2600341033D+01 EUMP2 =    -0.87093624076296D+03

 The electronic state is 1-A.
 Alpha  occ. eigenvalues --  -20.61281 -20.61273 -20.61235 -20.61228 -15.86340
 Alpha  occ. eigenvalues --  -15.86293 -11.31860 -11.31815 -11.28488 -11.28421
 Alpha  occ. eigenvalues --  -11.28418 -11.28377 -11.28338 -11.28319 -11.27641
 Alpha  occ. eigenvalues --  -11.27556 -11.27490 -11.27471  -1.60351  -1.60305
 Alpha  occ. eigenvalues --   -1.39900  -1.39854  -1.20068  -1.20018  -1.09468
 Alpha  occ. eigenvalues --   -1.09404  -1.05500  -1.05443  -0.96269  -0.96207
 Alpha  occ. eigenvalues --   -0.86914  -0.86855  -0.83097  -0.83031  -0.78094
 Alpha  occ. eigenvalues --   -0.78032  -0.72559  -0.72511  -0.71675  -0.71628
 Alpha  occ. eigenvalues --   -0.71320  -0.71141  -0.65743  -0.65687  -0.65604
 Alpha  occ. eigenvalues --   -0.65418  -0.62854  -0.62787  -0.56163  -0.55976
 Alpha  occ. eigenvalues --   -0.53856  -0.53721  -0.53585  -0.53557  -0.49332
 Alpha  occ. eigenvalues --   -0.49300  -0.49281  -0.49253  -0.45271  -0.45225
 Alpha  occ. eigenvalues --   -0.38224  -0.37906  -0.37069  -0.37025
 Alpha virt. eigenvalues --    0.04452   0.04489   0.10499   0.10621   0.15798
 Alpha virt. eigenvalues --    0.15968   0.17500   0.22309   0.24101   0.25283
 Alpha virt. eigenvalues --    0.27817   0.28903   0.30289   0.31090   0.33175

 Mulliken charges:
               1
     1  C   -0.169956
     2  C   -0.216852
     3  C   -0.169771
     4  C    0.159606
     5  C   -0.169426
     6  C   -0.217739
     7  H    0.218287
     8  H    0.214652
     9  H    0.276679
    10  H    0.278372
    11  H    0.225398
    12  N    0.487989
    13  O   -0.458010
    14  O   -0.459222
    15  C   -0.169578
    16  C   -0.217390
    17  C   -0.169681
    18  C    0.159611
    19  C   -0.169399
    20  C   -0.218189
    21  H    0.216287
    22  H    0.217722
    23  H    0.277106
    24  H    0.278417
    25  H    0.224310
    26  N    0.487956
    27  O   -0.458076
    28  O   -0.459103
 Sum of Mulliken charges =  -0.00000

 Dipole moment (field-independent basis, Debye):
    X=              0.4867    Y=              5.0835    Z=              3.7881  Tot=              6.3583
 Quadrupole moment (field-independent basis, Debye-Ang):
   XX=           -164.0031   YY=           -101.7914   ZZ=           -101.8964
   XY=             10.0407   XZ=             -9.6605   YZ=             -6.4314

 Normal termination of Gaussian 16 at Wed May  5 16:29:20 2021.
