 Gaussian 16, Revision A.03,
 Gaussian 16:  EM64L-G16RevA.03 25-Dec-2016

 -------------
 #p 6-31g* mp2
 -------------

 ------------------------------------------------------
 Input file generated by CHIRIPA (05-May-2021 14:51:10)
 ------------------------------------------------------
 Symbolic Z-matrix:
 Charge =  0 Multiplicity = 1

                         Standard orientation:
 ---------------------------------------------------------------------
 Center     Atomic      Atomic             Coordinates (Angstroms)
 Number     Number       Type             X           Y           Z
 ---------------------------------------------------------------------
      1          6           0       -2.656828   -0.373310   -0.356278
      2          6           0       -4.061457   -0.504559   -0.946005
      3          6           0       -4.053277   -0.633566   -2.469515
      4          1           0       -2.161301    0.502472   -0.797189
      5          1           0       -2.060989   -1.249312   -0.647812
      6          1           0       -4.654890    0.370762   -0.652292
      7          1           0       -4.553768   -1.380019   -0.503497
      8          1           0       -3.484539   -1.516621   -2.778307
      9          1           0       -3.586235    0.244108   -2.927948
     10          1           0       -5.067611   -0.726191   -2.870026
     11          6           0       -2.648536   -0.243471    1.165827
     12          6           0       -1.243907   -0.112223    1.755554
     13          6           0       -1.252087    0.016785    3.279064
     14          1           0       -3.244375    0.632531    1.457361
     15          1           0       -3.144063   -1.119253    1.606738
     16          1           0       -0.751596    0.763238    1.313046
     17          1           0       -0.650474   -0.987543    1.461841
     18          1           0       -1.719129   -0.860889    3.737497
     19          1           0       -1.820825    0.899839    3.587856
     20          1           0       -0.237753    0.109409    3.679575
     21          6           0        2.029364    0.749771   -0.395262
     22          6           0        2.339644    2.240332   -0.536470
     23          6           0        1.082528    3.110402   -0.515681
     24          1           0        1.356143    0.443327   -1.207550
     25          1           0        1.482699    0.583470    0.543298
     26          1           0        2.886773    2.403582   -1.473815
     27          1           0        3.012358    2.543221    0.276137
     28          1           0        0.537153    2.976942    0.424188
     29          1           0        0.410855    2.836511   -1.335705
     30          1           0        1.327435    4.172199   -0.617984
     31          6           0        3.276000   -0.132990   -0.414287
     32          6           0        2.965720   -1.623551   -0.273079
     33          6           0        4.222837   -2.493621   -0.293868
     34          1           0        3.822665    0.033312   -1.352847
     35          1           0        3.949221    0.173454    0.398000
     36          1           0        2.293006   -1.926440   -1.085686
     37          1           0        2.418590   -1.786801    0.664265
     38          1           0        4.894509   -2.219729    0.526157
     39          1           0        4.768212   -2.360161   -1.233739
     40          1           0        3.977929   -3.555418   -0.191566
 ---------------------------------------------------------------------

 SCF Done:  E(RHF) =  -470.732783478     A.U. after   11 cycles
 E2 =    -0.1584009210D+01 EUMP2 =    -0.47231679268868D+03

 The electronic state is 1-A.
 Alpha  occ. eigenvalues --  -11.21593 -11.21592 -11.21587 -11.21555 -11.21383
 Alpha  occ. eigenvalues --  -11.21351 -11.21323 -11.21252 -11.21126 -11.21094
 Alpha  occ. eigenvalues --  -11.21069 -11.21066  -1.08446  -1.08373  -1.03552
 Alpha  occ. eigenvalues --   -1.03507  -0.95985  -0.95968  -0.87007  -0.86982
 Alpha  occ. eigenvalues --   -0.79691  -0.79533  -0.78427  -0.77992  -0.65097
 Alpha  occ. eigenvalues --   -0.64995  -0.61036  -0.60830  -0.59404  -0.59291
 Alpha  occ. eigenvalues --   -0.57633  -0.57548  -0.55275  -0.55254  -0.52698
 Alpha  occ. eigenvalues --   -0.52660  -0.52433  -0.52377  -0.49931  -0.49919
 Alpha  occ. eigenvalues --   -0.48147  -0.47839  -0.46800  -0.46460  -0.46185
 Alpha  occ. eigenvalues --   -0.45687  -0.45682  -0.45078  -0.43778  -0.43754
 Alpha virt. eigenvalues --    0.20944   0.22797   0.23496   0.23894   0.25790
 Alpha virt. eigenvalues --    0.26203   0.26471   0.27914   0.28572   0.29679
 Alpha virt. eigenvalues --    0.30106   0.31324   0.31692   0.31859   0.32098

 Mulliken charges:
               1
     1  C   -0.299120
     2  C   -0.299646
     3  C   -0.475660
     4  H    0.150631
     5  H    0.149626
     6  H    0.151976
     7  H    0.151899
     8  H    0.155029
     9  H    0.154976
    10  H    0.160263
    11  C   -0.297488
    12  C   -0.308314
    13  C   -0.476127
    14  H    0.149349
    15  H    0.149383
    16  H    0.159623
    17  H    0.153338
    18  H    0.155497
    19  H    0.155216
    20  H    0.159231
    21  C   -0.305411
    22  C   -0.299522
    23  C   -0.478679
    24  H    0.149744
    25  H    0.159297
    26  H    0.151807
    27  H    0.151636
    28  H    0.156630
    29  H    0.155125
    30  H    0.160656
    31  C   -0.297837
    32  C   -0.300413
    33  C   -0.475646
    34  H    0.149177
    35  H    0.149171
    36  H    0.151849
    37  H    0.152263
    38  H    0.155156
    39  H    0.155281
    40  H    0.160034
 Sum of Mulliken charges =  -0.00000

 Dipole moment (field-independent basis, Debye):
    X=             -0.0065    Y=              0.0046    Z=              0.0028  Tot=              0.0084
 Quadrupole moment (field-independent basis, Debye-Ang):
   XX=            -85.5800   YY=            -84.3566   ZZ=            -85.0225
   XY=              0.5498   XZ=             -0.0667   YZ=             -0.1010

 Normal termination of Gaussian 16 at Thu May  6 05:22:44 2021.
