 Gaussian 16, Revision A.03,
 Gaussian 16:  EM64L-G16RevA.03 25-Dec-2016

 -------------
 #p 6-31g* mp2
 -------------

 ------------------------------------------------------
 Input file generated by CHIRIPA (05-May-2021 14:55:24)
 ------------------------------------------------------
 Symbolic Z-matrix:
 Charge =  0 Multiplicity = 1

                         Standard orientation:
 ---------------------------------------------------------------------
 Center     Atomic      Atomic             Coordinates (Angstroms)
 Number     Number       Type             X           Y           Z
 ---------------------------------------------------------------------
      1          6           0       -1.292882   -2.337689    0.961304
      2          6           0       -0.711391   -1.071599    0.837185
      3          6           0       -1.443006   -0.002756    0.311009
      4          6           0       -2.759618   -0.236581   -0.082879
      5          6           0       -3.366981   -1.486409    0.028153
      6          6           0       -2.616488   -2.540695    0.557105
      7          1           0       -0.717213   -3.162337    1.371128
      8          1           0        0.316342   -0.911022    1.150275
      9          1           0       -1.017549    0.987651    0.203776
     10          1           0       -4.393551   -1.615719   -0.292551
     11          1           0       -3.070672   -3.522884    0.652329
     12          7           0       -3.544139    0.887250   -0.641387
     13          8           0       -4.702324    0.655279   -0.981142
     14          8           0       -2.986007    1.978800   -0.728816
     15          6           0        3.703030    0.145236   -0.572649
     16          6           0        4.577093   -1.002796   -0.066664
     17          6           0        5.242943   -1.782961   -1.200586
     18          1           0        2.932568   -0.257481   -1.244327
     19          1           0        4.318387    0.826934   -1.175990
     20          1           0        3.960575   -1.681388    0.536690
     21          1           0        5.345445   -0.597323    0.604039
     22          1           0        5.881144   -1.124291   -1.798462
     23          1           0        4.488403   -2.214514   -1.866193
     24          1           0        5.862995   -2.598932   -0.816416
     25          6           0        3.030588    0.934575    0.549176
     26          6           0        2.156525    2.082608    0.043190
     27          6           0        1.490675    2.862773    1.177113
     28          1           0        2.415231    0.252877    1.152516
     29          1           0        3.801051    1.337293    1.220853
     30          1           0        1.388172    1.677135   -0.627512
     31          1           0        2.773044    2.761199   -0.560163
     32          1           0        2.245214    3.294327    1.842719
     33          1           0        0.852474    2.204103    1.774988
     34          1           0        0.870624    3.678743    0.792942
 ---------------------------------------------------------------------

 SCF Done:  E(RHF) =  -669.535201876     A.U. after   15 cycles
 E2 =    -0.2092685777D+01 EUMP2 =    -0.67162788765294D+03

 The electronic state is 1-A.
 Alpha  occ. eigenvalues --  -20.60751 -20.60746 -15.85804 -11.31166 -11.27747
 Alpha  occ. eigenvalues --  -11.27712 -11.27489 -11.26763 -11.26734 -11.22292
 Alpha  occ. eigenvalues --  -11.22260 -11.22226 -11.22037 -11.21639 -11.21597
 Alpha  occ. eigenvalues --   -1.59826  -1.39379  -1.19344  -1.09156  -1.08740
 Alpha  occ. eigenvalues --   -1.04756  -1.04176  -0.96619  -0.95574  -0.87625
 Alpha  occ. eigenvalues --   -0.86148  -0.82411  -0.80232  -0.78968  -0.77461
 Alpha  occ. eigenvalues --   -0.72023  -0.71149  -0.70467  -0.65882  -0.64992
 Alpha  occ. eigenvalues --   -0.64753  -0.62274  -0.61371  -0.59964  -0.58212
 Alpha  occ. eigenvalues --   -0.55956  -0.55244  -0.53263  -0.53088  -0.53058
 Alpha  occ. eigenvalues --   -0.52792  -0.50562  -0.48785  -0.48778  -0.48529
 Alpha  occ. eigenvalues --   -0.47294  -0.46485  -0.46432  -0.44785  -0.44436
 Alpha  occ. eigenvalues --   -0.37329  -0.36347
 Alpha virt. eigenvalues --    0.05056   0.11283   0.16511   0.18273   0.22884
 Alpha virt. eigenvalues --    0.23443   0.24828   0.26083   0.27078   0.28607
 Alpha virt. eigenvalues --    0.29806   0.30436   0.31252   0.31425   0.31880

 Mulliken charges:
               1
     1  C   -0.172218
     2  C   -0.226899
     3  C   -0.181297
     4  C    0.159343
     5  C   -0.170427
     6  C   -0.218719
     7  H    0.226068
     8  H    0.232657
     9  H    0.285043
    10  H    0.275557
    11  H    0.223400
    12  N    0.487868
    13  O   -0.460574
    14  O   -0.460328
    15  C   -0.299716
    16  C   -0.298816
    17  C   -0.476177
    18  H    0.150778
    19  H    0.153939
    20  H    0.146038
    21  H    0.154049
    22  H    0.157655
    23  H    0.155754
    24  H    0.161259
    25  C   -0.301586
    26  C   -0.306152
    27  C   -0.480124
    28  H    0.139783
    29  H    0.154669
    30  H    0.151711
    31  H    0.158862
    32  H    0.158972
    33  H    0.148230
    34  H    0.171400
 Sum of Mulliken charges =  -0.00000

 Dipole moment (field-independent basis, Debye):
    X=              2.9295    Y=             -3.8126    Z=              1.8874  Tot=              5.1653
 Quadrupole moment (field-independent basis, Debye-Ang):
   XX=           -106.1045   YY=            -90.8372   ZZ=            -96.3966
   XY=             14.3355   XZ=             -4.9708   YZ=             -0.1765

 Normal termination of Gaussian 16 at Thu May  6 04:45:18 2021.
