 Gaussian 16, Revision A.03,
 Gaussian 16:  EM64L-G16RevA.03 25-Dec-2016

 -------------
 #p 6-31g* mp2
 -------------

 ------------------------------------------------------
 Input file generated by CHIRIPA (05-May-2021 14:51:12)
 ------------------------------------------------------
 Symbolic Z-matrix:
 Charge =  0 Multiplicity = 1

                         Standard orientation:
 ---------------------------------------------------------------------
 Center     Atomic      Atomic             Coordinates (Angstroms)
 Number     Number       Type             X           Y           Z
 ---------------------------------------------------------------------
      1          6           0        4.215062   -0.066739   -0.087620
      2          6           0        4.912900   -1.424022   -0.181371
      3          6           0        6.168764   -1.384112   -1.052581
      4          1           0        3.951206    0.273347   -1.098395
      5          1           0        4.919782    0.672886    0.317002
      6          1           0        4.206649   -2.161173   -0.584400
      7          1           0        5.174955   -1.761004    0.829760
      8          1           0        6.894314   -0.669859   -0.650064
      9          1           0        5.920506   -1.072301   -2.072259
     10          1           0        6.651779   -2.364787   -1.105808
     11          6           0        2.957881   -0.090556    0.779939
     12          6           0        2.260043    1.266727    0.873690
     13          6           0        1.004179    1.226817    1.744901
     14          1           0        2.253161   -0.830181    0.375317
     15          1           0        3.221738   -0.430642    1.790714
     16          1           0        1.997988    1.603709   -0.137441
     17          1           0        2.966295    2.003878    1.276719
     18          1           0        1.252437    0.915006    2.764579
     19          1           0        0.278629    0.512564    1.342384
     20          1           0        0.521165    2.207493    1.798127
     21          6           0       -4.046382   -0.255849    0.163767
     22          6           0       -4.777978   -1.478951   -0.390104
     23          6           0       -5.694237   -2.137228    0.641853
     24          1           0       -3.457154   -0.555234    1.041335
     25          1           0       -4.785781    0.475516    0.518434
     26          1           0       -4.037443   -2.207204   -0.744887
     27          1           0       -5.365383   -1.176659   -1.266569
     28          1           0       -6.454579   -1.429986    0.988681
     29          1           0       -5.119094   -2.466386    1.513326
     30          1           0       -6.207265   -3.009427    0.224800
     31          6           0       -3.126561    0.413144   -0.856087
     32          6           0       -2.394965    1.636247   -0.302215
     33          6           0       -1.478707    2.294523   -1.334173
     34          1           0       -2.387162   -0.318221   -1.210753
     35          1           0       -3.715790    0.712528   -1.733654
     36          1           0       -1.807561    1.333954    0.574250
     37          1           0       -3.135501    2.364498    0.052568
     38          1           0       -2.053850    2.623681   -2.205646
     39          1           0       -0.718364    1.587280   -1.681000
     40          1           0       -0.965678    3.166721   -0.917120
 ---------------------------------------------------------------------

 SCF Done:  E(RHF) =  -470.732889431     A.U. after   11 cycles
 E2 =    -0.1583159275D+01 EUMP2 =    -0.47231604870602D+03

 The electronic state is 1-A.
 Alpha  occ. eigenvalues --  -11.21620 -11.21616 -11.21590 -11.21485 -11.21430
 Alpha  occ. eigenvalues --  -11.21381 -11.21370 -11.21321 -11.21100 -11.21084
 Alpha  occ. eigenvalues --  -11.21060 -11.21056  -1.08459  -1.08397  -1.03584
 Alpha  occ. eigenvalues --   -1.03471  -0.96040  -0.95927  -0.87035  -0.86970
 Alpha  occ. eigenvalues --   -0.79687  -0.79500  -0.78279  -0.78197  -0.65183
 Alpha  occ. eigenvalues --   -0.64963  -0.61203  -0.60682  -0.59459  -0.59238
 Alpha  occ. eigenvalues --   -0.57655  -0.57524  -0.55439  -0.55089  -0.52726
 Alpha  occ. eigenvalues --   -0.52623  -0.52466  -0.52349  -0.50085  -0.49812
 Alpha  occ. eigenvalues --   -0.47981  -0.47831  -0.46862  -0.46399  -0.45845
 Alpha  occ. eigenvalues --   -0.45767  -0.45725  -0.45535  -0.43802  -0.43744
 Alpha virt. eigenvalues --    0.20658   0.23114   0.23529   0.25525   0.26066
 Alpha virt. eigenvalues --    0.26410   0.26925   0.27347   0.28192   0.29314
 Alpha virt. eigenvalues --    0.29911   0.30982   0.31438   0.32228   0.32524

 Mulliken charges:
               1
     1  C   -0.298340
     2  C   -0.299653
     3  C   -0.475728
     4  H    0.149759
     5  H    0.149677
     6  H    0.151815
     7  H    0.151961
     8  H    0.155243
     9  H    0.155255
    10  H    0.160292
    11  C   -0.298584
    12  C   -0.301587
    13  C   -0.478262
    14  H    0.149119
    15  H    0.149707
    16  H    0.154445
    17  H    0.152027
    18  H    0.155089
    19  H    0.157090
    20  H    0.161773
    21  C   -0.298188
    22  C   -0.299573
    23  C   -0.475703
    24  H    0.149425
    25  H    0.149668
    26  H    0.151679
    27  H    0.151934
    28  H    0.155206
    29  H    0.155216
    30  H    0.160173
    31  C   -0.298224
    32  C   -0.307140
    33  C   -0.475716
    34  H    0.148366
    35  H    0.149454
    36  H    0.161121
    37  H    0.151348
    38  H    0.154947
    39  H    0.154595
    40  H    0.160317
 Sum of Mulliken charges =  -0.00000

 Dipole moment (field-independent basis, Debye):
    X=              0.0266    Y=              0.0138    Z=              0.0253  Tot=              0.0392
 Quadrupole moment (field-independent basis, Debye-Ang):
   XX=            -85.2788   YY=            -84.7514   ZZ=            -84.7932
   XY=             -0.6081   XZ=              1.6623   YZ=              0.3404

 Normal termination of Gaussian 16 at Wed May  5 19:53:24 2021.
