 Gaussian 16, Revision A.03,
 Gaussian 16:  EM64L-G16RevA.03 25-Dec-2016

 -------------
 #p 6-31g* mp2
 -------------

 ------------------------------------------------------
 Input file generated by CHIRIPA (05-May-2021 14:57:24)
 ------------------------------------------------------
 Symbolic Z-matrix:
 Charge =  0 Multiplicity = 1

                         Standard orientation:
 ---------------------------------------------------------------------
 Center     Atomic      Atomic             Coordinates (Angstroms)
 Number     Number       Type             X           Y           Z
 ---------------------------------------------------------------------
      1          6           0        1.604007    1.633571   -0.075093
      2          6           0        2.891955    2.158708    0.073034
      3          6           0        4.011630    1.324869   -0.001716
      4          6           0        3.805795   -0.035390   -0.226700
      5          6           0        2.535271   -0.588612   -0.378373
      6          6           0        1.430082    0.264002   -0.299927
      7          1           0        0.739842    2.288610   -0.015589
      8          1           0        3.030038    3.221938    0.247733
      9          1           0        5.019915    1.704927    0.109349
     10          1           0        2.429346   -1.652661   -0.551571
     11          1           0        0.431018   -0.146602   -0.415342
     12          7           0        4.983477   -0.928076   -0.307791
     13          8           0        4.775354   -2.122947   -0.506805
     14          8           0        6.092368   -0.415990   -0.170801
     15          6           0       -1.698194   -0.064125    1.857159
     16          6           0       -2.032491    1.088393    1.138500
     17          6           0       -3.090787    1.073563    0.225080
     18          6           0       -3.796689   -0.116338    0.054417
     19          6           0       -3.487851   -1.280992    0.755481
     20          6           0       -2.425659   -1.243060    1.663696
     21          1           0       -0.874571   -0.043632    2.564704
     22          1           0       -1.469279    2.005384    1.286703
     23          1           0       -3.370968    1.951357   -0.344476
     24          1           0       -4.067697   -2.180184    0.586218
     25          1           0       -2.168281   -2.139634    2.220434
     26          7           0       -4.919123   -0.144266   -0.909826
     27          8           0       -5.525482   -1.205159   -1.042007
     28          8           0       -5.171273    0.895266   -1.515160
 ---------------------------------------------------------------------

 SCF Done:  E(RHF) =  -868.336964691     A.U. after   16 cycles
 E2 =    -0.2601461403D+01 EUMP2 =    -0.87093842609446D+03

 The electronic state is 1-A.
 Alpha  occ. eigenvalues --  -20.61523 -20.61515 -20.61194 -20.61189 -15.86586
 Alpha  occ. eigenvalues --  -15.86247 -11.32149 -11.31706 -11.28814 -11.28727
 Alpha  occ. eigenvalues --  -11.28523 -11.28255 -11.28235 -11.28071 -11.27885
 Alpha  occ. eigenvalues --  -11.27728 -11.27336 -11.27217  -1.60595  -1.60267
 Alpha  occ. eigenvalues --   -1.40142  -1.39818  -1.20377  -1.19876  -1.09728
 Alpha  occ. eigenvalues --   -1.09267  -1.05808  -1.05273  -0.96508  -0.96094
 Alpha  occ. eigenvalues --   -0.87191  -0.86663  -0.83342  -0.82904  -0.78356
 Alpha  occ. eigenvalues --   -0.77928  -0.72796  -0.72463  -0.71926  -0.71592
 Alpha  occ. eigenvalues --   -0.71422  -0.71052  -0.66010  -0.65823  -0.65513
 Alpha  occ. eigenvalues --   -0.65252  -0.63130  -0.62613  -0.56275  -0.55829
 Alpha  occ. eigenvalues --   -0.54231  -0.53852  -0.53607  -0.53248  -0.49571
 Alpha  occ. eigenvalues --   -0.49540  -0.49227  -0.49214  -0.45504  -0.45202
 Alpha  occ. eigenvalues --   -0.38464  -0.37830  -0.37423  -0.36838
 Alpha virt. eigenvalues --    0.04176   0.04563   0.10055   0.10803   0.15509
 Alpha virt. eigenvalues --    0.16066   0.19268   0.21650   0.24933   0.26928
 Alpha virt. eigenvalues --    0.27475   0.28490   0.29703   0.31337   0.32023

 Mulliken charges:
               1
     1  C   -0.176630
     2  C   -0.217923
     3  C   -0.171247
     4  C    0.159601
     5  C   -0.172824
     6  C   -0.224253
     7  H    0.219066
     8  H    0.224073
     9  H    0.276979
    10  H    0.276394
    11  H    0.232297
    12  N    0.487865
    13  O   -0.459452
    14  O   -0.459030
    15  C   -0.174049
    16  C   -0.227869
    17  C   -0.171371
    18  C    0.158449
    19  C   -0.169444
    20  C   -0.221015
    21  H    0.232238
    22  H    0.220219
    23  H    0.277394
    24  H    0.279692
    25  H    0.228652
    26  N    0.488116
    27  O   -0.457157
    28  O   -0.458772
 Sum of Mulliken charges =  -0.00000

 Dipole moment (field-independent basis, Debye):
    X=             -0.3621    Y=              3.0601    Z=              3.7052  Tot=              4.8191
 Quadrupole moment (field-independent basis, Debye-Ang):
   XX=           -164.4113   YY=            -97.6138   ZZ=           -105.5360
   XY=             15.2405   XZ=            -10.4800   YZ=             -1.7956

 Normal termination of Gaussian 16 at Fri May  7 06:31:17 2021.
