 Gaussian 16, Revision A.03,
 Gaussian 16:  EM64L-G16RevA.03 25-Dec-2016

 -------------
 #p 6-31g* mp2
 -------------

 ------------------------------------------------------
 Input file generated by CHIRIPA (05-May-2021 14:57:22)
 ------------------------------------------------------
 Symbolic Z-matrix:
 Charge =  0 Multiplicity = 1

                         Standard orientation:
 ---------------------------------------------------------------------
 Center     Atomic      Atomic             Coordinates (Angstroms)
 Number     Number       Type             X           Y           Z
 ---------------------------------------------------------------------
      1          6           0       -3.939483   -2.321521    0.603474
      2          6           0       -4.644288   -1.323665    1.284691
      3          6           0       -4.415390    0.026244    1.002028
      4          6           0       -3.470284    0.343951    0.027796
      5          6           0       -2.752063   -0.627248   -0.668063
      6          6           0       -2.997281   -1.970746   -0.369014
      7          1           0       -4.123636   -3.367672    0.829418
      8          1           0       -5.376603   -1.593142    2.040429
      9          1           0       -4.946902    0.819036    1.514274
     10          1           0       -2.028259   -0.327649   -1.416239
     11          1           0       -2.448440   -2.743567   -0.899642
     12          7           0       -3.219321    1.769645   -0.280120
     13          8           0       -2.381444    2.023397   -1.142795
     14          8           0       -3.865246    2.606357    0.347042
     15          6           0        1.347740   -0.818292   -1.164965
     16          6           0        2.342601   -1.765786   -0.902231
     17          6           0        3.545498   -1.384105   -0.300644
     18          6           0        3.720844   -0.040406    0.026486
     19          6           0        2.748662    0.927142   -0.222517
     20          6           0        1.553584    0.522784   -0.824870
     21          1           0        0.416338   -1.123600   -1.632590
     22          1           0        2.185491   -2.807982   -1.165269
     23          1           0        4.332469   -2.096856   -0.085978
     24          1           0        2.934260    1.958695    0.051110
     25          1           0        0.782721    1.260796   -1.027734
     26          7           0        4.990159    0.375668    0.663765
     27          8           0        5.120170    1.565683    0.942328
     28          8           0        5.831002   -0.496108    0.872635
 ---------------------------------------------------------------------

 SCF Done:  E(RHF) =  -868.337924663     A.U. after   16 cycles
 E2 =    -0.2600216281D+01 EUMP2 =    -0.87093814094381D+03

 The electronic state is 1-A.
 Alpha  occ. eigenvalues --  -20.61797 -20.61734 -20.60678 -20.60665 -15.86803
 Alpha  occ. eigenvalues --  -15.85723 -11.32105 -11.31116 -11.28779 -11.28593
 Alpha  occ. eigenvalues --  -11.28343 -11.27719 -11.27702 -11.27583 -11.27582
 Alpha  occ. eigenvalues --  -11.27530 -11.26811 -11.26554  -1.60821  -1.59748
 Alpha  occ. eigenvalues --   -1.40383  -1.39300  -1.20260  -1.19283  -1.09653
 Alpha  occ. eigenvalues --   -1.08704  -1.05672  -1.04663  -0.96509  -0.95537
 Alpha  occ. eigenvalues --   -0.87066  -0.86074  -0.83359  -0.82344  -0.78432
 Alpha  occ. eigenvalues --   -0.77359  -0.73025  -0.72130  -0.71944  -0.71405
 Alpha  occ. eigenvalues --   -0.71069  -0.70466  -0.65922  -0.65680  -0.64939
 Alpha  occ. eigenvalues --   -0.64646  -0.63038  -0.61980  -0.56151  -0.55286
 Alpha  occ. eigenvalues --   -0.53965  -0.53758  -0.53018  -0.52737  -0.49790
 Alpha  occ. eigenvalues --   -0.49758  -0.48703  -0.48696  -0.45795  -0.44699
 Alpha  occ. eigenvalues --   -0.38200  -0.37413  -0.37157  -0.36251
 Alpha virt. eigenvalues --    0.04081   0.05138   0.10367   0.11400   0.15572
 Alpha virt. eigenvalues --    0.16613   0.18362   0.22120   0.25002   0.26545
 Alpha virt. eigenvalues --    0.27671   0.29500   0.30502   0.31101   0.32392

 Mulliken charges:
               1
     1  C   -0.169658
     2  C   -0.217732
     3  C   -0.169336
     4  C    0.160513
     5  C   -0.173699
     6  C   -0.217066
     7  H    0.228659
     8  H    0.227217
     9  H    0.278465
    10  H    0.268023
    11  H    0.220084
    12  N    0.489509
    13  O   -0.468491
    14  O   -0.453521
    15  C   -0.171983
    16  C   -0.218270
    17  C   -0.171892
    18  C    0.159224
    19  C   -0.171476
    20  C   -0.225503
    21  H    0.213591
    22  H    0.219392
    23  H    0.274676
    24  H    0.278748
    25  H    0.242844
    26  N    0.487858
    27  O   -0.458735
    28  O   -0.461440
 Sum of Mulliken charges =  -0.00000

 Dipole moment (field-independent basis, Debye):
    X=             -5.6488    Y=             -6.3281    Z=             -0.9421  Tot=              8.5347
 Quadrupole moment (field-independent basis, Debye-Ang):
   XX=           -128.8271   YY=           -103.7042   ZZ=           -103.9142
   XY=              9.5698   XZ=            -15.6747   YZ=              1.3156

 Normal termination of Gaussian 16 at Thu May  6 17:52:55 2021.
