 Gaussian 16, Revision A.03,
 Gaussian 16:  EM64L-G16RevA.03 25-Dec-2016

 -------------
 #p 6-31g* mp2
 -------------

 ------------------------------------------------------
 Input file generated by CHIRIPA (05-May-2021 14:57:25)
 ------------------------------------------------------
 Symbolic Z-matrix:
 Charge =  0 Multiplicity = 1

                         Standard orientation:
 ---------------------------------------------------------------------
 Center     Atomic      Atomic             Coordinates (Angstroms)
 Number     Number       Type             X           Y           Z
 ---------------------------------------------------------------------
      1          6           0        2.469869    2.318354   -0.288771
      2          6           0        3.768774    2.394633    0.224599
      3          6           0        4.557259    1.245427    0.334900
      4          6           0        4.012662    0.030936   -0.079487
      5          6           0        2.722039   -0.077460   -0.595074
      6          6           0        1.951561    1.084726   -0.696251
      7          1           0        1.864349    3.216126   -0.370911
      8          1           0        4.173907    3.351333    0.541831
      9          1           0        5.565922    1.275893    0.728712
     10          1           0        2.345658   -1.045379   -0.903116
     11          1           0        0.943139    1.022490   -1.095320
     12          7           0        4.837864   -1.192547    0.032454
     13          8           0        4.334877   -2.250499   -0.339537
     14          8           0        5.972020   -1.070393    0.490065
     15          6           0       -6.305112    0.363076   -0.239305
     16          6           0       -5.766267    0.325354    1.050944
     17          6           0       -4.422034   -0.003426    1.249663
     18          6           0       -3.641886   -0.290167    0.130539
     19          6           0       -4.149556   -0.261028   -1.167425
     20          6           0       -5.496463    0.070280   -1.342427
     21          1           0       -7.350384    0.619461   -0.384463
     22          1           0       -6.391915    0.552281    1.909498
     23          1           0       -3.979118   -0.040080    2.237540
     24          1           0       -3.501001   -0.492093   -2.003728
     25          1           0       -5.912237    0.098794   -2.345604
     26          7           0       -2.217390   -0.639569    0.328360
     27          8           0       -1.551084   -0.888092   -0.674091
     28          8           0       -1.794153   -0.658294    1.482117
 ---------------------------------------------------------------------

 SCF Done:  E(RHF) =  -868.339572526     A.U. after   16 cycles
 E2 =    -0.2598508411D+01 EUMP2 =    -0.87093808093673D+03

 The electronic state is 1-A.
 Alpha  occ. eigenvalues --  -20.61620 -20.61570 -20.59829 -20.59809 -15.86620
 Alpha  occ. eigenvalues --  -15.84867 -11.31795 -11.30087 -11.28348 -11.28323
 Alpha  occ. eigenvalues --  -11.28036 -11.27307 -11.27292 -11.26711 -11.26512
 Alpha  occ. eigenvalues --  -11.26410 -11.25747 -11.25484  -1.60657  -1.58899
 Alpha  occ. eigenvalues --   -1.40216  -1.38455  -1.19947  -1.18249  -1.09376
 Alpha  occ. eigenvalues --   -1.07693  -1.05318  -1.03604  -0.96242  -0.94547
 Alpha  occ. eigenvalues --   -0.86725  -0.85032  -0.83080  -0.81360  -0.78151
 Alpha  occ. eigenvalues --   -0.76413  -0.72842  -0.71967  -0.71093  -0.71047
 Alpha  occ. eigenvalues --   -0.70217  -0.69398  -0.65600  -0.65314  -0.63901
 Alpha  occ. eigenvalues --   -0.63605  -0.62666  -0.60937  -0.55820  -0.54188
 Alpha  occ. eigenvalues --   -0.53661  -0.53404  -0.51977  -0.51690  -0.49612
 Alpha  occ. eigenvalues --   -0.49574  -0.47853  -0.47836  -0.45653  -0.43892
 Alpha  occ. eigenvalues --   -0.37915  -0.36914  -0.36271  -0.35190
 Alpha virt. eigenvalues --    0.04339   0.06084   0.10743   0.12439   0.15860
 Alpha virt. eigenvalues --    0.17599   0.20914   0.22551   0.26845   0.27734
 Alpha virt. eigenvalues --    0.28585   0.29340   0.30509   0.31893   0.32208

 Mulliken charges:
               1
     1  C   -0.171925
     2  C   -0.218820
     3  C   -0.172812
     4  C    0.157494
     5  C   -0.168893
     6  C   -0.218661
     7  H    0.220381
     8  H    0.218540
     9  H    0.271825
    10  H    0.282038
    11  H    0.234140
    12  N    0.488115
    13  O   -0.459732
    14  O   -0.464673
    15  C   -0.170072
    16  C   -0.218569
    17  C   -0.170694
    18  C    0.157356
    19  C   -0.171431
    20  C   -0.218519
    21  H    0.227632
    22  H    0.225436
    23  H    0.276927
    24  H    0.274876
    25  H    0.225080
    26  N    0.488344
    27  O   -0.468681
    28  O   -0.454701
 Sum of Mulliken charges =  -0.00000

 Dipole moment (field-independent basis, Debye):
    X=             -8.4468    Y=              5.4135    Z=             -1.0654  Tot=             10.0891
 Quadrupole moment (field-independent basis, Debye-Ang):
   XX=            -89.9832   YY=           -105.4931   ZZ=            -99.9330
   XY=             15.9273   XZ=              1.3229   YZ=              1.7820

 Normal termination of Gaussian 16 at Fri May  7 09:37:13 2021.
