 Gaussian 16, Revision A.03,
 Gaussian 16:  EM64L-G16RevA.03 25-Dec-2016

 -------------
 #p 6-31g* mp2
 -------------

 ------------------------------------------------------
 Input file generated by CHIRIPA (05-May-2021 14:51:08)
 ------------------------------------------------------
 Symbolic Z-matrix:
 Charge =  0 Multiplicity = 1

                         Standard orientation:
 ---------------------------------------------------------------------
 Center     Atomic      Atomic             Coordinates (Angstroms)
 Number     Number       Type             X           Y           Z
 ---------------------------------------------------------------------
      1          6           0       -3.554892    0.675948   -0.623222
      2          6           0       -2.051191    0.592411   -0.887588
      3          6           0       -1.467476    1.908468   -1.402431
      4          1           0       -4.067883    0.968745   -1.549535
      5          1           0       -3.747994    1.474225    0.106751
      6          1           0       -1.860852   -0.206394   -1.615804
      7          1           0       -1.541739    0.299592    0.039414
      8          1           0       -1.628220    2.711543   -0.675910
      9          1           0       -1.949146    2.202682   -2.340532
     10          1           0       -0.391436    1.826299   -1.584765
     11          6           0       -4.153012   -0.631960   -0.108093
     12          6           0       -5.656713   -0.548422    0.156273
     13          6           0       -6.240427   -1.864480    0.671116
     14          1           0       -3.959910   -1.430237   -0.838066
     15          1           0       -3.640020   -0.924756    0.818220
     16          1           0       -6.166165   -0.255604   -0.770729
     17          1           0       -5.847052    0.250382    0.884488
     18          1           0       -5.758757   -2.158694    1.609217
     19          1           0       -6.079684   -2.667555   -0.055405
     20          1           0       -7.316468   -1.782310    0.853450
     21          6           0        3.237285    0.424254    0.302274
     22          6           0        2.510318    0.646006    1.629048
     23          6           0        1.278774    1.540784    1.485985
     24          1           0        3.535224    1.397024   -0.112327
     25          1           0        2.539931   -0.022856   -0.419657
     26          1           0        3.209219    1.091287    2.348684
     27          1           0        2.214242   -0.327418    2.040633
     28          1           0        0.560060    1.098357    0.788627
     29          1           0        1.560689    2.525123    1.098428
     30          1           0        0.774323    1.686040    2.446345
     31          6           0        4.470619   -0.468242    0.429041
     32          6           0        5.197586   -0.689994   -0.897733
     33          6           0        6.429130   -1.584772   -0.754670
     34          1           0        5.167973   -0.021132    1.150972
     35          1           0        4.172679   -1.441012    0.843642
     36          1           0        5.493661    0.283430   -1.309318
     37          1           0        4.498685   -1.135276   -1.617369
     38          1           0        6.147215   -2.569112   -0.367113
     39          1           0        7.147844   -1.142344   -0.057312
     40          1           0        6.933581   -1.730029   -1.715029
 ---------------------------------------------------------------------

 SCF Done:  E(RHF) =  -470.732937833     A.U. after   11 cycles
 E2 =    -0.1582988456D+01 EUMP2 =    -0.47231592628957D+03

 The electronic state is 1-A.
 Alpha  occ. eigenvalues --  -11.21601 -11.21599 -11.21599 -11.21584 -11.21404
 Alpha  occ. eigenvalues --  -11.21404 -11.21345 -11.21344 -11.21073 -11.21069
 Alpha  occ. eigenvalues --  -11.21025 -11.20998  -1.08441  -1.08413  -1.03567
 Alpha  occ. eigenvalues --   -1.03481  -0.96031  -0.95911  -0.87025  -0.86946
 Alpha  occ. eigenvalues --   -0.79610  -0.79569  -0.78267  -0.78219  -0.65128
 Alpha  occ. eigenvalues --   -0.65003  -0.61113  -0.60775  -0.59422  -0.59277
 Alpha  occ. eigenvalues --   -0.57727  -0.57446  -0.55395  -0.55105  -0.52704
 Alpha  occ. eigenvalues --   -0.52659  -0.52442  -0.52279  -0.49952  -0.49869
 Alpha  occ. eigenvalues --   -0.47915  -0.47880  -0.46771  -0.46475  -0.45830
 Alpha  occ. eigenvalues --   -0.45756  -0.45737  -0.45588  -0.43786  -0.43768
 Alpha virt. eigenvalues --    0.21560   0.23050   0.23489   0.24986   0.26359
 Alpha virt. eigenvalues --    0.26649   0.27087   0.27528   0.27774   0.29213
 Alpha virt. eigenvalues --    0.30657   0.31019   0.31549   0.31860   0.32097

 Mulliken charges:
               1
     1  C   -0.297598
     2  C   -0.305440
     3  C   -0.477072
     4  H    0.149713
     5  H    0.149890
     6  H    0.151564
     7  H    0.155348
     8  H    0.156579
     9  H    0.155275
    10  H    0.161369
    11  C   -0.298469
    12  C   -0.299665
    13  C   -0.475714
    14  H    0.149377
    15  H    0.149726
    16  H    0.151962
    17  H    0.152024
    18  H    0.155165
    19  H    0.155128
    20  H    0.160276
    21  C   -0.298654
    22  C   -0.299238
    23  C   -0.485162
    24  H    0.149637
    25  H    0.149379
    26  H    0.151750
    27  H    0.151539
    28  H    0.166710
    29  H    0.155354
    30  H    0.159109
    31  C   -0.298239
    32  C   -0.299683
    33  C   -0.475709
    34  H    0.149599
    35  H    0.149683
    36  H    0.151943
    37  H    0.151924
    38  H    0.155185
    39  H    0.155186
    40  H    0.160248
 Sum of Mulliken charges =  -0.00000

 Dipole moment (field-independent basis, Debye):
    X=             -0.0124    Y=              0.0096    Z=             -0.0063  Tot=              0.0169
 Quadrupole moment (field-independent basis, Debye-Ang):
   XX=            -85.6221   YY=            -85.1748   ZZ=            -84.0312
   XY=              0.5850   XZ=              0.5120   YZ=              0.7138

 Normal termination of Gaussian 16 at Thu May  6 10:00:49 2021.
