 Gaussian 16, Revision A.03,
 Gaussian 16:  EM64L-G16RevA.03 25-Dec-2016

 -------------
 #p 6-31g* mp2
 -------------

 ------------------------------------------------------
 Input file generated by CHIRIPA (05-May-2021 14:55:19)
 ------------------------------------------------------
 Symbolic Z-matrix:
 Charge =  0 Multiplicity = 1

                         Standard orientation:
 ---------------------------------------------------------------------
 Center     Atomic      Atomic             Coordinates (Angstroms)
 Number     Number       Type             X           Y           Z
 ---------------------------------------------------------------------
      1          6           0       -1.110767   -2.669578    0.177087
      2          6           0       -0.477681   -1.522740   -0.313307
      3          6           0       -1.190296   -0.330103   -0.469337
      4          6           0       -2.540725   -0.319878   -0.123610
      5          6           0       -3.199689   -1.445865    0.367521
      6          6           0       -2.467358   -2.627554    0.515340
      7          1           0       -0.549533   -3.591795    0.295105
      8          1           0        0.575756   -1.552449   -0.576805
      9          1           0       -0.725070    0.572420   -0.846743
     10          1           0       -4.250955   -1.385410    0.621693
     11          1           0       -2.961629   -3.516665    0.896421
     12          7           0       -3.305574    0.936919   -0.284445
     13          8           0       -4.494335    0.919890    0.027314
     14          8           0       -2.701819    1.915227   -0.719221
     15          6           0        2.787158    1.339652   -0.096896
     16          6           0        1.707836    1.859349    0.853349
     17          6           0        1.109964    3.190677    0.397378
     18          1           0        3.584103    2.090990   -0.182419
     19          1           0        2.356961    1.224579   -1.101428
     20          1           0        2.139579    1.972092    1.856097
     21          1           0        0.913460    1.106605    0.936769
     22          1           0        0.653559    3.089099   -0.592559
     23          1           0        1.886644    3.959504    0.331992
     24          1           0        0.340578    3.543813    1.091064
     25          6           0        3.394393    0.009502    0.345477
     26          6           0        4.473715   -0.510195   -0.604768
     27          6           0        5.071586   -1.841524   -0.148797
     28          1           0        3.824590    0.124575    1.350009
     29          1           0        2.597448   -0.741836    0.431000
     30          1           0        5.268091    0.242549   -0.688188
     31          1           0        4.041973   -0.622939   -1.607515
     32          1           0        4.294908   -2.610350   -0.083410
     33          1           0        5.527993   -1.739945    0.841140
     34          1           0        5.840973   -2.194659   -0.842482
 ---------------------------------------------------------------------

 SCF Done:  E(RHF) =  -669.534574438     A.U. after   15 cycles
 E2 =    -0.2093916704D+01 EUMP2 =    -0.67162849114247D+03

 The electronic state is 1-A.
 Alpha  occ. eigenvalues --  -20.60801 -20.60794 -15.85851 -11.31227 -11.27806
 Alpha  occ. eigenvalues --  -11.27786 -11.27544 -11.26816 -11.26795 -11.22267
 Alpha  occ. eigenvalues --  -11.22109 -11.21936 -11.21829 -11.21740 -11.20980
 Alpha  occ. eigenvalues --   -1.59873  -1.39426  -1.19411  -1.09011  -1.08796
 Alpha  occ. eigenvalues --   -1.04824  -1.03968  -0.96409  -0.95630  -0.87410
 Alpha  occ. eigenvalues --   -0.86212  -0.82471  -0.80041  -0.78812  -0.77511
 Alpha  occ. eigenvalues --   -0.72071  -0.71196  -0.70530  -0.65764  -0.65052
 Alpha  occ. eigenvalues --   -0.64838  -0.62202  -0.61279  -0.59784  -0.58001
 Alpha  occ. eigenvalues --   -0.55746  -0.55307  -0.53165  -0.53022  -0.52941
 Alpha  occ. eigenvalues --   -0.52741  -0.50365  -0.48831  -0.48822  -0.48325
 Alpha  occ. eigenvalues --   -0.47102  -0.46315  -0.46277  -0.44826  -0.44236
 Alpha  occ. eigenvalues --   -0.37385  -0.36361
 Alpha virt. eigenvalues --    0.04978   0.11150   0.16349   0.18705   0.22682
 Alpha virt. eigenvalues --    0.23300   0.25510   0.26480   0.27251   0.28528
 Alpha virt. eigenvalues --    0.29708   0.30923   0.31374   0.31630   0.32594

 Mulliken charges:
               1
     1  C   -0.171483
     2  C   -0.223099
     3  C   -0.174184
     4  C    0.156574
     5  C   -0.170497
     6  C   -0.218517
     7  H    0.226023
     8  H    0.230185
     9  H    0.281928
    10  H    0.275834
    11  H    0.223720
    12  N    0.488122
    13  O   -0.460229
    14  O   -0.460683
    15  C   -0.299932
    16  C   -0.309230
    17  C   -0.476855
    18  H    0.154708
    19  H    0.143856
    20  H    0.154339
    21  H    0.151450
    22  H    0.159643
    23  H    0.154711
    24  H    0.168812
    25  C   -0.301613
    26  C   -0.300625
    27  C   -0.474639
    28  H    0.154311
    29  H    0.141210
    30  H    0.156213
    31  H    0.150053
    32  H    0.149287
    33  H    0.157722
    34  H    0.162884
 Sum of Mulliken charges =  -0.00000

 Dipole moment (field-independent basis, Debye):
    X=              2.7128    Y=             -4.2957    Z=              0.6161  Tot=              5.1178
 Quadrupole moment (field-independent basis, Debye-Ang):
   XX=           -104.5003   YY=            -91.5443   ZZ=            -94.8449
   XY=             13.6815   XZ=             -3.0558   YZ=             -0.0235

 Normal termination of Gaussian 16 at Thu May  6 01:18:33 2021.
