 Gaussian 16, Revision A.03,
 Gaussian 16:  EM64L-G16RevA.03 25-Dec-2016

 -------------
 #p 6-31g* mp2
 -------------

 ------------------------------------------------------
 Input file generated by CHIRIPA (05-May-2021 14:57:25)
 ------------------------------------------------------
 Symbolic Z-matrix:
 Charge =  0 Multiplicity = 1

                         Standard orientation:
 ---------------------------------------------------------------------
 Center     Atomic      Atomic             Coordinates (Angstroms)
 Number     Number       Type             X           Y           Z
 ---------------------------------------------------------------------
      1          6           0       -2.499204    1.831235    0.962439
      2          6           0       -2.202646    0.464443    0.941131
      3          6           0       -3.128498   -0.455239    0.439604
      4          6           0       -4.346686    0.028812   -0.034742
      5          6           0       -4.671512    1.384435   -0.026894
      6          6           0       -3.730520    2.286067    0.479211
      7          1           0       -1.774099    2.538656    1.353816
      8          1           0       -1.247185    0.108358    1.315755
      9          1           0       -2.924817   -1.518786    0.411299
     10          1           0       -5.632347    1.709294   -0.407264
     11          1           0       -3.963547    3.346967    0.494521
     12          7           0       -5.334858   -0.935260   -0.568109
     13          8           0       -6.401004   -0.483395   -0.980160
     14          8           0       -5.024530   -2.124511   -0.564012
     15          6           0        6.457806    0.745901   -0.621766
     16          6           0        5.305216    1.480681   -0.918676
     17          6           0        4.040066    0.973233   -0.608127
     18          6           0        3.963983   -0.277960    0.001806
     19          6           0        5.093803   -1.034058    0.310207
     20          6           0        6.348614   -0.506914   -0.009353
     21          1           0        7.436588    1.147749   -0.866509
     22          1           0        5.386990    2.453909   -1.394264
     23          1           0        3.131416    1.520881   -0.826882
     24          1           0        4.980410   -2.001315    0.784522
     25          1           0        7.242016   -1.079775    0.222395
     26          7           0        2.630098   -0.825597    0.335341
     27          8           0        2.589981   -1.930352    0.872504
     28          8           0        1.649975   -0.139712    0.053287
 ---------------------------------------------------------------------

 SCF Done:  E(RHF) =  -868.339912354     A.U. after   16 cycles
 E2 =    -0.2598295521D+01 EUMP2 =    -0.87093820787440D+03

 The electronic state is 1-A.
 Alpha  occ. eigenvalues --  -20.61661 -20.61633 -20.59967 -20.59952 -15.86671
 Alpha  occ. eigenvalues --  -15.85005 -11.31812 -11.30209 -11.28367 -11.28336
 Alpha  occ. eigenvalues --  -11.28047 -11.27320 -11.27298 -11.26797 -11.26626
 Alpha  occ. eigenvalues --  -11.26437 -11.25832 -11.25499  -1.60711  -1.59041
 Alpha  occ. eigenvalues --   -1.40270  -1.38598  -1.19962  -1.18344  -1.09398
 Alpha  occ. eigenvalues --   -1.07776  -1.05330  -1.03694  -0.96271  -0.94644
 Alpha  occ. eigenvalues --   -0.86738  -0.85103  -0.83111  -0.81461  -0.78185
 Alpha  occ. eigenvalues --   -0.76527  -0.72903  -0.72011  -0.71229  -0.71065
 Alpha  occ. eigenvalues --   -0.70360  -0.69473  -0.65617  -0.65330  -0.63986
 Alpha  occ. eigenvalues --   -0.63657  -0.62680  -0.61022  -0.55835  -0.54234
 Alpha  occ. eigenvalues --   -0.53671  -0.53418  -0.52068  -0.51760  -0.49666
 Alpha  occ. eigenvalues --   -0.49634  -0.47993  -0.47968  -0.45721  -0.44039
 Alpha  occ. eigenvalues --   -0.37925  -0.36923  -0.36341  -0.35286
 Alpha virt. eigenvalues --    0.04329   0.05958   0.10735   0.12354   0.15866
 Alpha virt. eigenvalues --    0.17504   0.20900   0.22546   0.26825   0.27750
 Alpha virt. eigenvalues --    0.28620   0.29270   0.30494   0.31937   0.32174

 Mulliken charges:
               1
     1  C   -0.173084
     2  C   -0.219359
     3  C   -0.173189
     4  C    0.157969
     5  C   -0.173610
     6  C   -0.218897
     7  H    0.222462
     8  H    0.244270
     9  H    0.277557
    10  H    0.271716
    11  H    0.218466
    12  N    0.488026
    13  O   -0.464092
    14  O   -0.460712
    15  C   -0.169900
    16  C   -0.218449
    17  C   -0.170867
    18  C    0.157820
    19  C   -0.170277
    20  C   -0.218492
    21  H    0.227695
    22  H    0.224757
    23  H    0.274208
    24  H    0.276852
    25  H    0.225579
    26  N    0.489655
    27  O   -0.457338
    28  O   -0.468766
 Sum of Mulliken charges =  -0.00000

 Dipole moment (field-independent basis, Debye):
    X=              8.7579    Y=              5.1930    Z=              0.7496  Tot=             10.2093
 Quadrupole moment (field-independent basis, Debye-Ang):
   XX=            -96.1729   YY=           -100.1903   ZZ=           -105.6121
   XY=            -12.6704   XZ=            -11.6171   YZ=             -2.5190

 Normal termination of Gaussian 16 at Wed May  5 19:29:49 2021.
