 Gaussian 16, Revision A.03,
 Gaussian 16:  EM64L-G16RevA.03 25-Dec-2016

 -------------
 #p 6-31g* mp2
 -------------

 ------------------------------------------------------
 Input file generated by CHIRIPA (05-May-2021 14:55:22)
 ------------------------------------------------------
 Symbolic Z-matrix:
 Charge =  0 Multiplicity = 1

                         Standard orientation:
 ---------------------------------------------------------------------
 Center     Atomic      Atomic             Coordinates (Angstroms)
 Number     Number       Type             X           Y           Z
 ---------------------------------------------------------------------
      1          6           0        0.498270   -0.827580    0.035687
      2          6           0        0.964528    0.304385    0.712281
      3          6           0        2.328830    0.609204    0.729974
      4          6           0        3.202848   -0.243569    0.057545
      5          6           0        2.769050   -1.378745   -0.625453
      6          6           0        1.400428   -1.664057   -0.629847
      7          1           0       -0.563231   -1.056794    0.027108
      8          1           0        0.266195    0.955796    1.230007
      9          1           0        2.716921    1.479030    1.245925
     10          1           0        3.489376   -2.009226   -1.132446
     11          1           0        1.041170   -2.543838   -1.156121
     12          7           0        4.649460    0.068803    0.069237
     13          8           0        5.399045   -0.698428   -0.530859
     14          8           0        5.006338    1.074958    0.678275
     15          6           0       -3.187522    0.794733   -0.273933
     16          6           0       -3.429302    2.301747   -0.182097
     17          6           0       -2.205913    3.122729   -0.590881
     18          1           0       -2.334519    0.527079    0.364575
     19          1           0       -2.900097    0.538579   -1.303091
     20          1           0       -3.717532    2.554785    0.846257
     21          1           0       -4.281949    2.565817   -0.820750
     22          1           0       -1.919577    2.899250   -1.623678
     23          1           0       -1.351951    2.888155    0.052800
     24          1           0       -2.400802    4.197222   -0.517786
     25          6           0       -4.401415   -0.039399    0.131550
     26          6           0       -4.159636   -1.546414    0.039715
     27          6           0       -5.383023   -2.367395    0.448499
     28          1           0       -4.688841    0.216754    1.160708
     29          1           0       -5.254418    0.228255   -0.506959
     30          1           0       -3.306988   -1.810483    0.678366
     31          1           0       -3.871406   -1.799451   -0.988640
     32          1           0       -6.236986   -2.132822   -0.195182
     33          1           0       -5.669361   -2.143916    1.481295
     34          1           0       -5.188136   -3.441888    0.375402
 ---------------------------------------------------------------------

 SCF Done:  E(RHF) =  -669.535140604     A.U. after   15 cycles
 E2 =    -0.2092431731D+01 EUMP2 =    -0.67162757233550D+03

 The electronic state is 1-A.
 Alpha  occ. eigenvalues --  -20.60698 -20.60693 -15.85753 -11.31098 -11.27682
 Alpha  occ. eigenvalues --  -11.27676 -11.27348 -11.26677 -11.26661 -11.22737
 Alpha  occ. eigenvalues --  -11.22646 -11.22555 -11.22419 -11.21955 -11.21945
 Alpha  occ. eigenvalues --   -1.59775  -1.39329  -1.19272  -1.09530  -1.08661
 Alpha  occ. eigenvalues --   -1.04681  -1.04526  -0.96964  -0.95503  -0.87973
 Alpha  occ. eigenvalues --   -0.86078  -0.82344  -0.80603  -0.79397  -0.77394
 Alpha  occ. eigenvalues --   -0.71971  -0.71098  -0.70380  -0.66176  -0.64921
 Alpha  occ. eigenvalues --   -0.64681  -0.62097  -0.61856  -0.60327  -0.58596
 Alpha  occ. eigenvalues --   -0.56269  -0.55169  -0.53614  -0.53372  -0.53003
 Alpha  occ. eigenvalues --   -0.52773  -0.50902  -0.48913  -0.48727  -0.48724
 Alpha  occ. eigenvalues --   -0.47638  -0.46871  -0.46806  -0.44807  -0.44739
 Alpha  occ. eigenvalues --   -0.37229  -0.36284
 Alpha virt. eigenvalues --    0.05143   0.11302   0.16597   0.18959   0.22184
 Alpha virt. eigenvalues --    0.22665   0.24963   0.25315   0.26335   0.27970
 Alpha virt. eigenvalues --    0.29378   0.30600   0.31019   0.31244   0.31966

 Mulliken charges:
               1
     1  C   -0.175613
     2  C   -0.222098
     3  C   -0.171000
     4  C    0.157970
     5  C   -0.170528
     6  C   -0.220211
     7  H    0.234496
     8  H    0.224365
     9  H    0.275273
    10  H    0.275216
    11  H    0.223352
    12  N    0.488090
    13  O   -0.460722
    14  O   -0.460701
    15  C   -0.302827
    16  C   -0.300858
    17  C   -0.476459
    18  H    0.140183
    19  H    0.152186
    20  H    0.153614
    21  H    0.156496
    22  H    0.159159
    23  H    0.149363
    24  H    0.165020
    25  C   -0.298150
    26  C   -0.303250
    27  C   -0.475930
    28  H    0.152274
    29  H    0.154451
    30  H    0.146609
    31  H    0.151910
    32  H    0.158408
    33  H    0.157713
    34  H    0.162201
 Sum of Mulliken charges =  -0.00000

 Dipole moment (field-independent basis, Debye):
    X=             -5.4058    Y=             -1.0368    Z=             -0.1126  Tot=              5.5055
 Quadrupole moment (field-independent basis, Debye-Ang):
   XX=           -127.2054   YY=            -91.2981   ZZ=            -92.9140
   XY=             -3.8288   XZ=             -0.3529   YZ=              2.6376

 Normal termination of Gaussian 16 at Thu May  6 09:25:04 2021.
