 Gaussian 16, Revision A.03,
 Gaussian 16:  EM64L-G16RevA.03 25-Dec-2016

 -------------
 #p 6-31g* mp2
 -------------

 ------------------------------------------------------
 Input file generated by CHIRIPA (05-May-2021 14:55:24)
 ------------------------------------------------------
 Symbolic Z-matrix:
 Charge =  0 Multiplicity = 1

                         Standard orientation:
 ---------------------------------------------------------------------
 Center     Atomic      Atomic             Coordinates (Angstroms)
 Number     Number       Type             X           Y           Z
 ---------------------------------------------------------------------
      1          6           0        3.364536    2.428556    0.113557
      2          6           0        3.295428    1.911057   -1.184110
      3          6           0        2.984379    0.564603   -1.395911
      4          6           0        2.747182   -0.239508   -0.282165
      5          6           0        2.808510    0.246539    1.022936
      6          6           0        3.121285    1.596113    1.211003
      7          1           0        3.606837    3.475726    0.268870
      8          1           0        3.483863    2.555205   -2.038282
      9          1           0        2.924237    0.137899   -2.389754
     10          1           0        2.615641   -0.420209    1.854600
     11          1           0        3.174259    1.995277    2.219917
     12          7           0        2.416974   -1.666590   -0.493826
     13          8           0        2.212249   -2.354220    0.504117
     14          8           0        2.369135   -2.070485   -1.653661
     15          6           0       -4.026008   -0.024469   -0.307158
     16          6           0       -5.403871    0.607904   -0.108212
     17          6           0       -6.272399    0.540174   -1.364741
     18          1           0       -3.513526    0.481849   -1.136587
     19          1           0       -4.151871   -1.072930   -0.610941
     20          1           0       -5.275430    1.654471    0.196447
     21          1           0       -5.913055    0.100149    0.720964
     22          1           0       -6.430034   -0.499772   -1.668493
     23          1           0       -5.788787    1.063382   -2.195990
     24          1           0       -7.252850    0.997897   -1.200230
     25          6           0       -3.146098    0.035497    0.940196
     26          6           0       -1.768234   -0.596876    0.741249
     27          6           0       -0.899707   -0.529145    1.997778
     28          1           0       -3.020235    1.083957    1.243979
     29          1           0       -3.658580   -0.470820    1.769624
     30          1           0       -1.259051   -0.089121   -0.087927
     31          1           0       -1.896676   -1.643443    0.436590
     32          1           0       -1.383319   -1.052353    2.829027
     33          1           0       -0.742072    0.510800    2.301530
     34          1           0        0.080744   -0.986869    1.833267
 ---------------------------------------------------------------------

 SCF Done:  E(RHF) =  -669.535926964     A.U. after   15 cycles
 E2 =    -0.2092320710D+01 EUMP2 =    -0.67162824767445D+03

 The electronic state is 1-A.
 Alpha  occ. eigenvalues --  -20.60923 -20.60917 -15.85940 -11.31247 -11.27816
 Alpha  occ. eigenvalues --  -11.27807 -11.27551 -11.26815 -11.26801 -11.21441
 Alpha  occ. eigenvalues --  -11.21246 -11.21168 -11.21106 -11.20929 -11.20689
 Alpha  occ. eigenvalues --   -1.59974  -1.39533  -1.19419  -1.08825  -1.08185
 Alpha  occ. eigenvalues --   -1.04813  -1.03276  -0.95757  -0.95650  -0.86769
 Alpha  occ. eigenvalues --   -0.86211  -0.82503  -0.79349  -0.77995  -0.77560
 Alpha  occ. eigenvalues --   -0.72167  -0.71288  -0.70535  -0.65076  -0.64830
 Alpha  occ. eigenvalues --   -0.64811  -0.62182  -0.60678  -0.59091  -0.57335
 Alpha  occ. eigenvalues --   -0.55324  -0.55038  -0.53154  -0.52942  -0.52370
 Alpha  occ. eigenvalues --   -0.52157  -0.49689  -0.48932  -0.48918  -0.47657
 Alpha  occ. eigenvalues --   -0.46381  -0.45542  -0.45462  -0.44928  -0.43494
 Alpha  occ. eigenvalues --   -0.37393  -0.36391
 Alpha virt. eigenvalues --    0.04946   0.11186   0.16427   0.21257   0.23089
 Alpha virt. eigenvalues --    0.24480   0.26824   0.26928   0.27646   0.27867
 Alpha virt. eigenvalues --    0.28702   0.30220   0.31590   0.31666   0.32088

 Mulliken charges:
               1
     1  C   -0.170567
     2  C   -0.218759
     3  C   -0.171031
     4  C    0.159237
     5  C   -0.168847
     6  C   -0.219549
     7  H    0.225807
     8  H    0.223559
     9  H    0.275675
    10  H    0.276195
    11  H    0.224027
    12  N    0.488781
    13  O   -0.460268
    14  O   -0.458475
    15  C   -0.298143
    16  C   -0.299371
    17  C   -0.475533
    18  H    0.148639
    19  H    0.151737
    20  H    0.150214
    21  H    0.151962
    22  H    0.156142
    23  H    0.154469
    24  H    0.159365
    25  C   -0.297895
    26  C   -0.299026
    27  C   -0.486355
    28  H    0.146282
    29  H    0.149664
    30  H    0.148382
    31  H    0.159554
    32  H    0.155104
    33  H    0.146559
    34  H    0.172462
 Sum of Mulliken charges =  -0.00000

 Dipole moment (field-independent basis, Debye):
    X=              1.2749    Y=              4.9309    Z=              0.6873  Tot=              5.1393
 Quadrupole moment (field-independent basis, Debye-Ang):
   XX=            -89.7053   YY=            -96.7617   ZZ=            -91.0189
   XY=             14.4016   XZ=              0.6678   YZ=             -2.6442

 Normal termination of Gaussian 16 at Wed May  5 19:07:35 2021.
