 Gaussian 16, Revision A.03,
 Gaussian 16:  EM64L-G16RevA.03 25-Dec-2016

 -------------
 #p 6-31g* mp2
 -------------

 ------------------------------------------------------
 Input file generated by CHIRIPA (05-May-2021 14:55:20)
 ------------------------------------------------------
 Symbolic Z-matrix:
 Charge =  0 Multiplicity = 1

                         Standard orientation:
 ---------------------------------------------------------------------
 Center     Atomic      Atomic             Coordinates (Angstroms)
 Number     Number       Type             X           Y           Z
 ---------------------------------------------------------------------
      1          6           0       -2.212343    2.278178   -0.502215
      2          6           0       -3.591161    2.159501   -0.705433
      3          6           0       -4.227504    0.923984   -0.553399
      4          6           0       -3.450931   -0.177080   -0.195794
      5          6           0       -2.075431   -0.090889    0.013639
      6          6           0       -1.460205    1.154585   -0.143959
      7          1           0       -1.726219    3.241825   -0.622480
      8          1           0       -4.177797    3.030397   -0.983721
      9          1           0       -5.293395    0.803828   -0.704581
     10          1           0       -1.517150   -0.976972    0.290401
     11          1           0       -0.389235    1.243787    0.014507
     12          7           0       -4.113421   -1.490338   -0.031898
     13          8           0       -3.406880   -2.445239    0.283700
     14          8           0       -5.326676   -1.539902   -0.222136
     15          6           0        4.696176   -0.532009   -0.134474
     16          6           0        5.977394    0.097590   -0.682263
     17          6           0        6.804404   -0.878348   -1.519755
     18          1           0        4.957072   -1.409191    0.473335
     19          1           0        4.090083   -0.901877   -0.973070
     20          1           0        6.580247    0.467399    0.157037
     21          1           0        5.713430    0.973488   -1.288681
     22          1           0        6.224615   -1.238712   -2.375665
     23          1           0        7.096358   -1.747677   -0.921732
     24          1           0        7.715763   -0.407547   -1.901374
     25          6           0        3.858689    0.431247    0.704860
     26          6           0        2.577472   -0.198352    1.252648
     27          6           0        1.750461    0.777586    2.090140
     28          1           0        4.464783    0.801115    1.543455
     29          1           0        3.597794    1.308428    0.097051
     30          1           0        2.841436   -1.074250    1.859067
     31          1           0        1.974619   -0.568161    0.413348
     32          1           0        1.458508    1.646915    1.492117
     33          1           0        2.330251    1.137951    2.946050
     34          1           0        0.839103    0.306785    2.471759
 ---------------------------------------------------------------------

 SCF Done:  E(RHF) =  -669.535295099     A.U. after   15 cycles
 E2 =    -0.2091391336D+01 EUMP2 =    -0.67162668643569D+03

 The electronic state is 1-A.
 Alpha  occ. eigenvalues --  -20.60727 -20.60722 -15.85779 -11.31136 -11.27701
 Alpha  occ. eigenvalues --  -11.27686 -11.27433 -11.26722 -11.26650 -11.22465
 Alpha  occ. eigenvalues --  -11.22082 -11.22076 -11.22028 -11.21881 -11.21398
 Alpha  occ. eigenvalues --   -1.59803  -1.39357  -1.19302  -1.09070  -1.08700
 Alpha  occ. eigenvalues --   -1.04706  -1.04185  -0.96639  -0.95538  -0.87655
 Alpha  occ. eigenvalues --   -0.86099  -0.82369  -0.80253  -0.78840  -0.77421
 Alpha  occ. eigenvalues --   -0.71998  -0.71126  -0.70416  -0.65753  -0.64953
 Alpha  occ. eigenvalues --   -0.64713  -0.62193  -0.61455  -0.60004  -0.58224
 Alpha  occ. eigenvalues --   -0.55969  -0.55184  -0.53349  -0.53072  -0.53008
 Alpha  occ. eigenvalues --   -0.52753  -0.50555  -0.48756  -0.48754  -0.48554
 Alpha  occ. eigenvalues --   -0.47298  -0.46386  -0.46296  -0.44764  -0.44416
 Alpha  occ. eigenvalues --   -0.37285  -0.36297
 Alpha virt. eigenvalues --    0.05103   0.11334   0.16573   0.19227   0.22714
 Alpha virt. eigenvalues --    0.23760   0.25796   0.26092   0.26948   0.27969
 Alpha virt. eigenvalues --    0.29287   0.29837   0.31123   0.31249   0.32001

 Mulliken charges:
               1
     1  C   -0.172715
     2  C   -0.218313
     3  C   -0.171377
     4  C    0.158998
     5  C   -0.174812
     6  C   -0.223105
     7  H    0.225253
     8  H    0.223131
     9  H    0.275358
    10  H    0.275606
    11  H    0.234570
    12  N    0.488070
    13  O   -0.460571
    14  O   -0.460640
    15  C   -0.298971
    16  C   -0.300039
    17  C   -0.476118
    18  H    0.152119
    19  H    0.150200
    20  H    0.152725
    21  H    0.151331
    22  H    0.155954
    23  H    0.156470
    24  H    0.161343
    25  C   -0.297821
    26  C   -0.303357
    27  C   -0.481331
    28  H    0.152210
    29  H    0.146625
    30  H    0.158836
    31  H    0.147593
    32  H    0.145823
    33  H    0.162918
    34  H    0.164035
 Sum of Mulliken charges =  -0.00000

 Dipole moment (field-independent basis, Debye):
    X=              2.5474    Y=              4.5830    Z=             -0.5075  Tot=              5.2679
 Quadrupole moment (field-independent basis, Debye-Ang):
   XX=           -106.6414   YY=            -96.3847   ZZ=            -94.5206
   XY=            -18.5461   XZ=              3.7962   YZ=             -2.0401

 Normal termination of Gaussian 16 at Thu May  6 19:04:29 2021.
