 Gaussian 16, Revision A.03,
 Gaussian 16:  EM64L-G16RevA.03 25-Dec-2016

 -------------
 #p 6-31g* mp2
 -------------

 ------------------------------------------------------
 Input file generated by CHIRIPA (05-May-2021 14:51:08)
 ------------------------------------------------------
 Symbolic Z-matrix:
 Charge =  0 Multiplicity = 1

                         Standard orientation:
 ---------------------------------------------------------------------
 Center     Atomic      Atomic             Coordinates (Angstroms)
 Number     Number       Type             X           Y           Z
 ---------------------------------------------------------------------
      1          6           0       -2.424120   -0.121497   -0.566518
      2          6           0       -3.618068   -1.006732   -0.925449
      3          6           0       -3.208935   -2.277217   -1.671285
      4          1           0       -1.886369    0.148319   -1.485739
      5          1           0       -1.720531   -0.698765    0.049209
      6          1           0       -4.319857   -0.427539   -1.539161
      7          1           0       -4.153150   -1.274315   -0.005284
      8          1           0       -2.526587   -2.878748   -1.062054
      9          1           0       -2.694241   -2.027161   -2.604646
     10          1           0       -4.077806   -2.895297   -1.918064
     11          6           0       -2.817059    1.152417    0.179452
     12          6           0       -1.623111    2.037652    0.538383
     13          6           0       -2.032244    3.308138    1.284219
     14          1           0       -3.520647    1.729685   -0.436275
     15          1           0       -3.354810    0.882601    1.098673
     16          1           0       -1.088029    2.305235   -0.381782
     17          1           0       -0.921322    1.458459    1.152095
     18          1           0       -2.546937    3.058081    2.217580
     19          1           0       -2.714592    3.909668    0.674988
     20          1           0       -1.163372    3.926217    1.530998
     21          6           0        2.687380    0.088153   -0.269740
     22          6           0        4.125791    0.354997   -0.714434
     23          6           0        4.243190    1.565701   -1.640829
     24          1           0        2.058384   -0.065152   -1.157325
     25          1           0        2.297035    0.980050    0.239716
     26          1           0        4.513776   -0.537632   -1.221680
     27          1           0        4.751473    0.507495    0.174318
     28          1           0        3.881876    2.470025   -1.140577
     29          1           0        3.642828    1.418960   -2.544507
     30          1           0        5.279831    1.738270   -1.946535
     31          6           0        2.553799   -1.119074    0.656806
     32          6           0        1.115388   -1.385917    1.101501
     33          6           0        0.997988   -2.596622    2.027895
     34          1           0        2.944144   -2.010970    0.147350
     35          1           0        3.182795   -0.965769    1.544390
     36          1           0        0.489704   -1.538414    0.212748
     37          1           0        0.727403   -0.493288    1.608745
     38          1           0        1.598351   -2.449880    2.931573
     39          1           0        1.359302   -3.500945    1.527643
     40          1           0       -0.038653   -2.769190    2.333600
 ---------------------------------------------------------------------

 SCF Done:  E(RHF) =  -470.732816565     A.U. after   11 cycles
 E2 =    -0.1584034568D+01 EUMP2 =    -0.47231685113391D+03

 The electronic state is 1-A.
 Alpha  occ. eigenvalues --  -11.21608 -11.21596 -11.21573 -11.21556 -11.21404
 Alpha  occ. eigenvalues --  -11.21350 -11.21340 -11.21267 -11.21125 -11.21078
 Alpha  occ. eigenvalues --  -11.21070 -11.21056  -1.08458  -1.08374  -1.03551
 Alpha  occ. eigenvalues --   -1.03507  -0.96000  -0.95953  -0.87014  -0.86972
 Alpha  occ. eigenvalues --   -0.79653  -0.79566  -0.78435  -0.78007  -0.65074
 Alpha  occ. eigenvalues --   -0.65033  -0.61036  -0.60828  -0.59376  -0.59323
 Alpha  occ. eigenvalues --   -0.57656  -0.57525  -0.55291  -0.55236  -0.52709
 Alpha  occ. eigenvalues --   -0.52644  -0.52432  -0.52378  -0.49993  -0.49858
 Alpha  occ. eigenvalues --   -0.48048  -0.47922  -0.46829  -0.46445  -0.46217
 Alpha  occ. eigenvalues --   -0.45716  -0.45631  -0.45101  -0.43793  -0.43743
 Alpha virt. eigenvalues --    0.21147   0.23048   0.23353   0.24076   0.25653
 Alpha virt. eigenvalues --    0.26328   0.26679   0.27831   0.27970   0.29856
 Alpha virt. eigenvalues --    0.30162   0.31611   0.31704   0.31853   0.32129

 Mulliken charges:
               1
     1  C   -0.306596
     2  C   -0.299006
     3  C   -0.476157
     4  H    0.148475
     5  H    0.160390
     6  H    0.151711
     7  H    0.151583
     8  H    0.154830
     9  H    0.154846
    10  H    0.160428
    11  C   -0.297600
    12  C   -0.304804
    13  C   -0.475467
    14  H    0.149235
    15  H    0.149033
    16  H    0.152405
    17  H    0.156550
    18  H    0.154916
    19  H    0.155241
    20  H    0.159712
    21  C   -0.298978
    22  C   -0.299690
    23  C   -0.475649
    24  H    0.150021
    25  H    0.150538
    26  H    0.151903
    27  H    0.151845
    28  H    0.155207
    29  H    0.155063
    30  H    0.160220
    31  C   -0.297543
    32  C   -0.308409
    33  C   -0.476200
    34  H    0.149542
    35  H    0.149366
    36  H    0.157003
    37  H    0.155426
    38  H    0.155530
    39  H    0.155605
    40  H    0.159474
 Sum of Mulliken charges =  -0.00000

 Dipole moment (field-independent basis, Debye):
    X=              0.0260    Y=             -0.0120    Z=              0.0017  Tot=              0.0286
 Quadrupole moment (field-independent basis, Debye-Ang):
   XX=            -84.9764   YY=            -85.8941   ZZ=            -84.1150
   XY=             -0.0222   XZ=              0.4215   YZ=              0.0979

 Normal termination of Gaussian 16 at Thu May  6 14:52:48 2021.
