 Gaussian 16, Revision A.03,
 Gaussian 16:  EM64L-G16RevA.03 25-Dec-2016

 -------------
 #p 6-31g* mp2
 -------------

 ------------------------------------------------------
 Input file generated by CHIRIPA (05-May-2021 14:55:22)
 ------------------------------------------------------
 Symbolic Z-matrix:
 Charge =  0 Multiplicity = 1

                         Standard orientation:
 ---------------------------------------------------------------------
 Center     Atomic      Atomic             Coordinates (Angstroms)
 Number     Number       Type             X           Y           Z
 ---------------------------------------------------------------------
      1          6           0       -1.032613    1.781711    0.435677
      2          6           0       -1.308642    0.722084    1.306033
      3          6           0       -2.456994   -0.056698    1.134763
      4          6           0       -3.311389    0.253501    0.077845
      5          6           0       -3.063867    1.302676   -0.806041
      6          6           0       -1.909561    2.068121   -0.615728
      7          1           0       -0.138232    2.381508    0.576120
      8          1           0       -0.629380    0.497357    2.123435
      9          1           0       -2.694945   -0.882813    1.793802
     10          1           0       -3.759827    1.502484   -1.611730
     11          1           0       -1.697736    2.890435   -1.293205
     12          7           0       -4.530250   -0.563901   -0.113550
     13          8           0       -5.267068   -0.270174   -1.052411
     14          8           0       -4.725695   -1.482829    0.678920
     15          6           0        3.256000   -0.543031    0.094570
     16          6           0        2.434200   -1.577106   -0.675702
     17          6           0        0.985018   -1.657672   -0.194897
     18          1           0        3.236441   -0.791660    1.164498
     19          1           0        2.779983    0.442191   -0.006136
     20          1           0        2.912386   -2.559835   -0.574720
     21          1           0        2.455876   -1.326095   -1.743944
     22          1           0        0.486145   -0.690114   -0.311337
     23          1           0        0.945249   -1.930864    0.864530
     24          1           0        0.415707   -2.402978   -0.759047
     25          6           0        4.706894   -0.450810   -0.374607
     26          6           0        5.528694    0.583265    0.395664
     27          6           0        6.977878    0.663832   -0.085141
     28          1           0        5.182911   -1.436031   -0.273902
     29          1           0        4.726454   -0.202180   -1.444535
     30          1           0        5.507018    0.332255    1.463906
     31          1           0        5.050508    1.565994    0.294683
     32          1           0        7.017646    0.937023   -1.144568
     33          1           0        7.476750   -0.303727    0.031299
     34          1           0        7.547187    1.409138    0.479009
 ---------------------------------------------------------------------

 SCF Done:  E(RHF) =  -669.534400242     A.U. after   15 cycles
 E2 =    -0.2092789170D+01 EUMP2 =    -0.67162718941161D+03

 The electronic state is 1-A.
 Alpha  occ. eigenvalues --  -20.60776 -20.60770 -15.85827 -11.31217 -11.27764
 Alpha  occ. eigenvalues --  -11.27734 -11.27499 -11.26823 -11.26766 -11.22116
 Alpha  occ. eigenvalues --  -11.22025 -11.21967 -11.21869 -11.21496 -11.21309
 Alpha  occ. eigenvalues --   -1.59849  -1.39402  -1.19387  -1.08938  -1.08783
 Alpha  occ. eigenvalues --   -1.04790  -1.03966  -0.96419  -0.95610  -0.87441
 Alpha  occ. eigenvalues --   -0.86181  -0.82437  -0.80043  -0.78773  -0.77477
 Alpha  occ. eigenvalues --   -0.72046  -0.71171  -0.70486  -0.65569  -0.65034
 Alpha  occ. eigenvalues --   -0.64789  -0.62128  -0.61376  -0.59785  -0.58060
 Alpha  occ. eigenvalues --   -0.55763  -0.55288  -0.53468  -0.53065  -0.52878
 Alpha  occ. eigenvalues --   -0.52549  -0.50327  -0.48807  -0.48800  -0.48338
 Alpha  occ. eigenvalues --   -0.47071  -0.46301  -0.46240  -0.44802  -0.44241
 Alpha  occ. eigenvalues --   -0.37324  -0.36311
 Alpha virt. eigenvalues --    0.05012   0.11252   0.16432   0.20709   0.22580
 Alpha virt. eigenvalues --    0.23996   0.25572   0.26502   0.27053   0.28283
 Alpha virt. eigenvalues --    0.28646   0.30308   0.31542   0.31626   0.31731

 Mulliken charges:
               1
     1  C   -0.174459
     2  C   -0.215294
     3  C   -0.169357
     4  C    0.159232
     5  C   -0.171655
     6  C   -0.217573
     7  H    0.226282
     8  H    0.225238
     9  H    0.275828
    10  H    0.275631
    11  H    0.223595
    12  N    0.487988
    13  O   -0.460384
    14  O   -0.460060
    15  C   -0.296939
    16  C   -0.299601
    17  C   -0.482214
    18  H    0.147818
    19  H    0.141436
    20  H    0.153519
    21  H    0.152779
    22  H    0.163400
    23  H    0.147854
    24  H    0.164033
    25  C   -0.298298
    26  C   -0.299491
    27  C   -0.475900
    28  H    0.151867
    29  H    0.150616
    30  H    0.151797
    31  H    0.149034
    32  H    0.155802
    33  H    0.156633
    34  H    0.160844
 Sum of Mulliken charges =  -0.00000

 Dipole moment (field-independent basis, Debye):
    X=              4.2868    Y=              2.8605    Z=              0.6515  Tot=              5.1946
 Quadrupole moment (field-independent basis, Debye-Ang):
   XX=           -124.4650   YY=            -91.7995   ZZ=            -91.3778
   XY=             -9.7205   XZ=             -0.4559   YZ=             -2.5685

 Normal termination of Gaussian 16 at Wed May  5 22:17:19 2021.
