 Gaussian 16, Revision A.03,
 Gaussian 16:  EM64L-G16RevA.03 25-Dec-2016

 -------------
 #p 6-31g* mp2
 -------------

 ------------------------------------------------------
 Input file generated by CHIRIPA (05-May-2021 14:55:25)
 ------------------------------------------------------
 Symbolic Z-matrix:
 Charge =  0 Multiplicity = 1

                         Standard orientation:
 ---------------------------------------------------------------------
 Center     Atomic      Atomic             Coordinates (Angstroms)
 Number     Number       Type             X           Y           Z
 ---------------------------------------------------------------------
      1          6           0       -4.803581    0.466034   -1.329215
      2          6           0       -3.554125    1.058202   -1.540683
      3          6           0       -2.462000    0.718003   -0.736895
      4          6           0       -2.655835   -0.222336    0.273789
      5          6           0       -3.888225   -0.829809    0.509330
      6          6           0       -4.966356   -0.474423   -0.306686
      7          1           0       -5.646535    0.736208   -1.958366
      8          1           0       -3.424784    1.788882   -2.334044
      9          1           0       -1.483707    1.161014   -0.878679
     10          1           0       -3.986307   -1.554935    1.308073
     11          1           0       -5.935547   -0.935925   -0.140159
     12          7           0       -1.507058   -0.590528    1.131196
     13          8           0       -1.703874   -1.421714    2.014955
     14          8           0       -0.431583   -0.040959    0.903237
     15          6           0        3.668542   -0.538456   -0.004834
     16          6           0        4.259660   -1.387483   -1.130765
     17          6           0        4.306458   -2.876411   -0.786245
     18          1           0        4.261947   -0.686630    0.907776
     19          1           0        2.654138   -0.895683    0.220486
     20          1           0        5.272125   -1.027871   -1.354838
     21          1           0        3.664892   -1.237122   -2.040852
     22          1           0        3.300104   -3.256621   -0.583037
     23          1           0        4.916470   -3.046182    0.106875
     24          1           0        4.732492   -3.464720   -1.604932
     25          6           0        3.615085    0.952288   -0.334308
     26          6           0        3.023968    1.801315    0.791622
     27          6           0        2.977170    3.290244    0.447102
     28          1           0        4.629489    1.309514   -0.559629
     29          1           0        3.021680    1.100462   -1.246920
     30          1           0        3.618735    1.650955    1.701710
     31          1           0        2.011502    1.441703    1.015695
     32          1           0        2.367158    3.460014   -0.446019
     33          1           0        3.983523    3.670454    0.243894
     34          1           0        2.551136    3.878553    1.265789
 ---------------------------------------------------------------------

 SCF Done:  E(RHF) =  -669.536379470     A.U. after   15 cycles
 E2 =    -0.2091239728D+01 EUMP2 =    -0.67162761919799D+03

 The electronic state is 1-A.
 Alpha  occ. eigenvalues --  -20.61045 -20.61030 -15.86076 -11.31355 -11.27916
 Alpha  occ. eigenvalues --  -11.27910 -11.27644 -11.26913 -11.26903 -11.20767
 Alpha  occ. eigenvalues --  -11.20420 -11.20355 -11.20311 -11.20287 -11.20210
 Alpha  occ. eigenvalues --   -1.60098  -1.39656  -1.19520  -1.08931  -1.07409
 Alpha  occ. eigenvalues --   -1.04911  -1.02603  -0.95779  -0.95086  -0.86313
 Alpha  occ. eigenvalues --   -0.86107  -0.82619  -0.78648  -0.77680  -0.77187
 Alpha  occ. eigenvalues --   -0.72303  -0.71408  -0.70629  -0.65181  -0.64913
 Alpha  occ. eigenvalues --   -0.64023  -0.62259  -0.60000  -0.58451  -0.56685
 Alpha  occ. eigenvalues --   -0.55416  -0.54385  -0.53244  -0.53002  -0.51813
 Alpha  occ. eigenvalues --   -0.51510  -0.49085  -0.49061  -0.48999  -0.46977
 Alpha  occ. eigenvalues --   -0.45670  -0.45048  -0.44789  -0.44566  -0.42834
 Alpha  occ. eigenvalues --   -0.37496  -0.36510
 Alpha virt. eigenvalues --    0.04840   0.11145   0.16336   0.21172   0.23731
 Alpha virt. eigenvalues --    0.25047   0.27119   0.27420   0.28190   0.28699
 Alpha virt. eigenvalues --    0.28937   0.30860   0.31944   0.32494   0.32688

 Mulliken charges:
               1
     1  C   -0.170479
     2  C   -0.218498
     3  C   -0.170449
     4  C    0.157252
     5  C   -0.170493
     6  C   -0.218575
     7  H    0.226272
     8  H    0.224150
     9  H    0.275415
    10  H    0.276009
    11  H    0.224050
    12  N    0.496580
    13  O   -0.457913
    14  O   -0.469234
    15  C   -0.304251
    16  C   -0.298503
    17  C   -0.475258
    18  H    0.147558
    19  H    0.167998
    20  H    0.148251
    21  H    0.148044
    22  H    0.157428
    23  H    0.154728
    24  H    0.156029
    25  C   -0.294723
    26  C   -0.311791
    27  C   -0.473994
    28  H    0.143942
    29  H    0.143492
    30  H    0.149154
    31  H    0.179985
    32  H    0.148208
    33  H    0.151467
    34  H    0.158149
 Sum of Mulliken charges =  -0.00000

 Dipole moment (field-independent basis, Debye):
    X=             -4.4102    Y=              1.1798    Z=             -2.8763  Tot=              5.3958
 Quadrupole moment (field-independent basis, Debye-Ang):
   XX=            -72.1353   YY=            -95.7534   ZZ=            -95.6291
   XY=             -0.5139   XZ=              6.2441   YZ=             -0.8751

 Normal termination of Gaussian 16 at Thu May  6 17:45:48 2021.
