 Gaussian 16, Revision A.03,
 Gaussian 16:  EM64L-G16RevA.03 25-Dec-2016

 -------------
 #p 6-31g* mp2
 -------------

 ------------------------------------------------------
 Input file generated by CHIRIPA (05-May-2021 14:51:14)
 ------------------------------------------------------
 Symbolic Z-matrix:
 Charge =  0 Multiplicity = 1

                         Standard orientation:
 ---------------------------------------------------------------------
 Center     Atomic      Atomic             Coordinates (Angstroms)
 Number     Number       Type             X           Y           Z
 ---------------------------------------------------------------------
      1          6           0        2.533186    1.081927   -0.229518
      2          6           0        1.145176    1.417558   -0.776112
      3          6           0        0.650803    2.793720   -0.329383
      4          1           0        2.508559    1.125789    0.867941
      5          1           0        3.244815    1.852369   -0.557238
      6          1           0        0.436652    0.645968   -0.448609
      7          1           0        1.173063    1.372704   -1.872390
      8          1           0        1.335083    3.577868   -0.669196
      9          1           0        0.594488    2.847003    0.762675
     10          1           0       -0.343187    3.013209   -0.731463
     11          6           0        3.041099   -0.290660   -0.667420
     12          6           0        4.429109   -0.626291   -0.120826
     13          6           0        4.923483   -2.002453   -0.567555
     14          1           0        2.329471   -1.061101   -0.339700
     15          1           0        3.065726   -0.334522   -1.764878
     16          1           0        4.401222   -0.581437    0.975453
     17          1           0        5.137633    0.145299   -0.448329
     18          1           0        4.979797   -2.055736   -1.659613
     19          1           0        4.239202   -2.786601   -0.227742
     20          1           0        5.917473   -2.221942   -0.165475
     21          6           0       -3.418701   -0.102917    0.134012
     22          6           0       -4.107938   -1.056638   -0.842386
     23          6           0       -5.369872   -0.456780   -1.463264
     24          1           0       -4.125425    0.171517    0.929105
     25          1           0       -3.163122    0.827444   -0.391825
     26          1           0       -4.360900   -1.985462   -0.315212
     27          1           0       -3.399432   -1.328983   -1.635142
     28          1           0       -5.130593    0.458898   -2.013610
     29          1           0       -6.097523   -0.201311   -0.686180
     30          1           0       -5.846575   -1.155365   -2.157953
     31          6           0       -2.155585   -0.688351    0.762925
     32          6           0       -1.466347    0.265370    1.739323
     33          6           0       -0.204414   -0.334486    2.360201
     34          1           0       -2.411164   -1.618710    1.288762
     35          1           0       -1.448861   -0.962783   -0.032168
     36          1           0       -2.174853    0.537717    2.532079
     37          1           0       -1.213386    1.194195    1.212150
     38          1           0        0.523239   -0.589956    1.583118
     39          1           0       -0.443692   -1.250164    2.910548
     40          1           0        0.272289    0.364098    3.054890
 ---------------------------------------------------------------------

 SCF Done:  E(RHF) =  -470.731168311     A.U. after   11 cycles
 E2 =    -0.1586216307D+01 EUMP2 =    -0.47231738461800D+03

 The electronic state is 1-A.
 Alpha  occ. eigenvalues --  -11.21610 -11.21608 -11.21581 -11.21549 -11.21427
 Alpha  occ. eigenvalues --  -11.21424 -11.21365 -11.21353 -11.21127 -11.21109
 Alpha  occ. eigenvalues --  -11.21076 -11.21073  -1.08550  -1.08371  -1.03693
 Alpha  occ. eigenvalues --   -1.03426  -0.96023  -0.96006  -0.87075  -0.86984
 Alpha  occ. eigenvalues --   -0.79639  -0.79606  -0.78311  -0.78230  -0.65723
 Alpha  occ. eigenvalues --   -0.64696  -0.61560  -0.60277  -0.59388  -0.59342
 Alpha  occ. eigenvalues --   -0.57636  -0.57611  -0.55329  -0.55263  -0.52717
 Alpha  occ. eigenvalues --   -0.52697  -0.52462  -0.52391  -0.50113  -0.49820
 Alpha  occ. eigenvalues --   -0.48007  -0.47862  -0.46712  -0.46587  -0.46032
 Alpha  occ. eigenvalues --   -0.45758  -0.45706  -0.45412  -0.43808  -0.43797
 Alpha virt. eigenvalues --    0.20040   0.22535   0.23721   0.24661   0.25570
 Alpha virt. eigenvalues --    0.26144   0.26456   0.28327   0.28803   0.29573
 Alpha virt. eigenvalues --    0.31160   0.31364   0.31777   0.32122   0.32426

 Mulliken charges:
               1
     1  C   -0.300405
     2  C   -0.308527
     3  C   -0.479710
     4  H    0.152424
     5  H    0.150229
     6  H    0.161227
     7  H    0.151995
     8  H    0.157040
     9  H    0.156779
    10  H    0.159524
    11  C   -0.301154
    12  C   -0.299574
    13  C   -0.475827
    14  H    0.150242
    15  H    0.149938
    16  H    0.152540
    17  H    0.152042
    18  H    0.155080
    19  H    0.155405
    20  H    0.160366
    21  C   -0.298249
    22  C   -0.299800
    23  C   -0.475730
    24  H    0.149924
    25  H    0.149564
    26  H    0.151945
    27  H    0.152242
    28  H    0.155197
    29  H    0.155181
    30  H    0.160309
    31  C   -0.301167
    32  C   -0.310786
    33  C   -0.481592
    34  H    0.149925
    35  H    0.150797
    36  H    0.153444
    37  H    0.163319
    38  H    0.160548
    39  H    0.155706
    40  H    0.159591
 Sum of Mulliken charges =  -0.00000

 Dipole moment (field-independent basis, Debye):
    X=              0.0046    Y=              0.0150    Z=              0.0062  Tot=              0.0169
 Quadrupole moment (field-independent basis, Debye-Ang):
   XX=            -85.3652   YY=            -85.4844   ZZ=            -83.9223
   XY=              1.1401   XZ=             -1.1265   YZ=             -0.6725

 Normal termination of Gaussian 16 at Wed May  5 16:54:09 2021.
