 Gaussian 16, Revision A.03,
 Gaussian 16:  EM64L-G16RevA.03 25-Dec-2016

 -------------
 #p 6-31g* mp2
 -------------

 ------------------------------------------------------
 Input file generated by CHIRIPA (05-May-2021 14:53:18)
 ------------------------------------------------------
 Symbolic Z-matrix:
 Charge =  0 Multiplicity = 1

                         Standard orientation:
 ---------------------------------------------------------------------
 Center     Atomic      Atomic             Coordinates (Angstroms)
 Number     Number       Type             X           Y           Z
 ---------------------------------------------------------------------
      1          6           0       -4.512933    0.067181    0.033488
      2          6           0       -4.852560   -1.160895   -0.811775
      3          6           0       -6.094264   -1.898737   -0.310223
      4          1           0       -4.360211   -0.243955    1.075992
      5          1           0       -5.372185    0.752076    0.034380
      6          1           0       -3.992413   -1.842630   -0.812206
      7          1           0       -5.004303   -0.846827   -1.852424
      8          1           0       -6.967409   -1.238460   -0.326150
      9          1           0       -5.949770   -2.239922    0.719978
     10          1           0       -6.318871   -2.773205   -0.928864
     11          6           0       -3.274024    0.815364   -0.455445
     12          6           0       -2.934398    2.043440    0.389818
     13          6           0       -1.692693    2.781282   -0.111734
     14          1           0       -2.414773    0.130469   -0.456338
     15          1           0       -3.426746    1.126500   -1.497949
     16          1           0       -2.782655    1.729372    1.430467
     17          1           0       -3.794545    2.725175    0.390249
     18          1           0       -1.837188    3.122466   -1.141935
     19          1           0       -0.819548    2.121005   -0.095807
     20          1           0       -1.468087    3.655750    0.506907
     21          6           0        0.865697   -0.940738    1.294153
     22          6           0        1.686047   -1.949562    0.778574
     23          6           0        2.893929   -1.630965    0.150826
     24          6           0        3.252156   -0.287126    0.055648
     25          6           0        2.456395    0.740656    0.559356
     26          6           0        1.252807    0.398789    1.183094
     27          1           0       -0.070947   -1.197270    1.780245
     28          1           0        1.387952   -2.990710    0.863391
     29          1           0        3.548054   -2.391963   -0.257121
     30          1           0        2.780314    1.769523    0.459727
     31          1           0        0.617707    1.184350    1.582578
     32          7           0        4.528614    0.062476   -0.606798
     33          8           0        4.821618    1.253999   -0.677920
     34          8           0        5.211928   -0.861649   -1.042356
 ---------------------------------------------------------------------

 SCF Done:  E(RHF) =  -669.535374298     A.U. after   15 cycles
 E2 =    -0.2091820217D+01 EUMP2 =    -0.67162719451415D+03

 The electronic state is 1-A.
 Alpha  occ. eigenvalues --  -20.60790 -20.60785 -15.85844 -11.31237 -11.27811
 Alpha  occ. eigenvalues --  -11.27804 -11.27566 -11.26830 -11.26799 -11.22408
 Alpha  occ. eigenvalues --  -11.22196 -11.22103 -11.22028 -11.21823 -11.21594
 Alpha  occ. eigenvalues --   -1.59865  -1.39417  -1.19416  -1.09129  -1.08805
 Alpha  occ. eigenvalues --   -1.04824  -1.04215  -0.96660  -0.95634  -0.87679
 Alpha  occ. eigenvalues --   -0.86216  -0.82466  -0.80278  -0.78925  -0.77507
 Alpha  occ. eigenvalues --   -0.72062  -0.71187  -0.70520  -0.65807  -0.65066
 Alpha  occ. eigenvalues --   -0.64827  -0.62243  -0.61549  -0.60023  -0.58258
 Alpha  occ. eigenvalues --   -0.55997  -0.55298  -0.53351  -0.53217  -0.53054
 Alpha  occ. eigenvalues --   -0.52845  -0.50574  -0.48824  -0.48815  -0.48576
 Alpha  occ. eigenvalues --   -0.47318  -0.46463  -0.46401  -0.44817  -0.44467
 Alpha  occ. eigenvalues --   -0.37389  -0.36397
 Alpha virt. eigenvalues --    0.05008   0.11119   0.16395   0.19788   0.22741
 Alpha virt. eigenvalues --    0.23761   0.25767   0.26400   0.26817   0.28432
 Alpha virt. eigenvalues --    0.28799   0.30731   0.30965   0.31313   0.31568

 Mulliken charges:
               1
     1  C   -0.298352
     2  C   -0.299609
     3  C   -0.475923
     4  H    0.146260
     5  H    0.152005
     6  H    0.149731
     7  H    0.154449
     8  H    0.156803
     9  H    0.154105
    10  H    0.161869
    11  C   -0.299298
    12  C   -0.299908
    13  C   -0.483584
    14  H    0.147133
    15  H    0.153638
    16  H    0.145266
    17  H    0.156127
    18  H    0.161243
    19  H    0.154493
    20  H    0.160028
    21  C   -0.172883
    22  C   -0.218511
    23  C   -0.170496
    24  C    0.158799
    25  C   -0.172182
    26  C   -0.219515
    27  H    0.225884
    28  H    0.223662
    29  H    0.275914
    30  H    0.276588
    31  H    0.228504
    32  N    0.488089
    33  O   -0.460001
    34  O   -0.460327
 Sum of Mulliken charges =  -0.00000

 Dipole moment (field-independent basis, Debye):
    X=             -4.5731    Y=             -1.2262    Z=              2.2512  Tot=              5.2426
 Quadrupole moment (field-independent basis, Debye-Ang):
   XX=           -124.3957   YY=            -89.3179   ZZ=            -94.8422
   XY=             -4.7200   XZ=              8.0803   YZ=             -0.1448

 Normal termination of Gaussian 16 at Thu May  6 10:43:48 2021.
