 Gaussian 16, Revision A.03,
 Gaussian 16:  EM64L-G16RevA.03 25-Dec-2016

 -------------
 #p 6-31g* mp2
 -------------

 ------------------------------------------------------
 Input file generated by CHIRIPA (05-May-2021 14:57:22)
 ------------------------------------------------------
 Symbolic Z-matrix:
 Charge =  0 Multiplicity = 1

                         Standard orientation:
 ---------------------------------------------------------------------
 Center     Atomic      Atomic             Coordinates (Angstroms)
 Number     Number       Type             X           Y           Z
 ---------------------------------------------------------------------
      1          6           0        2.048345    2.623651    0.537110
      2          6           0        1.699097    1.956785   -0.641804
      3          6           0        2.277720    0.724086   -0.958341
      4          6           0        3.206182    0.184801   -0.069285
      5          6           0        3.574765    0.824838    1.112997
      6          6           0        2.983416    2.056548    1.409210
      7          1           0        1.593913    3.580857    0.775109
      8          1           0        0.973202    2.394824   -1.320953
      9          1           0        2.025538    0.186310   -1.864221
     10          1           0        4.301464    0.363100    1.770358
     11          1           0        3.256553    2.572190    2.325482
     12          7           0        3.825481   -1.119679   -0.393631
     13          8           0        4.640848   -1.573616    0.406217
     14          8           0        3.483794   -1.663494   -1.441559
     15          6           0       -1.252818   -2.081128    0.350109
     16          6           0       -1.094046   -1.038547   -0.568768
     17          6           0       -2.113159   -0.101237   -0.762175
     18          6           0       -3.283091   -0.237250   -0.016488
     19          6           0       -3.471272   -1.264883    0.906469
     20          6           0       -2.438834   -2.190776    1.083502
     21          1           0       -0.455971   -2.804819    0.493992
     22          1           0       -0.174055   -0.950918   -1.139718
     23          1           0       -2.016707    0.715705   -1.466960
     24          1           0       -4.399791   -1.326147    1.461011
     25          1           0       -2.564913   -2.999430    1.797804
     26          7           0       -4.369034    0.748995   -0.212572
     27          8           0       -5.390099    0.607141    0.456712
     28          8           0       -4.178568    1.645193   -1.031832
 ---------------------------------------------------------------------

 SCF Done:  E(RHF) =  -868.337778384     A.U. after   16 cycles
 E2 =    -0.2600690456D+01 EUMP2 =    -0.87093846884066D+03

 The electronic state is 1-A.
 Alpha  occ. eigenvalues --  -20.61622 -20.61592 -20.61026 -20.61008 -15.86656
 Alpha  occ. eigenvalues --  -15.86070 -11.31968 -11.31365 -11.28581 -11.28458
 Alpha  occ. eigenvalues --  -11.28141 -11.27963 -11.27886 -11.27546 -11.27510
 Alpha  occ. eigenvalues --  -11.27431 -11.26877 -11.26862  -1.60689  -1.60096
 Alpha  occ. eigenvalues --   -1.40244  -1.39653  -1.20113  -1.19511  -1.09493
 Alpha  occ. eigenvalues --   -1.08899  -1.05520  -1.04908  -0.96351  -0.95755
 Alpha  occ. eigenvalues --   -0.86907  -0.86296  -0.83191  -0.82600  -0.78280
 Alpha  occ. eigenvalues --   -0.77672  -0.72865  -0.72289  -0.72022  -0.71420
 Alpha  occ. eigenvalues --   -0.71193  -0.70582  -0.65757  -0.65531  -0.65156
 Alpha  occ. eigenvalues --   -0.64888  -0.62922  -0.62223  -0.55944  -0.55346
 Alpha  occ. eigenvalues --   -0.53891  -0.53622  -0.53202  -0.52910  -0.49640
 Alpha  occ. eigenvalues --   -0.49615  -0.49054  -0.49035  -0.45659  -0.45076
 Alpha  occ. eigenvalues --   -0.38043  -0.37489  -0.37185  -0.36371
 Alpha virt. eigenvalues --    0.04213   0.04874   0.10360   0.11234   0.15713
 Alpha virt. eigenvalues --    0.16451   0.19503   0.22007   0.25247   0.26502
 Alpha virt. eigenvalues --    0.28167   0.29071   0.29911   0.31051   0.32110

 Mulliken charges:
               1
     1  C   -0.169327
     2  C   -0.216670
     3  C   -0.179761
     4  C    0.158914
     5  C   -0.170942
     6  C   -0.217288
     7  H    0.231212
     8  H    0.225828
     9  H    0.270955
    10  H    0.277180
    11  H    0.226924
    12  N    0.487413
    13  O   -0.457084
    14  O   -0.464358
    15  C   -0.173023
    16  C   -0.216059
    17  C   -0.173979
    18  C    0.158587
    19  C   -0.171504
    20  C   -0.218455
    21  H    0.232499
    22  H    0.224530
    23  H    0.268465
    24  H    0.275647
    25  H    0.224966
    26  N    0.488189
    27  O   -0.459362
    28  O   -0.463497
 Sum of Mulliken charges =  -0.00000

 Dipole moment (field-independent basis, Debye):
    X=              1.8128    Y=              1.1763    Z=              2.0656  Tot=              2.9894
 Quadrupole moment (field-independent basis, Debye-Ang):
   XX=           -141.9424   YY=           -100.7789   ZZ=            -99.7750
   XY=             27.1336   XZ=              2.1427   YZ=             -1.8021

 Normal termination of Gaussian 16 at Fri May  7 04:51:07 2021.
