 Gaussian 16, Revision A.03,
 Gaussian 16:  EM64L-G16RevA.03 25-Dec-2016

 -------------
 #p 6-31g* mp2
 -------------

 ------------------------------------------------------
 Input file generated by CHIRIPA (05-May-2021 14:57:27)
 ------------------------------------------------------
 Symbolic Z-matrix:
 Charge =  0 Multiplicity = 1

                         Standard orientation:
 ---------------------------------------------------------------------
 Center     Atomic      Atomic             Coordinates (Angstroms)
 Number     Number       Type             X           Y           Z
 ---------------------------------------------------------------------
      1          6           0       -4.482962    2.265668   -0.554205
      2          6           0       -5.216971    1.122480   -0.887182
      3          6           0       -4.745622   -0.148512   -0.545192
      4          6           0       -3.530922   -0.239962    0.132620
      5          6           0       -2.776586    0.880201    0.478314
      6          6           0       -3.267256    2.141099    0.126281
      7          1           0       -4.856622    3.249084   -0.823772
      8          1           0       -6.161425    1.216201   -1.415641
      9          1           0       -5.293552   -1.050138   -0.790672
     10          1           0       -1.838482    0.754945    1.005276
     11          1           0       -2.695085    3.027172    0.386166
     12          7           0       -3.021699   -1.580161    0.499986
     13          8           0       -1.948698   -1.633856    1.096998
     14          8           0       -3.705213   -2.551538    0.183960
     15          6           0        3.061141   -2.411103   -0.463912
     16          6           0        4.371917   -1.954935   -0.637975
     17          6           0        4.690184   -0.610567   -0.423665
     18          6           0        3.668378    0.254022   -0.034193
     19          6           0        2.352939   -0.170128    0.147486
     20          6           0        2.057605   -1.518817   -0.072427
     21          1           0        2.822812   -3.457119   -0.632570
     22          1           0        5.153308   -2.645637   -0.941955
     23          1           0        5.696577   -0.230642   -0.551134
     24          1           0        1.595410    0.542197    0.451067
     25          1           0        1.038763   -1.870277    0.063516
     26          7           0        3.993174    1.679532    0.195654
     27          8           0        3.074895    2.421144    0.538308
     28          8           0        5.159878    2.028242    0.028802
 ---------------------------------------------------------------------

 SCF Done:  E(RHF) =  -868.340319184     A.U. after   16 cycles
 E2 =    -0.2598424318D+01 EUMP2 =    -0.87093874350226D+03

 The electronic state is 1-A.
 Alpha  occ. eigenvalues --  -20.61584 -20.61517 -20.60586 -20.60568 -15.86575
 Alpha  occ. eigenvalues --  -15.85622 -11.31655 -11.30788 -11.28196 -11.28171
 Alpha  occ. eigenvalues --  -11.27837 -11.27320 -11.27289 -11.27126 -11.27089
 Alpha  occ. eigenvalues --  -11.26934 -11.26311 -11.26082  -1.60610  -1.59655
 Alpha  occ. eigenvalues --   -1.40175  -1.39217  -1.19790  -1.18907  -1.09232
 Alpha  occ. eigenvalues --   -1.08330  -1.05145  -1.04261  -0.96118  -0.95213
 Alpha  occ. eigenvalues --   -0.86556  -0.85663  -0.82961  -0.82040  -0.78049
 Alpha  occ. eigenvalues --   -0.77124  -0.72804  -0.71912  -0.71849  -0.70972
 Alpha  occ. eigenvalues --   -0.70891  -0.70013  -0.65442  -0.65133  -0.64546
 Alpha  occ. eigenvalues --   -0.64214  -0.62500  -0.61600  -0.55643  -0.54750
 Alpha  occ. eigenvalues --   -0.53491  -0.53226  -0.52622  -0.52314  -0.49576
 Alpha  occ. eigenvalues --   -0.49525  -0.48617  -0.48577  -0.45634  -0.44668
 Alpha  occ. eigenvalues --   -0.37743  -0.36869  -0.36735  -0.35862
 Alpha virt. eigenvalues --    0.04424   0.05373   0.10916   0.11792   0.15963
 Alpha virt. eigenvalues --    0.16942   0.20403   0.22119   0.25506   0.27422
 Alpha virt. eigenvalues --    0.28583   0.29195   0.31006   0.31649   0.31974

 Mulliken charges:
               1
     1  C   -0.169934
     2  C   -0.218328
     3  C   -0.170805
     4  C    0.158070
     5  C   -0.172112
     6  C   -0.218177
     7  H    0.228567
     8  H    0.225097
     9  H    0.275797
    10  H    0.272568
    11  H    0.229518
    12  N    0.489785
    13  O   -0.470598
    14  O   -0.456312
    15  C   -0.171855
    16  C   -0.218291
    17  C   -0.172703
    18  C    0.158723
    19  C   -0.172678
    20  C   -0.225445
    21  H    0.227859
    22  H    0.221983
    23  H    0.273510
    24  H    0.268577
    25  H    0.245028
    26  N    0.488469
    27  O   -0.465338
    28  O   -0.460974
 Sum of Mulliken charges =  -0.00000

 Dipole moment (field-independent basis, Debye):
    X=             -3.3084    Y=             -0.3408    Z=             -2.1588  Tot=              3.9651
 Quadrupole moment (field-independent basis, Debye-Ang):
   XX=            -92.7128   YY=           -109.2100   ZZ=           -105.5629
   XY=            -35.0123   XZ=              2.3185   YZ=              2.1471

 Normal termination of Gaussian 16 at Thu May  6 16:32:02 2021.
