 Gaussian 16, Revision A.03,
 Gaussian 16:  EM64L-G16RevA.03 25-Dec-2016

 -------------
 #p 6-31g* mp2
 -------------

 ------------------------------------------------------
 Input file generated by CHIRIPA (05-May-2021 14:51:09)
 ------------------------------------------------------
 Symbolic Z-matrix:
 Charge =  0 Multiplicity = 1

                         Standard orientation:
 ---------------------------------------------------------------------
 Center     Atomic      Atomic             Coordinates (Angstroms)
 Number     Number       Type             X           Y           Z
 ---------------------------------------------------------------------
      1          6           0        2.756210   -0.755930    0.291632
      2          6           0        1.732288    0.014942    1.125492
      3          6           0        0.406544   -0.732445    1.272496
      4          1           0        2.334065   -0.955728   -0.702762
      5          1           0        2.935758   -1.734808    0.757417
      6          1           0        1.555761    0.992628    0.659032
      7          1           0        2.156993    0.213095    2.117952
      8          1           0        0.562197   -1.701074    1.758430
      9          1           0       -0.042452   -0.917112    0.291220
     10          1           0       -0.310756   -0.163435    1.872135
     11          6           0        4.086703   -0.021631    0.135677
     12          6           0        5.110626   -0.792504   -0.698183
     13          6           0        6.436370   -0.045116   -0.845187
     14          1           0        3.907156    0.957247   -0.330108
     15          1           0        4.508849    0.178166    1.130071
     16          1           0        4.685921   -0.990657   -1.690643
     17          1           0        5.287153   -1.770189   -0.231722
     18          1           0        6.885366    0.139551    0.136089
     19          1           0        6.280717    0.923512   -1.331121
     20          1           0        7.153670   -0.614127   -1.444826
     21          6           0       -4.125916    0.126755   -0.349711
     22          6           0       -4.255070   -1.386329   -0.171161
     23          6           0       -5.670192   -1.895460   -0.446865
     24          1           0       -4.835519    0.630577    0.320790
     25          1           0       -4.419832    0.394482   -1.374080
     26          1           0       -3.959675   -1.651284    0.852146
     27          1           0       -3.544942   -1.886603   -0.842027
     28          1           0       -5.971353   -1.659785   -1.472711
     29          1           0       -6.388443   -1.423129    0.231087
     30          1           0       -5.739949   -2.979514   -0.313368
     31          6           0       -2.716998    0.650806   -0.077599
     32          6           0       -2.587844    2.163891   -0.256147
     33          6           0       -1.172722    2.673022    0.019555
     34          1           0       -2.423082    0.383080    0.946770
     35          1           0       -2.007395    0.146985   -0.748100
     36          1           0       -3.297972    2.664165    0.414718
     37          1           0       -2.883238    2.428845   -1.279454
     38          1           0       -0.454471    2.200690   -0.658397
     39          1           0       -0.871561    2.437347    1.045402
     40          1           0       -1.102965    3.757075   -0.113941
 ---------------------------------------------------------------------

 SCF Done:  E(RHF) =  -470.731261770     A.U. after   11 cycles
 E2 =    -0.1584559166D+01 EUMP2 =    -0.47231582093622D+03

 The electronic state is 1-A.
 Alpha  occ. eigenvalues --  -11.21589 -11.21573 -11.21566 -11.21468 -11.21355
 Alpha  occ. eigenvalues --  -11.21339 -11.21293 -11.21259 -11.21086 -11.21049
 Alpha  occ. eigenvalues --  -11.21046 -11.20895  -1.08428  -1.08345  -1.03561
 Alpha  occ. eigenvalues --   -1.03418  -0.95968  -0.95917  -0.87043  -0.86890
 Alpha  occ. eigenvalues --   -0.79602  -0.79533  -0.78243  -0.78142  -0.65069
 Alpha  occ. eigenvalues --   -0.64990  -0.60959  -0.60866  -0.59475  -0.59145
 Alpha  occ. eigenvalues --   -0.57690  -0.57428  -0.55270  -0.55209  -0.52769
 Alpha  occ. eigenvalues --   -0.52625  -0.52428  -0.52281  -0.49950  -0.49823
 Alpha  occ. eigenvalues --   -0.47945  -0.47798  -0.46594  -0.46577  -0.45849
 Alpha  occ. eigenvalues --   -0.45671  -0.45633  -0.45465  -0.43760  -0.43628
 Alpha virt. eigenvalues --    0.21278   0.23041   0.23537   0.24756   0.25507
 Alpha virt. eigenvalues --    0.26311   0.26369   0.27453   0.28272   0.29813
 Alpha virt. eigenvalues --    0.30055   0.31127   0.31821   0.31940   0.32414

 Mulliken charges:
               1
     1  C   -0.298244
     2  C   -0.304597
     3  C   -0.476194
     4  H    0.148662
     5  H    0.149305
     6  H    0.157135
     7  H    0.150857
     8  H    0.153371
     9  H    0.158051
    10  H    0.160632
    11  C   -0.298164
    12  C   -0.299554
    13  C   -0.475664
    14  H    0.149415
    15  H    0.149622
    16  H    0.151677
    17  H    0.151867
    18  H    0.155159
    19  H    0.155137
    20  H    0.160109
    21  C   -0.297789
    22  C   -0.299573
    23  C   -0.475610
    24  H    0.149133
    25  H    0.148832
    26  H    0.152312
    27  H    0.151497
    28  H    0.155020
    29  H    0.155082
    30  H    0.160197
    31  C   -0.300395
    32  C   -0.299914
    33  C   -0.478047
    34  H    0.154125
    35  H    0.150170
    36  H    0.151582
    37  H    0.151412
    38  H    0.155865
    39  H    0.157475
    40  H    0.160044
 Sum of Mulliken charges =  -0.00000

 Dipole moment (field-independent basis, Debye):
    X=             -0.0269    Y=              0.0154    Z=              0.0090  Tot=              0.0322
 Quadrupole moment (field-independent basis, Debye-Ang):
   XX=            -86.8387   YY=            -85.0819   ZZ=            -83.1789
   XY=             -1.0631   XZ=              0.0120   YZ=             -0.2163

 Normal termination of Gaussian 16 at Wed May  5 18:10:15 2021.
