 Gaussian 16, Revision A.03,
 Gaussian 16:  EM64L-G16RevA.03 25-Dec-2016

 -------------
 #p 6-31g* mp2
 -------------

 ------------------------------------------------------
 Input file generated by CHIRIPA (05-May-2021 14:57:22)
 ------------------------------------------------------
 Symbolic Z-matrix:
 Charge =  0 Multiplicity = 1

                         Standard orientation:
 ---------------------------------------------------------------------
 Center     Atomic      Atomic             Coordinates (Angstroms)
 Number     Number       Type             X           Y           Z
 ---------------------------------------------------------------------
      1          6           0       -4.096542    1.376844   -0.093048
      2          6           0       -3.272801    1.114854   -1.192745
      3          6           0       -2.338707    0.075593   -1.148555
      4          6           0       -2.254748   -0.685213    0.016527
      5          6           0       -3.061400   -0.448899    1.128623
      6          6           0       -3.988403    0.595509    1.062089
      7          1           0       -4.819414    2.186166   -0.136054
      8          1           0       -3.354583    1.720016   -2.091152
      9          1           0       -1.688587   -0.149037   -1.985396
     10          1           0       -2.956698   -1.069362    2.010371
     11          1           0       -4.626831    0.796688    1.917649
     12          7           0       -1.269619   -1.788157    0.075135
     13          8           0       -1.215219   -2.443899    1.113249
     14          8           0       -0.570527   -1.976017   -0.918150
     15          6           0        1.706939    2.908797    0.268476
     16          6           0        1.496798    2.251789   -0.948365
     17          6           0        1.886258    0.919116   -1.112229
     18          6           0        2.485767    0.270893   -0.033487
     19          6           0        2.708667    0.898245    1.191273
     20          6           0        2.311138    2.231123    1.332535
     21          1           0        1.401262    3.944129    0.386991
     22          1           0        1.027797    2.775586   -1.776447
     23          1           0        1.735515    0.386446   -2.043335
     24          1           0        3.178598    0.349823    1.998624
     25          1           0        2.475588    2.738844    2.278696
     26          7           0        2.902342   -1.140056   -0.194998
     27          8           0        3.428476   -1.688959    0.770675
     28          8           0        2.694831   -1.670340   -1.284207
 ---------------------------------------------------------------------

 SCF Done:  E(RHF) =  -868.335775550     A.U. after   16 cycles
 E2 =    -0.2602535132D+01 EUMP2 =    -0.87093831068146D+03

 The electronic state is 1-A.
 Alpha  occ. eigenvalues --  -20.60637 -20.60609 -20.59786 -20.59689 -15.85668
 Alpha  occ. eigenvalues --  -15.84803 -11.31277 -11.30637 -11.27915 -11.27858
 Alpha  occ. eigenvalues --  -11.27670 -11.27278 -11.27269 -11.27148 -11.26975
 Alpha  occ. eigenvalues --  -11.26925 -11.26449 -11.26393  -1.59698  -1.58783
 Alpha  occ. eigenvalues --   -1.39245  -1.38328  -1.19477  -1.18872  -1.08827
 Alpha  occ. eigenvalues --   -1.08179  -1.04922  -1.04354  -0.95619  -0.94934
 Alpha  occ. eigenvalues --   -0.86307  -0.85721  -0.82451  -0.81778  -0.77470
 Alpha  occ. eigenvalues --   -0.76720  -0.71885  -0.71100  -0.71031  -0.70591
 Alpha  occ. eigenvalues --   -0.70020  -0.69982  -0.65126  -0.64932  -0.64517
 Alpha  occ. eigenvalues --   -0.64372  -0.62276  -0.61687  -0.55414  -0.54856
 Alpha  occ. eigenvalues --   -0.53245  -0.53026  -0.52638  -0.52456  -0.48648
 Alpha  occ. eigenvalues --   -0.48629  -0.47827  -0.47753  -0.44684  -0.43511
 Alpha  occ. eigenvalues --   -0.37471  -0.36883  -0.36579  -0.35922
 Alpha virt. eigenvalues --    0.05038   0.05862   0.11098   0.11672   0.16504
 Alpha virt. eigenvalues --    0.17240   0.20940   0.21823   0.26504   0.27554
 Alpha virt. eigenvalues --    0.28111   0.28941   0.30459   0.31348   0.32093

 Mulliken charges:
               1
     1  C   -0.171777
     2  C   -0.219578
     3  C   -0.170480
     4  C    0.160094
     5  C   -0.170917
     6  C   -0.218679
     7  H    0.224543
     8  H    0.220590
     9  H    0.272705
    10  H    0.276758
    11  H    0.223297
    12  N    0.485599
    13  O   -0.457566
    14  O   -0.454433
    15  C   -0.171911
    16  C   -0.219899
    17  C   -0.169949
    18  C    0.159425
    19  C   -0.170782
    20  C   -0.219241
    21  H    0.221409
    22  H    0.216657
    23  H    0.277281
    24  H    0.276567
    25  H    0.221121
    26  N    0.491000
    27  O   -0.462592
    28  O   -0.449242
 Sum of Mulliken charges =  -0.00000

 Dipole moment (field-independent basis, Debye):
    X=             -4.8771    Y=              8.4601    Z=              0.3498  Tot=              9.7715
 Quadrupole moment (field-independent basis, Debye-Ang):
   XX=            -97.0950   YY=           -108.8578   ZZ=            -96.3007
   XY=              5.4833   XZ=              1.8338   YZ=             -0.7697

 Normal termination of Gaussian 16 at Thu May  6 06:33:20 2021.
