 Gaussian 16, Revision A.03,
 Gaussian 16:  EM64L-G16RevA.03 25-Dec-2016

 -------------
 #p 6-31g* mp2
 -------------

 ------------------------------------------------------
 Input file generated by CHIRIPA (05-May-2021 14:53:17)
 ------------------------------------------------------
 Symbolic Z-matrix:
 Charge =  0 Multiplicity = 1

                         Standard orientation:
 ---------------------------------------------------------------------
 Center     Atomic      Atomic             Coordinates (Angstroms)
 Number     Number       Type             X           Y           Z
 ---------------------------------------------------------------------
      1          6           0       -5.425446    0.279827   -0.180445
      2          6           0       -6.705893   -0.433799    0.254500
      3          6           0       -7.971638    0.299156   -0.190990
      4          1           0       -5.424056    1.299149    0.229342
      5          1           0       -5.424850    0.382747   -1.274430
      6          1           0       -6.703425   -0.536575    1.347224
      7          1           0       -6.704145   -1.451606   -0.156211
      8          1           0       -8.001061    0.389033   -1.281704
      9          1           0       -8.000337    1.309262    0.230274
     10          1           0       -8.875155   -0.228280    0.130455
     11          6           0       -4.151625   -0.440788    0.257530
     12          6           0       -2.871178    0.272838   -0.177415
     13          6           0       -1.605433   -0.460118    0.268075
     14          1           0       -4.152221   -0.543708    1.351514
     15          1           0       -4.153015   -1.460110   -0.152257
     16          1           0       -2.872926    1.290644    0.233296
     17          1           0       -2.873646    0.375614   -1.270140
     18          1           0       -1.576734   -1.470224   -0.153189
     19          1           0       -1.576010   -0.549994    1.358789
     20          1           0       -0.701916    0.067319   -0.053370
     21          6           0        3.389103    2.560771    0.020654
     22          6           0        2.294453    1.702470   -0.126252
     23          6           0        2.477644    0.316784   -0.155697
     24          6           0        3.775068   -0.178612   -0.035019
     25          6           0        4.885856    0.650637    0.112580
     26          6           0        4.679036    2.033046    0.139391
     27          1           0        3.237619    3.635932    0.042504
     28          1           0        1.291543    2.109497   -0.218685
     29          1           0        1.647993   -0.370536   -0.268339
     30          1           0        5.873687    0.215276    0.202406
     31          1           0        5.531021    2.697220    0.253595
     32          7           0        3.981511   -1.643840   -0.064797
     33          8           0        5.134607   -2.055282    0.043476
     34          8           0        2.986316   -2.353101   -0.195845
 ---------------------------------------------------------------------

 SCF Done:  E(RHF) =  -669.535338618     A.U. after   15 cycles
 E2 =    -0.2091093021D+01 EUMP2 =    -0.67162643163914D+03

 The electronic state is 1-A.
 Alpha  occ. eigenvalues --  -20.60710 -20.60704 -15.85762 -11.31120 -11.27704
 Alpha  occ. eigenvalues --  -11.27660 -11.27455 -11.26722 -11.26707 -11.22105
 Alpha  occ. eigenvalues --  -11.21795 -11.21718 -11.21708 -11.21632 -11.21238
 Alpha  occ. eigenvalues --   -1.59785  -1.39338  -1.19301  -1.08757  -1.08700
 Alpha  occ. eigenvalues --   -1.04710  -1.03889  -0.96347  -0.95533  -0.87368
 Alpha  occ. eigenvalues --   -0.86104  -0.82369  -0.79955  -0.78548  -0.77413
 Alpha  occ. eigenvalues --   -0.71982  -0.71107  -0.70423  -0.65379  -0.64960
 Alpha  occ. eigenvalues --   -0.64717  -0.62136  -0.61271  -0.59714  -0.57947
 Alpha  occ. eigenvalues --   -0.55602  -0.55220  -0.53139  -0.53026  -0.52767
 Alpha  occ. eigenvalues --   -0.52725  -0.50256  -0.48740  -0.48734  -0.48267
 Alpha  occ. eigenvalues --   -0.46965  -0.46095  -0.46002  -0.44744  -0.44149
 Alpha  occ. eigenvalues --   -0.37288  -0.36308
 Alpha virt. eigenvalues --    0.05122   0.11344   0.16607   0.20019   0.22687
 Alpha virt. eigenvalues --    0.23819   0.25838   0.26362   0.27113   0.28014
 Alpha virt. eigenvalues --    0.28818   0.29913   0.31135   0.31595   0.32194

 Mulliken charges:
               1
     1  C   -0.298512
     2  C   -0.300038
     3  C   -0.475889
     4  H    0.148923
     5  H    0.149934
     6  H    0.152496
     7  H    0.153281
     8  H    0.155430
     9  H    0.154848
    10  H    0.161241
    11  C   -0.299349
    12  C   -0.300063
    13  C   -0.478756
    14  H    0.150874
    15  H    0.152694
    16  H    0.149364
    17  H    0.152883
    18  H    0.165041
    19  H    0.160107
    20  H    0.146735
    21  C   -0.170700
    22  C   -0.221247
    23  C   -0.177632
    24  C    0.159890
    25  C   -0.170593
    26  C   -0.218981
    27  H    0.225340
    28  H    0.223905
    29  H    0.283036
    30  H    0.275380
    31  H    0.223241
    32  N    0.488139
    33  O   -0.460802
    34  O   -0.460218
 Sum of Mulliken charges =  -0.00000

 Dipole moment (field-independent basis, Debye):
    X=             -0.8991    Y=              5.0787    Z=              0.1271  Tot=              5.1592
 Quadrupole moment (field-independent basis, Debye-Ang):
   XX=            -95.8991   YY=            -96.9662   ZZ=            -94.8927
   XY=             21.2248   XZ=              0.7867   YZ=              0.4662

 Normal termination of Gaussian 16 at Thu May  6 05:59:40 2021.
