 Gaussian 16, Revision A.03,
 Gaussian 16:  EM64L-G16RevA.03 25-Dec-2016

 -------------
 #p 6-31g* mp2
 -------------

 ------------------------------------------------------
 Input file generated by CHIRIPA (05-May-2021 14:57:26)
 ------------------------------------------------------
 Symbolic Z-matrix:
 Charge =  0 Multiplicity = 1

                         Standard orientation:
 ---------------------------------------------------------------------
 Center     Atomic      Atomic             Coordinates (Angstroms)
 Number     Number       Type             X           Y           Z
 ---------------------------------------------------------------------
      1          6           0       -2.028220   -1.190317    0.824807
      2          6           0       -3.193038   -1.961065    0.900088
      3          6           0       -4.422347   -1.431139    0.496943
      4          6           0       -4.450510   -0.121035    0.021418
      5          6           0       -3.307360    0.672011   -0.065624
      6          6           0       -2.088991    0.121449    0.343041
      7          1           0       -1.077512   -1.609992    1.140123
      8          1           0       -3.148837   -2.980092    1.273820
      9          1           0       -5.339451   -2.005652    0.544602
     10          1           0       -3.382983    1.684748   -0.442535
     11          1           0       -1.185987    0.722346    0.283463
     12          7           0       -5.746133    0.450898   -0.408295
     13          8           0       -5.744300    1.607700   -0.823556
     14          8           0       -6.738944   -0.268454   -0.321707
     15          6           0        2.576948    2.080802    0.268485
     16          6           0        3.888279    2.210217    0.737722
     17          6           0        4.816506    1.182980    0.543492
     18          6           0        4.397461    0.034946   -0.127114
     19          6           0        3.098095   -0.123801   -0.606424
     20          6           0        2.186730    0.916259   -0.400910
     21          1           0        1.862429    2.883765    0.423752
     22          1           0        4.194127    3.113485    1.257924
     23          1           0        5.838001    1.256867    0.896350
     24          1           0        2.822703   -1.036142   -1.121409
     25          1           0        1.168994    0.812997   -0.766418
     26          7           0        5.371209   -1.059331   -0.338709
     27          8           0        4.977131   -2.060687   -0.932532
     28          8           0        6.510071   -0.894950    0.093272
 ---------------------------------------------------------------------

 SCF Done:  E(RHF) =  -868.336938259     A.U. after   16 cycles
 E2 =    -0.2599455000D+01 EUMP2 =    -0.87093639325924D+03

 The electronic state is 1-A.
 Alpha  occ. eigenvalues --  -20.61381 -20.61371 -20.61228 -20.61218 -15.86438
 Alpha  occ. eigenvalues --  -15.86286 -11.31925 -11.31748 -11.28566 -11.28486
 Alpha  occ. eigenvalues --  -11.28402 -11.28318 -11.28308 -11.28116 -11.27659
 Alpha  occ. eigenvalues --  -11.27503 -11.27495 -11.27309  -1.60452  -1.60299
 Alpha  occ. eigenvalues --   -1.40002  -1.39850  -1.20125  -1.19946  -1.09501
 Alpha  occ. eigenvalues --   -1.09321  -1.05555  -1.05377  -0.96308  -0.96133
 Alpha  occ. eigenvalues --   -0.86968  -0.86760  -0.83142  -0.82973  -0.78177
 Alpha  occ. eigenvalues --   -0.77996  -0.72653  -0.72501  -0.71779  -0.71625
 Alpha  occ. eigenvalues --   -0.71233  -0.71041  -0.65793  -0.65741  -0.65600
 Alpha  occ. eigenvalues --   -0.65269  -0.62960  -0.62656  -0.56058  -0.55858
 Alpha  occ. eigenvalues --   -0.53875  -0.53758  -0.53671  -0.53378  -0.49423
 Alpha  occ. eigenvalues --   -0.49400  -0.49267  -0.49249  -0.45380  -0.45234
 Alpha  occ. eigenvalues --   -0.38115  -0.37926  -0.37160  -0.36982
 Alpha virt. eigenvalues --    0.04385   0.04557   0.10402   0.10613   0.15816
 Alpha virt. eigenvalues --    0.16000   0.18394   0.21885   0.24806   0.27101
 Alpha virt. eigenvalues --    0.27841   0.28521   0.29841   0.30959   0.31693

 Mulliken charges:
               1
     1  C   -0.171492
     2  C   -0.218332
     3  C   -0.169572
     4  C    0.158991
     5  C   -0.170303
     6  C   -0.222459
     7  H    0.227766
     8  H    0.226724
     9  H    0.277939
    10  H    0.275111
    11  H    0.215772
    12  N    0.488082
    13  O   -0.460289
    14  O   -0.458335
    15  C   -0.170898
    16  C   -0.218227
    17  C   -0.169644
    18  C    0.159132
    19  C   -0.171550
    20  C   -0.225405
    21  H    0.225454
    22  H    0.226495
    23  H    0.278216
    24  H    0.276406
    25  H    0.220322
    26  N    0.487947
    27  O   -0.459808
    28  O   -0.458043
 Sum of Mulliken charges =  -0.00000

 Dipole moment (field-independent basis, Debye):
    X=              1.1904    Y=              1.7615    Z=              2.3242  Tot=              3.1499
 Quadrupole moment (field-independent basis, Debye-Ang):
   XX=           -171.1261   YY=            -99.2087   ZZ=           -105.0253
   XY=             30.3048   XZ=             -1.5970   YZ=             -0.4005

 Normal termination of Gaussian 16 at Thu May  6 08:22:01 2021.
