 Gaussian 16, Revision A.03,
 Gaussian 16:  EM64L-G16RevA.03 25-Dec-2016

 -------------
 #p 6-31g* mp2
 -------------

 ------------------------------------------------------
 Input file generated by CHIRIPA (05-May-2021 14:55:22)
 ------------------------------------------------------
 Symbolic Z-matrix:
 Charge =  0 Multiplicity = 1

                         Standard orientation:
 ---------------------------------------------------------------------
 Center     Atomic      Atomic             Coordinates (Angstroms)
 Number     Number       Type             X           Y           Z
 ---------------------------------------------------------------------
      1          6           0        2.477588    2.482406   -0.934998
      2          6           0        3.285603    1.370995   -1.196528
      3          6           0        3.098437    0.176265   -0.495004
      4          6           0        2.089363    0.127844    0.465577
      5          6           0        1.268018    1.217986    0.748901
      6          6           0        1.473145    2.402495    0.035172
      7          1           0        2.629959    3.406531   -1.484699
      8          1           0        4.066437    1.430170   -1.949418
      9          1           0        3.709594   -0.699314   -0.677394
     10          1           0        0.497755    1.128594    1.505289
     11          1           0        0.844121    3.264041    0.240385
     12          7           0        1.881711   -1.131553    1.214709
     13          8           0        0.985869   -1.148545    2.056027
     14          8           0        2.618728   -2.077831    0.946377
     15          6           0       -2.951746    0.288278   -0.319856
     16          6           0       -4.279952    0.377674    0.432382
     17          6           0       -4.734002    1.819687    0.660922
     18          1           0       -2.181155    0.831885    0.243727
     19          1           0       -3.050996    0.800086   -1.287118
     20          1           0       -4.178640   -0.135348    1.397348
     21          1           0       -5.047427   -0.166372   -0.132961
     22          1           0       -4.862922    2.338946   -0.294249
     23          1           0       -3.989198    2.370146    1.244755
     24          1           0       -5.685481    1.860291    1.200273
     25          6           0       -2.484636   -1.146921   -0.555948
     26          6           0       -1.156430   -1.236317   -1.308185
     27          6           0       -0.702379   -2.678331   -1.536725
     28          1           0       -2.385386   -1.658730    0.411315
     29          1           0       -3.255227   -1.690528   -1.119530
     30          1           0       -0.388954   -0.692272   -0.742842
     31          1           0       -1.257742   -0.723295   -2.273151
     32          1           0       -1.447184   -3.228790   -2.120559
     33          1           0       -0.573461   -3.197590   -0.581555
     34          1           0        0.249099   -2.718935   -2.076075
 ---------------------------------------------------------------------

 SCF Done:  E(RHF) =  -669.535087339     A.U. after   15 cycles
 E2 =    -0.2094311385D+01 EUMP2 =    -0.67162939872356D+03

 The electronic state is 1-A.
 Alpha  occ. eigenvalues --  -20.60897 -20.60889 -15.85925 -11.31247 -11.27826
 Alpha  occ. eigenvalues --  -11.27821 -11.27561 -11.26842 -11.26832 -11.21521
 Alpha  occ. eigenvalues --  -11.21322 -11.21209 -11.21139 -11.21006 -11.20506
 Alpha  occ. eigenvalues --   -1.59958  -1.39513  -1.19444  -1.08842  -1.08215
 Alpha  occ. eigenvalues --   -1.04837  -1.03303  -0.95752  -0.95676  -0.86761
 Alpha  occ. eigenvalues --   -0.86238  -0.82509  -0.79389  -0.78042  -0.77557
 Alpha  occ. eigenvalues --   -0.72150  -0.71311  -0.70545  -0.65096  -0.64888
 Alpha  occ. eigenvalues --   -0.64783  -0.62182  -0.60697  -0.59142  -0.57371
 Alpha  occ. eigenvalues --   -0.55335  -0.55032  -0.53218  -0.52925  -0.52430
 Alpha  occ. eigenvalues --   -0.52173  -0.49680  -0.48910  -0.48907  -0.47699
 Alpha  occ. eigenvalues --   -0.46443  -0.45633  -0.45460  -0.44845  -0.43553
 Alpha  occ. eigenvalues --   -0.37350  -0.36403
 Alpha virt. eigenvalues --    0.04927   0.11129   0.16424   0.20789   0.22973
 Alpha virt. eigenvalues --    0.24415   0.25726   0.27345   0.27806   0.28019
 Alpha virt. eigenvalues --    0.29037   0.31058   0.31639   0.31953   0.32074

 Mulliken charges:
               1
     1  C   -0.170781
     2  C   -0.217807
     3  C   -0.171532
     4  C    0.157512
     5  C   -0.174104
     6  C   -0.216029
     7  H    0.226066
     8  H    0.223819
     9  H    0.275888
    10  H    0.275739
    11  H    0.224259
    12  N    0.492280
    13  O   -0.461440
    14  O   -0.459115
    15  C   -0.296513
    16  C   -0.300230
    17  C   -0.474906
    18  H    0.141757
    19  H    0.146907
    20  H    0.155729
    21  H    0.152734
    22  H    0.153651
    23  H    0.150969
    24  H    0.161229
    25  C   -0.299284
    26  C   -0.303283
    27  C   -0.479418
    28  H    0.159765
    29  H    0.148332
    30  H    0.151701
    31  H    0.147148
    32  H    0.152739
    33  H    0.168167
    34  H    0.158047
 Sum of Mulliken charges =  -0.00000

 Dipole moment (field-independent basis, Debye):
    X=              0.8268    Y=              4.3350    Z=             -2.5662  Tot=              5.1050
 Quadrupole moment (field-independent basis, Debye-Ang):
   XX=            -89.1044   YY=            -93.9521   ZZ=            -95.9961
   XY=              8.4151   XZ=             -7.1540   YZ=              2.4925

 Normal termination of Gaussian 16 at Wed May  5 23:55:15 2021.
