 Gaussian 16, Revision A.03,
 Gaussian 16:  EM64L-G16RevA.03 25-Dec-2016

 -------------
 #p 6-31g* mp2
 -------------

 ------------------------------------------------------
 Input file generated by CHIRIPA (05-May-2021 14:51:07)
 ------------------------------------------------------
 Symbolic Z-matrix:
 Charge =  0 Multiplicity = 1

                         Standard orientation:
 ---------------------------------------------------------------------
 Center     Atomic      Atomic             Coordinates (Angstroms)
 Number     Number       Type             X           Y           Z
 ---------------------------------------------------------------------
      1          6           0        2.296765    0.145755   -0.440554
      2          6           0        3.695433   -0.420495   -0.687681
      3          6           0        3.666758   -1.840296   -1.254370
      4          1           0        1.757220   -0.515761    0.250989
      5          1           0        1.733607    0.137851   -1.384051
      6          1           0        4.256254   -0.410240    0.255713
      7          1           0        4.231779    0.242548   -1.378567
      8          1           0        3.130676   -1.863439   -2.208667
      9          1           0        3.155290   -2.519936   -0.565102
     10          1           0        4.677129   -2.225576   -1.423396
     11          6           0        2.308926    1.564441    0.125936
     12          6           0        0.910257    2.130691    0.373063
     13          6           0        0.938932    3.550492    0.939752
     14          1           0        2.872084    1.572345    1.069433
     15          1           0        2.848471    2.225957   -0.565607
     16          1           0        0.373911    1.467647    1.063949
     17          1           0        0.349437    2.120436   -0.570330
     18          1           0        1.450400    4.230132    0.250484
     19          1           0        1.475014    3.573634    1.894049
     20          1           0       -0.071438    3.935772    1.108778
     21          6           0       -1.880874   -1.049618    0.763555
     22          6           0       -0.873415   -2.161619    0.469503
     23          6           0       -0.036695   -2.539715    1.692097
     24          1           0       -1.343525   -0.164209    1.129958
     25          1           0       -2.544589   -1.371647    1.577911
     26          1           0       -0.212677   -1.838138   -0.344993
     27          1           0       -1.413207   -3.044420    0.103575
     28          1           0       -0.680158   -2.887663    2.506645
     29          1           0        0.527192   -1.674528    2.055528
     30          1           0        0.676838   -3.336346    1.459480
     31          6           0       -2.724817   -0.660577   -0.448937
     32          6           0       -3.732276    0.451423   -0.154885
     33          6           0       -4.568996    0.829519   -1.377479
     34          1           0       -2.061101   -0.338549   -1.263292
     35          1           0       -3.262165   -1.545987   -0.815340
     36          1           0       -3.192483    1.334224    0.211042
     37          1           0       -4.393013    0.127942    0.659610
     38          1           0       -5.132883   -0.035669   -1.740911
     39          1           0       -3.925533    1.177468   -2.192027
     40          1           0       -5.282528    1.626150   -1.144862
 ---------------------------------------------------------------------

 SCF Done:  E(RHF) =  -470.732223782     A.U. after   11 cycles
 E2 =    -0.1585565184D+01 EUMP2 =    -0.47231778896589D+03

 The electronic state is 1-A.
 Alpha  occ. eigenvalues --  -11.21694 -11.21631 -11.21569 -11.21519 -11.21455
 Alpha  occ. eigenvalues --  -11.21374 -11.21350 -11.21282 -11.21144 -11.21123
 Alpha  occ. eigenvalues --  -11.21096 -11.21053  -1.08530  -1.08360  -1.03596
 Alpha  occ. eigenvalues --   -1.03511  -0.96048  -0.95960  -0.87055  -0.86985
 Alpha  occ. eigenvalues --   -0.79699  -0.79543  -0.78342  -0.78198  -0.65360
 Alpha  occ. eigenvalues --   -0.64833  -0.61029  -0.60908  -0.59441  -0.59302
 Alpha  occ. eigenvalues --   -0.57673  -0.57558  -0.55478  -0.55127  -0.52728
 Alpha  occ. eigenvalues --   -0.52668  -0.52514  -0.52335  -0.50074  -0.49831
 Alpha  occ. eigenvalues --   -0.48033  -0.47931  -0.46796  -0.46560  -0.46142
 Alpha  occ. eigenvalues --   -0.45853  -0.45493  -0.45248  -0.43837  -0.43752
 Alpha virt. eigenvalues --    0.19950   0.22304   0.23700   0.23953   0.25454
 Alpha virt. eigenvalues --    0.26266   0.26865   0.27543   0.28646   0.30090
 Alpha virt. eigenvalues --    0.30975   0.31265   0.31486   0.31832   0.32213

 Mulliken charges:
               1
     1  C   -0.309084
     2  C   -0.298734
     3  C   -0.477335
     4  H    0.162543
     5  H    0.148595
     6  H    0.151939
     7  H    0.151906
     8  H    0.155081
     9  H    0.156464
    10  H    0.160576
    11  C   -0.297335
    12  C   -0.306906
    13  C   -0.475141
    14  H    0.149434
    15  H    0.149967
    16  H    0.157285
    17  H    0.151818
    18  H    0.155619
    19  H    0.155477
    20  H    0.160277
    21  C   -0.304637
    22  C   -0.305006
    23  C   -0.478738
    24  H    0.156337
    25  H    0.149046
    26  H    0.157695
    27  H    0.152293
    28  H    0.156261
    29  H    0.154055
    30  H    0.160446
    31  C   -0.297878
    32  C   -0.300054
    33  C   -0.475626
    34  H    0.149747
    35  H    0.149397
    36  H    0.152312
    37  H    0.151750
    38  H    0.155131
    39  H    0.154914
    40  H    0.160106
 Sum of Mulliken charges =  -0.00000

 Dipole moment (field-independent basis, Debye):
    X=              0.0316    Y=              0.0096    Z=              0.0024  Tot=              0.0331
 Quadrupole moment (field-independent basis, Debye-Ang):
   XX=            -84.8384   YY=            -85.3610   ZZ=            -84.6356
   XY=              0.8765   XZ=             -0.6323   YZ=             -0.6273

 Normal termination of Gaussian 16 at Thu May  6 02:03:50 2021.
