 Gaussian 16, Revision A.03,
 Gaussian 16:  EM64L-G16RevA.03 25-Dec-2016

 -------------
 #p 6-31g* mp2
 -------------

 ------------------------------------------------------
 Input file generated by CHIRIPA (05-May-2021 14:57:24)
 ------------------------------------------------------
 Symbolic Z-matrix:
 Charge =  0 Multiplicity = 1

                         Standard orientation:
 ---------------------------------------------------------------------
 Center     Atomic      Atomic             Coordinates (Angstroms)
 Number     Number       Type             X           Y           Z
 ---------------------------------------------------------------------
      1          6           0       -5.149956    1.129777   -0.777113
      2          6           0       -5.277643   -0.135435   -0.194486
      3          6           0       -4.151498   -0.817480    0.275790
      4          6           0       -2.907394   -0.201957    0.146842
      5          6           0       -2.747695    1.057534   -0.428891
      6          6           0       -3.887614    1.721181   -0.892253
      7          1           0       -6.030122    1.652460   -1.139749
      8          1           0       -6.256736   -0.597159   -0.103750
      9          1           0       -4.221689   -1.797910    0.731035
     10          1           0       -1.758434    1.492180   -0.505471
     11          1           0       -3.785446    2.703663   -1.344289
     12          7           0       -1.707903   -0.914269    0.641042
     13          8           0       -0.623035   -0.350359    0.515728
     14          8           0       -1.875323   -2.023001    1.144352
     15          6           0        3.204395    2.425158    0.871443
     16          6           0        3.586178    2.184287   -0.452469
     17          6           0        3.535207    0.891444   -0.982099
     18          6           0        3.095484   -0.141721   -0.155961
     19          6           0        2.708425    0.066345    1.166984
     20          6           0        2.767508    1.367283    1.675527
     21          1           0        3.247141    3.432614    1.274681
     22          1           0        3.925881    3.003920   -1.079245
     23          1           0        3.824877    0.676803   -2.003588
     24          1           0        2.374120   -0.770999    1.767411
     25          1           0        2.470393    1.551395    2.704056
     26          7           0        3.037230   -1.514681   -0.705494
     27          8           0        2.646178   -2.407768    0.042912
     28          8           0        3.383724   -1.671723   -1.874218
 ---------------------------------------------------------------------

 SCF Done:  E(RHF) =  -868.337654215     A.U. after   16 cycles
 E2 =    -0.2600155220D+01 EUMP2 =    -0.87093780943507D+03

 The electronic state is 1-A.
 Alpha  occ. eigenvalues --  -20.60843 -20.60801 -20.59568 -20.59488 -15.85871
 Alpha  occ. eigenvalues --  -15.84585 -11.31247 -11.29972 -11.27833 -11.27802
 Alpha  occ. eigenvalues --  -11.27568 -11.26850 -11.26822 -11.26710 -11.26514
 Alpha  occ. eigenvalues --  -11.26501 -11.25753 -11.25617  -1.59888  -1.58598
 Alpha  occ. eigenvalues --   -1.39446  -1.38150  -1.19422  -1.18209  -1.08815
 Alpha  occ. eigenvalues --   -1.07623  -1.04828  -1.03636  -0.95650  -0.94439
 Alpha  occ. eigenvalues --   -0.86226  -0.85045  -0.82485  -0.81281  -0.77526
 Alpha  occ. eigenvalues --   -0.76286  -0.72113  -0.71207  -0.70824  -0.70532
 Alpha  occ. eigenvalues --   -0.69893  -0.69383  -0.65078  -0.64834  -0.63891
 Alpha  occ. eigenvalues --   -0.63687  -0.62176  -0.60986  -0.55330  -0.54225
 Alpha  occ. eigenvalues --   -0.53155  -0.52923  -0.51951  -0.51762  -0.48852
 Alpha  occ. eigenvalues --   -0.48826  -0.47598  -0.47549  -0.44854  -0.43548
 Alpha  occ. eigenvalues --   -0.37404  -0.36432  -0.36236  -0.35191
 Alpha virt. eigenvalues --    0.04995   0.06290   0.11222   0.12447   0.16487
 Alpha virt. eigenvalues --    0.17713   0.21353   0.22359   0.27254   0.28232
 Alpha virt. eigenvalues --    0.28284   0.29302   0.30903   0.31836   0.32474

 Mulliken charges:
               1
     1  C   -0.170725
     2  C   -0.218527
     3  C   -0.170362
     4  C    0.158387
     5  C   -0.171266
     6  C   -0.218491
     7  H    0.225617
     8  H    0.223991
     9  H    0.276803
    10  H    0.274609
    11  H    0.222503
    12  N    0.491513
    13  O   -0.467750
    14  O   -0.455029
    15  C   -0.172713
    16  C   -0.221517
    17  C   -0.172693
    18  C    0.158965
    19  C   -0.148381
    20  C   -0.221037
    21  H    0.219389
    22  H    0.216970
    23  H    0.271302
    24  H    0.281884
    25  H    0.219900
    26  N    0.488798
    27  O   -0.453154
    28  O   -0.468984
 Sum of Mulliken charges =  -0.00000

 Dipole moment (field-independent basis, Debye):
    X=             -4.3396    Y=              7.0150    Z=              0.3739  Tot=              8.2572
 Quadrupole moment (field-independent basis, Debye-Ang):
   XX=            -78.8557   YY=           -105.0020   ZZ=           -102.8196
   XY=             11.1136   XZ=              8.3640   YZ=             -3.6066

 Normal termination of Gaussian 16 at Wed May  5 17:53:28 2021.
