 Gaussian 16, Revision A.03,
 Gaussian 16:  EM64L-G16RevA.03 25-Dec-2016

 -------------
 #p 6-31g* mp2
 -------------

 ------------------------------------------------------
 Input file generated by CHIRIPA (05-May-2021 14:55:21)
 ------------------------------------------------------
 Symbolic Z-matrix:
 Charge =  0 Multiplicity = 1

                         Standard orientation:
 ---------------------------------------------------------------------
 Center     Atomic      Atomic             Coordinates (Angstroms)
 Number     Number       Type             X           Y           Z
 ---------------------------------------------------------------------
      1          6           0       -1.538455    1.746202   -0.905947
      2          6           0       -1.115888    0.468018   -0.526205
      3          6           0       -2.048198   -0.513087   -0.175805
      4          6           0       -3.401264   -0.180145   -0.216443
      5          6           0       -3.853557    1.084294   -0.590494
      6          6           0       -2.903534    2.049726   -0.936825
      7          1           0       -0.807334    2.502261   -1.176565
      8          1           0       -0.056397    0.229474   -0.501311
      9          1           0       -1.748661   -1.510598    0.121968
     10          1           0       -4.916529    1.292329   -0.605688
     11          1           0       -3.234597    3.041543   -1.231340
     12          7           0       -4.397635   -1.210501    0.152356
     13          8           0       -5.583931   -0.892056    0.108431
     14          8           0       -3.973427   -2.317029    0.478362
     15          6           0        3.650335    0.570663    0.526766
     16          6           0        2.683707    0.199503    1.651866
     17          6           0        1.703491    1.324858    1.984355
     18          1           0        4.208621    1.472159    0.814112
     19          1           0        3.073656    0.833042   -0.371006
     20          1           0        3.262073   -0.063432    2.546838
     21          1           0        2.127794   -0.701325    1.361888
     22          1           0        1.101474    1.583067    1.107141
     23          1           0        2.242198    2.224583    2.298823
     24          1           0        1.021822    1.038180    2.791202
     25          6           0        4.636513   -0.544218    0.182931
     26          6           0        5.603141   -0.173057   -0.942170
     27          6           0        6.583357   -1.298412   -1.274658
     28          1           0        5.213192   -0.806596    1.080703
     29          1           0        4.078227   -1.445713   -0.104416
     30          1           0        6.159054    0.727770   -0.652192
     31          1           0        5.024775    0.089878   -1.837141
     32          1           0        6.044650   -2.198138   -1.589126
     33          1           0        7.185374   -1.556621   -0.397444
     34          1           0        7.265026   -1.011734   -2.081505
 ---------------------------------------------------------------------

 SCF Done:  E(RHF) =  -669.534933131     A.U. after   15 cycles
 E2 =    -0.2091941073D+01 EUMP2 =    -0.67162687420358D+03

 The electronic state is 1-A.
 Alpha  occ. eigenvalues --  -20.60765 -20.60760 -15.85818 -11.31192 -11.27754
 Alpha  occ. eigenvalues --  -11.27749 -11.27502 -11.26776 -11.26754 -11.22450
 Alpha  occ. eigenvalues --  -11.22235 -11.22167 -11.22026 -11.21887 -11.21517
 Alpha  occ. eigenvalues --   -1.59840  -1.39393  -1.19363  -1.09171  -1.08759
 Alpha  occ. eigenvalues --   -1.04772  -1.04225  -0.96670  -0.95592  -0.87685
 Alpha  occ. eigenvalues --   -0.86169  -0.82423  -0.80291  -0.78967  -0.77473
 Alpha  occ. eigenvalues --   -0.72037  -0.71163  -0.70473  -0.65883  -0.65018
 Alpha  occ. eigenvalues --   -0.64774  -0.62231  -0.61504  -0.60030  -0.58268
 Alpha  occ. eigenvalues --   -0.55995  -0.55261  -0.53349  -0.53166  -0.53017
 Alpha  occ. eigenvalues --   -0.52823  -0.50607  -0.48803  -0.48791  -0.48586
 Alpha  occ. eigenvalues --   -0.47348  -0.46500  -0.46437  -0.44797  -0.44477
 Alpha  occ. eigenvalues --   -0.37327  -0.36348
 Alpha virt. eigenvalues --    0.05056   0.11174   0.16532   0.18921   0.22674
 Alpha virt. eigenvalues --    0.23804   0.25550   0.26198   0.27189   0.28138
 Alpha virt. eigenvalues --    0.28743   0.30415   0.31060   0.31316   0.31868

 Mulliken charges:
               1
     1  C   -0.171611
     2  C   -0.218147
     3  C   -0.172971
     4  C    0.158623
     5  C   -0.171063
     6  C   -0.218398
     7  H    0.225840
     8  H    0.227617
     9  H    0.275493
    10  H    0.275642
    11  H    0.223562
    12  N    0.488079
    13  O   -0.460380
    14  O   -0.460394
    15  C   -0.298359
    16  C   -0.302606
    17  C   -0.476953
    18  H    0.152746
    19  H    0.141473
    20  H    0.157833
    21  H    0.147989
    22  H    0.146550
    23  H    0.157818
    24  H    0.166241
    25  C   -0.298505
    26  C   -0.299959
    27  C   -0.476143
    28  H    0.152461
    29  H    0.149606
    30  H    0.152883
    31  H    0.150730
    32  H    0.156050
    33  H    0.156552
    34  H    0.161701
 Sum of Mulliken charges =  -0.00000

 Dipole moment (field-independent basis, Debye):
    X=              3.6472    Y=              3.6230    Z=             -1.2223  Tot=              5.2841
 Quadrupole moment (field-independent basis, Debye-Ang):
   XX=           -115.5436   YY=            -94.6892   ZZ=            -94.2896
   XY=            -15.1824   XZ=              5.3520   YZ=             -1.1854

 Normal termination of Gaussian 16 at Thu May  6 04:36:16 2021.
