 Gaussian 16, Revision A.03,
 Gaussian 16:  EM64L-G16RevA.03 25-Dec-2016

 -------------
 #p 6-31g* mp2
 -------------

 ------------------------------------------------------
 Input file generated by CHIRIPA (05-May-2021 14:51:08)
 ------------------------------------------------------
 Symbolic Z-matrix:
 Charge =  0 Multiplicity = 1

                         Standard orientation:
 ---------------------------------------------------------------------
 Center     Atomic      Atomic             Coordinates (Angstroms)
 Number     Number       Type             X           Y           Z
 ---------------------------------------------------------------------
      1          6           0       -2.818119   -0.918317    0.626521
      2          6           0       -1.376509   -1.110906    0.154657
      3          6           0       -0.532699   -1.914181    1.144872
      4          1           0       -2.813532   -0.412162    1.601575
      5          1           0       -3.278463   -1.902958    0.787642
      6          1           0       -0.919458   -0.126205   -0.006854
      7          1           0       -1.384535   -1.616489   -0.819477
      8          1           0       -0.962634   -2.909181    1.298924
      9          1           0       -0.494914   -1.410429    2.116164
     10          1           0        0.494190   -2.039900    0.787726
     11          6           0       -3.674190   -0.117167   -0.352779
     12          6           0       -5.115800    0.075421    0.119085
     13          6           0       -5.959610    0.878696   -0.871130
     14          1           0       -3.213846    0.867474   -0.513900
     15          1           0       -3.678778   -0.623323   -1.327834
     16          1           0       -5.107774    0.581005    1.093219
     17          1           0       -5.572851   -0.909279    0.280596
     18          1           0       -5.997395    0.374945   -1.842422
     19          1           0       -5.529676    1.873696   -1.025182
     20          1           0       -6.986499    1.004415   -0.513984
     21          6           0        3.150244   -0.191010   -0.405020
     22          6           0        4.363053   -1.094251   -0.178669
     23          6           0        4.155920   -2.508902   -0.720569
     24          1           0        2.270201   -0.642979    0.072674
     25          1           0        2.932372   -0.144240   -1.481003
     26          1           0        4.579419   -1.138197    0.896445
     27          1           0        5.240352   -0.639984   -0.656794
     28          1           0        3.962345   -2.484266   -1.797844
     29          1           0        3.297657   -2.985310   -0.235780
     30          1           0        5.035056   -3.137589   -0.548136
     31          6           0        3.342064    1.226495    0.131278
     32          6           0        2.129256    2.129736   -0.095072
     33          6           0        2.336389    3.544386    0.446827
     34          1           0        3.559938    1.179724    1.207261
     35          1           0        4.222108    1.678464   -0.346416
     36          1           0        1.251957    1.675469    0.383052
     37          1           0        1.912889    2.173682   -1.170187
     38          1           0        3.194652    4.020795   -0.037962
     39          1           0        2.529964    3.519750    1.524102
     40          1           0        1.457253    4.173074    0.274394
 ---------------------------------------------------------------------

 SCF Done:  E(RHF) =  -470.733244585     A.U. after   11 cycles
 E2 =    -0.1583320417D+01 EUMP2 =    -0.47231656500223D+03

 The electronic state is 1-A.
 Alpha  occ. eigenvalues --  -11.21624 -11.21613 -11.21606 -11.21598 -11.21415
 Alpha  occ. eigenvalues --  -11.21397 -11.21355 -11.21328 -11.21113 -11.21094
 Alpha  occ. eigenvalues --  -11.21083 -11.21074  -1.08456  -1.08421  -1.03550
 Alpha  occ. eigenvalues --   -1.03538  -0.96016  -0.95973  -0.87037  -0.86987
 Alpha  occ. eigenvalues --   -0.79646  -0.79563  -0.78291  -0.78213  -0.65140
 Alpha  occ. eigenvalues --   -0.65018  -0.60984  -0.60907  -0.59424  -0.59316
 Alpha  occ. eigenvalues --   -0.57676  -0.57543  -0.55317  -0.55244  -0.52748
 Alpha  occ. eigenvalues --   -0.52673  -0.52481  -0.52348  -0.49973  -0.49895
 Alpha  occ. eigenvalues --   -0.48046  -0.47818  -0.46725  -0.46552  -0.45860
 Alpha  occ. eigenvalues --   -0.45778  -0.45725  -0.45575  -0.43792  -0.43765
 Alpha virt. eigenvalues --    0.20376   0.22873   0.23542   0.24026   0.26067
 Alpha virt. eigenvalues --    0.26609   0.27017   0.27472   0.27783   0.29474
 Alpha virt. eigenvalues --    0.29532   0.31398   0.31690   0.31913   0.32365

 Mulliken charges:
               1
     1  C   -0.298195
     2  C   -0.303484
     3  C   -0.481739
     4  H    0.149452
     5  H    0.149647
     6  H    0.155710
     7  H    0.152522
     8  H    0.155804
     9  H    0.154658
    10  H    0.164782
    11  C   -0.298316
    12  C   -0.299671
    13  C   -0.475717
    14  H    0.149690
    15  H    0.149762
    16  H    0.151913
    17  H    0.151937
    18  H    0.155206
    19  H    0.155212
    20  H    0.160262
    21  C   -0.307486
    22  C   -0.299209
    23  C   -0.477083
    24  H    0.159091
    25  H    0.149435
    26  H    0.151924
    27  H    0.152004
    28  H    0.155313
    29  H    0.155680
    30  H    0.160514
    31  C   -0.297549
    32  C   -0.303171
    33  C   -0.475633
    34  H    0.149454
    35  H    0.149739
    36  H    0.154736
    37  H    0.152152
    38  H    0.155433
    39  H    0.155206
    40  H    0.160018
 Sum of Mulliken charges =  -0.00000

 Dipole moment (field-independent basis, Debye):
    X=             -0.0020    Y=             -0.0003    Z=             -0.0080  Tot=              0.0083
 Quadrupole moment (field-independent basis, Debye-Ang):
   XX=            -85.1164   YY=            -85.4020   ZZ=            -84.2400
   XY=              0.7747   XZ=             -0.6521   YZ=              0.1535

 Normal termination of Gaussian 16 at Thu May  6 06:52:36 2021.
