 Gaussian 16, Revision A.03,
 Gaussian 16:  EM64L-G16RevA.03 25-Dec-2016

 -------------
 #p 6-31g* mp2
 -------------

 ------------------------------------------------------
 Input file generated by CHIRIPA (05-May-2021 14:51:09)
 ------------------------------------------------------
 Symbolic Z-matrix:
 Charge =  0 Multiplicity = 1

                         Standard orientation:
 ---------------------------------------------------------------------
 Center     Atomic      Atomic             Coordinates (Angstroms)
 Number     Number       Type             X           Y           Z
 ---------------------------------------------------------------------
      1          6           0        3.499521   -0.582400   -0.038905
      2          6           0        2.324441   -1.527869   -0.290419
      3          6           0        2.730056   -3.001234   -0.240754
      4          1           0        4.282374   -0.774032   -0.785473
      5          1           0        3.940403   -0.809440    0.941642
      6          1           0        1.885041   -1.298195   -1.269599
      7          1           0        1.544214   -1.333833    0.456717
      8          1           0        3.148898   -3.252680    0.739015
      9          1           0        3.491661   -3.216839   -0.997110
     10          1           0        1.874867   -3.659436   -0.423182
     11          6           0        3.109859    0.893992   -0.085358
     12          6           0        4.284939    1.839462    0.166157
     13          6           0        3.879324    3.312826    0.116492
     14          1           0        2.668978    1.121032   -1.065904
     15          1           0        2.327006    1.085624    0.661210
     16          1           0        5.065166    1.645425   -0.580979
     17          1           0        4.724339    1.609787    1.145337
     18          1           0        3.117719    3.528432    0.872847
     19          1           0        3.460482    3.564272   -0.863277
     20          1           0        4.734513    3.971029    0.298920
     21          6           0       -2.710949   -0.551436    0.334842
     22          6           0       -2.705019   -2.016004   -0.104465
     23          6           0       -1.511099   -2.794399    0.449113
     24          1           0       -1.776919   -0.073676    0.008839
     25          1           0       -2.719072   -0.505206    1.432655
     26          1           0       -2.698307   -2.059460   -1.201134
     27          1           0       -3.639256   -2.490284    0.222455
     28          1           0       -1.516459   -2.780799    1.543821
     29          1           0       -0.570164   -2.347526    0.112145
     30          1           0       -1.526641   -3.838950    0.122724
     31          6           0       -3.898432    0.239844   -0.210580
     32          6           0       -3.904361    1.704412    0.228727
     33          6           0       -5.098282    2.482806   -0.324851
     34          1           0       -3.890308    0.193613   -1.308392
     35          1           0       -4.832462   -0.237917    0.115423
     36          1           0       -2.970124    2.178692   -0.098193
     37          1           0       -3.911073    1.747867    1.325396
     38          1           0       -6.039216    2.035934    0.012119
     39          1           0       -5.092921    2.469206   -1.419559
     40          1           0       -5.082738    3.527358    0.001539
 ---------------------------------------------------------------------

 SCF Done:  E(RHF) =  -470.733087225     A.U. after   11 cycles
 E2 =    -0.1582942594D+01 EUMP2 =    -0.47231602981914D+03

 The electronic state is 1-A.
 Alpha  occ. eigenvalues --  -11.21615 -11.21614 -11.21589 -11.21571 -11.21421
 Alpha  occ. eigenvalues --  -11.21388 -11.21361 -11.21328 -11.21082 -11.21061
 Alpha  occ. eigenvalues --  -11.21049 -11.20987  -1.08451  -1.08406  -1.03567
 Alpha  occ. eigenvalues --   -1.03484  -0.96018  -0.95925  -0.87002  -0.86973
 Alpha  occ. eigenvalues --   -0.79673  -0.79521  -0.78300  -0.78189  -0.65099
 Alpha  occ. eigenvalues --   -0.65023  -0.61018  -0.60858  -0.59372  -0.59321
 Alpha  occ. eigenvalues --   -0.57723  -0.57470  -0.55304  -0.55183  -0.52727
 Alpha  occ. eigenvalues --   -0.52617  -0.52424  -0.52343  -0.49964  -0.49858
 Alpha  occ. eigenvalues --   -0.48056  -0.47785  -0.46735  -0.46514  -0.45910
 Alpha  occ. eigenvalues --   -0.45752  -0.45710  -0.45514  -0.43817  -0.43738
 Alpha virt. eigenvalues --    0.21838   0.23105   0.23419   0.24893   0.26048
 Alpha virt. eigenvalues --    0.26705   0.26867   0.27192   0.28259   0.29017
 Alpha virt. eigenvalues --    0.30872   0.31200   0.31340   0.31800   0.32233

 Mulliken charges:
               1
     1  C   -0.297443
     2  C   -0.303990
     3  C   -0.477656
     4  H    0.149677
     5  H    0.149793
     6  H    0.151042
     7  H    0.154959
     8  H    0.155432
     9  H    0.155107
    10  H    0.162986
    11  C   -0.298565
    12  C   -0.299634
    13  C   -0.475744
    14  H    0.149116
    15  H    0.149851
    16  H    0.151990
    17  H    0.152068
    18  H    0.155284
    19  H    0.155061
    20  H    0.160333
    21  C   -0.298904
    22  C   -0.298991
    23  C   -0.485753
    24  H    0.150227
    25  H    0.149120
    26  H    0.151653
    27  H    0.151655
    28  H    0.154351
    29  H    0.167522
    30  H    0.159506
    31  C   -0.298216
    32  C   -0.299705
    33  C   -0.475689
    34  H    0.149497
    35  H    0.149633
    36  H    0.152120
    37  H    0.151776
    38  H    0.155137
    39  H    0.155167
    40  H    0.160228
 Sum of Mulliken charges =  -0.00000

 Dipole moment (field-independent basis, Debye):
    X=              0.0274    Y=              0.0002    Z=              0.0026  Tot=              0.0276
 Quadrupole moment (field-independent basis, Debye-Ang):
   XX=            -85.1968   YY=            -86.4737   ZZ=            -83.1840
   XY=              0.7859   XZ=             -0.8848   YZ=              0.0092

 Normal termination of Gaussian 16 at Wed May  5 16:38:35 2021.
