 Gaussian 16, Revision A.03,
 Gaussian 16:  EM64L-G16RevA.03 25-Dec-2016

 -------------
 #p 6-31g* mp2
 -------------

 ------------------------------------------------------
 Input file generated by CHIRIPA (05-May-2021 14:53:14)
 ------------------------------------------------------
 Symbolic Z-matrix:
 Charge =  0 Multiplicity = 1

                         Standard orientation:
 ---------------------------------------------------------------------
 Center     Atomic      Atomic             Coordinates (Angstroms)
 Number     Number       Type             X           Y           Z
 ---------------------------------------------------------------------
      1          6           0        3.183469    1.109351   -0.549233
      2          6           0        2.080734    1.747663    0.296057
      3          6           0        1.244310    2.758477   -0.489083
      4          1           0        3.836609    1.898984   -0.945254
      5          1           0        2.729208    0.614189   -1.418634
      6          1           0        2.536822    2.240292    1.164341
      7          1           0        1.430256    0.956404    0.690269
      8          1           0        0.762698    2.276885   -1.346241
      9          1           0        1.875552    3.568067   -0.869476
     10          1           0        0.461978    3.202581    0.134287
     11          6           0        4.028232    0.096581    0.221742
     12          6           0        5.130967   -0.541732   -0.623548
     13          6           0        5.967391   -1.552546    0.161592
     14          1           0        4.482493    0.591742    1.091142
     15          1           0        3.375092   -0.693053    0.617763
     16          1           0        5.781445    0.249527   -1.017760
     17          1           0        4.674879   -1.034360   -1.491832
     18          1           0        5.336149   -2.362136    0.541984
     19          1           0        6.449003   -1.070953    1.018750
     20          1           0        6.749723   -1.996649   -0.461778
     21          6           0       -0.590783   -1.538550    0.647587
     22          6           0       -1.434521   -2.110112   -0.310507
     23          6           0       -2.670314   -1.527234   -0.606509
     24          6           0       -3.032300   -0.367867    0.077688
     25          6           0       -2.213675    0.225409    1.037462
     26          6           0       -0.982363   -0.374666    1.317334
     27          1           0        0.367470   -1.998023    0.871263
     28          1           0       -1.133019   -3.013977   -0.832205
     29          1           0       -3.342930   -1.948704   -1.343644
     30          1           0       -2.541666    1.126661    1.541036
     31          1           0       -0.329141    0.071419    2.061883
     32          7           0       -4.338207    0.258303   -0.227138
     33          8           0       -4.633952    1.279510    0.389555
     34          8           0       -5.041305   -0.283968   -1.076980
 ---------------------------------------------------------------------

 SCF Done:  E(RHF) =  -669.534858114     A.U. after   15 cycles
 E2 =    -0.2092757413D+01 EUMP2 =    -0.67162761552720D+03

 The electronic state is 1-A.
 Alpha  occ. eigenvalues --  -20.60800 -20.60795 -15.85854 -11.31247 -11.27812
 Alpha  occ. eigenvalues --  -11.27805 -11.27566 -11.26838 -11.26815 -11.22246
 Alpha  occ. eigenvalues --  -11.22197 -11.22144 -11.21988 -11.21683 -11.21503
 Alpha  occ. eigenvalues --   -1.59875  -1.39427  -1.19424  -1.09093  -1.08813
 Alpha  occ. eigenvalues --   -1.04834  -1.04127  -0.96567  -0.95644  -0.87578
 Alpha  occ. eigenvalues --   -0.86234  -0.82474  -0.80213  -0.78931  -0.77512
 Alpha  occ. eigenvalues --   -0.72073  -0.71197  -0.70529  -0.65770  -0.65073
 Alpha  occ. eigenvalues --   -0.64825  -0.62220  -0.61491  -0.59938  -0.58192
 Alpha  occ. eigenvalues --   -0.55867  -0.55318  -0.53265  -0.53126  -0.53001
 Alpha  occ. eigenvalues --   -0.52914  -0.50497  -0.48845  -0.48825  -0.48503
 Alpha  occ. eigenvalues --   -0.47239  -0.46462  -0.46376  -0.44827  -0.44398
 Alpha  occ. eigenvalues --   -0.37372  -0.36391
 Alpha virt. eigenvalues --    0.05003   0.11087   0.16447   0.19843   0.22604
 Alpha virt. eigenvalues --    0.23737   0.25205   0.26343   0.26570   0.28021
 Alpha virt. eigenvalues --    0.29634   0.30284   0.30979   0.31342   0.31981

 Mulliken charges:
               1
     1  C   -0.298180
     2  C   -0.305316
     3  C   -0.474723
     4  H    0.152733
     5  H    0.150581
     6  H    0.151063
     7  H    0.147792
     8  H    0.158834
     9  H    0.157388
    10  H    0.159381
    11  C   -0.296850
    12  C   -0.300102
    13  C   -0.475592
    14  H    0.151299
    15  H    0.139497
    16  H    0.154893
    17  H    0.151868
    18  H    0.152272
    19  H    0.156521
    20  H    0.162527
    21  C   -0.171793
    22  C   -0.218679
    23  C   -0.170811
    24  C    0.158469
    25  C   -0.172337
    26  C   -0.216535
    27  H    0.226822
    28  H    0.223686
    29  H    0.275845
    30  H    0.275940
    31  H    0.225759
    32  N    0.488094
    33  O   -0.460075
    34  O   -0.460271
 Sum of Mulliken charges =  -0.00000

 Dipole moment (field-independent basis, Debye):
    X=              4.6329    Y=             -2.1546    Z=              0.9998  Tot=              5.2063
 Quadrupole moment (field-independent basis, Debye-Ang):
   XX=           -122.8293   YY=            -90.8232   ZZ=            -92.8821
   XY=              6.9196   XZ=             -2.5226   YZ=              2.7000

 Normal termination of Gaussian 16 at Thu May  6 15:25:50 2021.
