 Gaussian 16, Revision A.03,
 Gaussian 16:  EM64L-G16RevA.03 25-Dec-2016

 -------------
 #p 6-31g* mp2
 -------------

 ------------------------------------------------------
 Input file generated by CHIRIPA (05-May-2021 14:51:09)
 ------------------------------------------------------
 Symbolic Z-matrix:
 Charge =  0 Multiplicity = 1

                         Standard orientation:
 ---------------------------------------------------------------------
 Center     Atomic      Atomic             Coordinates (Angstroms)
 Number     Number       Type             X           Y           Z
 ---------------------------------------------------------------------
      1          6           0       -4.319358    0.621655   -0.293188
      2          6           0       -4.333556    1.922518    0.510267
      3          6           0       -5.240423    2.988129   -0.106059
      4          1           0       -3.991035    0.835606   -1.319529
      5          1           0       -5.344658    0.233544   -0.367506
      6          1           0       -3.308342    2.307333    0.584225
      7          1           0       -4.661699    1.705415    1.534867
      8          1           0       -6.272712    2.628263   -0.165034
      9          1           0       -4.911665    3.233601   -1.121077
     10          1           0       -5.235617    3.909710    0.484302
     11          6           0       -3.417266   -0.453362    0.310382
     12          6           0       -3.403068   -1.754225   -0.493074
     13          6           0       -2.496201   -2.819836    0.123252
     14          1           0       -2.391966   -0.065251    0.384699
     15          1           0       -3.745589   -0.667313    1.336722
     16          1           0       -3.074925   -1.537122   -1.517673
     17          1           0       -4.428282   -2.139040   -0.567032
     18          1           0       -2.824959   -3.065308    1.138271
     19          1           0       -1.463912   -2.459970    0.182228
     20          1           0       -2.501007   -3.741417   -0.467108
     21          6           0        3.247147   -0.432304   -0.284953
     22          6           0        2.903682   -1.730397    0.446465
     23          6           0        1.658583   -2.415263   -0.117877
     24          1           0        2.390637    0.253001   -0.224183
     25          1           0        3.398593   -0.649536   -1.351381
     26          1           0        2.754288   -1.511005    1.511436
     27          1           0        3.761181   -2.412618    0.384111
     28          1           0        1.800635   -2.662578   -1.174881
     29          1           0        0.788021   -1.755842   -0.041151
     30          1           0        1.431262   -3.341167    0.419606
     31          6           0        4.489477    0.264012    0.267759
     32          6           0        4.832942    1.562104   -0.463658
     33          6           0        6.078041    2.246970    0.100684
     34          1           0        4.338031    0.481243    1.334187
     35          1           0        5.345987   -0.421293    0.206990
     36          1           0        3.975443    2.244324   -0.401304
     37          1           0        4.982336    1.342711   -1.528630
     38          1           0        6.948602    1.587549    0.023957
     39          1           0        5.935989    2.494284    1.157687
     40          1           0        6.305362    3.172873   -0.436800
 ---------------------------------------------------------------------

 SCF Done:  E(RHF) =  -470.733153154     A.U. after   11 cycles
 E2 =    -0.1582383663D+01 EUMP2 =    -0.47231553681720D+03

 The electronic state is 1-A.
 Alpha  occ. eigenvalues --  -11.21627 -11.21623 -11.21600 -11.21547 -11.21433
 Alpha  occ. eigenvalues --  -11.21393 -11.21373 -11.21334 -11.21104 -11.21087
 Alpha  occ. eigenvalues --  -11.21069 -11.20936  -1.08458  -1.08408  -1.03563
 Alpha  occ. eigenvalues --   -1.03489  -0.96029  -0.95923  -0.87068  -0.86920
 Alpha  occ. eigenvalues --   -0.79661  -0.79520  -0.78275  -0.78218  -0.65106
 Alpha  occ. eigenvalues --   -0.65026  -0.61045  -0.60822  -0.59374  -0.59311
 Alpha  occ. eigenvalues --   -0.57636  -0.57543  -0.55462  -0.55097  -0.52746
 Alpha  occ. eigenvalues --   -0.52615  -0.52483  -0.52294  -0.50123  -0.49714
 Alpha  occ. eigenvalues --   -0.47992  -0.47818  -0.46751  -0.46474  -0.45841
 Alpha  occ. eigenvalues --   -0.45758  -0.45733  -0.45621  -0.43808  -0.43749
 Alpha virt. eigenvalues --    0.21846   0.23017   0.23619   0.24733   0.26024
 Alpha virt. eigenvalues --    0.26786   0.27119   0.27503   0.27756   0.28929
 Alpha virt. eigenvalues --    0.30502   0.31583   0.31695   0.31782   0.32094

 Mulliken charges:
               1
     1  C   -0.298270
     2  C   -0.299589
     3  C   -0.475696
     4  H    0.149680
     5  H    0.149650
     6  H    0.151631
     7  H    0.151915
     8  H    0.155228
     9  H    0.155193
    10  H    0.160181
    11  C   -0.298083
    12  C   -0.299345
    13  C   -0.483141
    14  H    0.148185
    15  H    0.149678
    16  H    0.151789
    17  H    0.151626
    18  H    0.154279
    19  H    0.164214
    20  H    0.159962
    21  C   -0.298490
    22  C   -0.299729
    23  C   -0.478746
    24  H    0.149337
    25  H    0.149577
    26  H    0.152219
    27  H    0.152140
    28  H    0.155585
    29  H    0.156884
    30  H    0.161838
    31  C   -0.298316
    32  C   -0.299659
    33  C   -0.475726
    34  H    0.149641
    35  H    0.149784
    36  H    0.151850
    37  H    0.151941
    38  H    0.155239
    39  H    0.155242
    40  H    0.160302
 Sum of Mulliken charges =  -0.00000

 Dipole moment (field-independent basis, Debye):
    X=              0.0396    Y=             -0.0142    Z=             -0.0019  Tot=              0.0421
 Quadrupole moment (field-independent basis, Debye-Ang):
   XX=            -85.0193   YY=            -85.5142   ZZ=            -84.2439
   XY=             -0.1182   XZ=             -1.2858   YZ=              0.2578

 Normal termination of Gaussian 16 at Wed May  5 19:41:45 2021.
