 Gaussian 16, Revision A.03,
 Gaussian 16:  EM64L-G16RevA.03 25-Dec-2016

 -------------
 #p 6-31g* mp2
 -------------

 ------------------------------------------------------
 Input file generated by CHIRIPA (05-May-2021 14:53:14)
 ------------------------------------------------------
 Symbolic Z-matrix:
 Charge =  0 Multiplicity = 1

                         Standard orientation:
 ---------------------------------------------------------------------
 Center     Atomic      Atomic             Coordinates (Angstroms)
 Number     Number       Type             X           Y           Z
 ---------------------------------------------------------------------
      1          6           0       -2.761808    0.681262    0.655452
      2          6           0       -2.724023    2.209789    0.642628
      3          6           0       -1.863715    2.789300    1.765941
      4          1           0       -3.144563    0.338420    1.626484
      5          1           0       -1.736569    0.295354    0.569687
      6          1           0       -3.749149    2.592690    0.727000
      7          1           0       -2.341492    2.549036   -0.328556
      8          1           0       -0.831093    2.435392    1.682029
      9          1           0       -2.246747    2.479294    2.743582
     10          1           0       -1.850718    3.883335    1.738029
     11          6           0       -3.617868    0.087033   -0.461588
     12          6           0       -3.655653   -1.441493   -0.448763
     13          6           0       -4.515960   -2.021005   -1.572076
     14          1           0       -4.643106    0.472942   -0.375823
     15          1           0       -3.235112    0.429876   -1.432620
     16          1           0       -4.038183   -1.780741    0.522420
     17          1           0       -2.630527   -1.824395   -0.533135
     18          1           0       -4.132928   -1.710998   -2.549718
     19          1           0       -5.548583   -1.667097   -1.488165
     20          1           0       -4.528958   -3.115040   -1.544165
     21          6           0        1.690529   -2.183727    1.399222
     22          6           0        0.767027   -1.407012    0.691848
     23          6           0        1.199789   -0.360812   -0.128355
     24          6           0        2.569550   -0.118014   -0.218321
     25          6           0        3.514255   -0.874105    0.473886
     26          6           0        3.058783   -1.915267    1.288180
     27          1           0        1.345529   -2.994484    2.034080
     28          1           0       -0.296182   -1.613218    0.776174
     29          1           0        0.506548    0.256175   -0.687069
     30          1           0        4.567745   -0.644500    0.369683
     31          1           0        3.778263   -2.516831    1.836373
     32          7           0        3.039717    0.986884   -1.083505
     33          8           0        4.251855    1.180487   -1.145760
     34          8           0        2.187192    1.638378   -1.683000
 ---------------------------------------------------------------------

 SCF Done:  E(RHF) =  -669.535037744     A.U. after   15 cycles
 E2 =    -0.2092924340D+01 EUMP2 =    -0.67162796208422D+03

 The electronic state is 1-A.
 Alpha  occ. eigenvalues --  -20.60780 -20.60774 -15.85832 -11.31196 -11.27760
 Alpha  occ. eigenvalues --  -11.27752 -11.27485 -11.26776 -11.26723 -11.22397
 Alpha  occ. eigenvalues --  -11.22111 -11.21991 -11.21948 -11.21628 -11.21281
 Alpha  occ. eigenvalues --   -1.59854  -1.39408  -1.19364  -1.09059  -1.08754
 Alpha  occ. eigenvalues --   -1.04770  -1.04043  -0.96478  -0.95594  -0.87492
 Alpha  occ. eigenvalues --   -0.86161  -0.82442  -0.80128  -0.78920  -0.77460
 Alpha  occ. eigenvalues --   -0.72051  -0.71177  -0.70477  -0.65758  -0.65000
 Alpha  occ. eigenvalues --   -0.64761  -0.62116  -0.61426  -0.59855  -0.58091
 Alpha  occ. eigenvalues --   -0.55762  -0.55255  -0.53156  -0.53104  -0.52908
 Alpha  occ. eigenvalues --   -0.52829  -0.50426  -0.48811  -0.48806  -0.48430
 Alpha  occ. eigenvalues --   -0.47169  -0.46380  -0.46320  -0.44814  -0.44326
 Alpha  occ. eigenvalues --   -0.37337  -0.36350
 Alpha virt. eigenvalues --    0.05021   0.11257   0.16439   0.19203   0.22674
 Alpha virt. eigenvalues --    0.23495   0.24791   0.26117   0.27455   0.28145
 Alpha virt. eigenvalues --    0.29651   0.30960   0.31286   0.31476   0.32497

 Mulliken charges:
               1
     1  C   -0.305317
     2  C   -0.301252
     3  C   -0.476389
     4  H    0.150463
     5  H    0.142702
     6  H    0.154033
     7  H    0.157698
     8  H    0.156715
     9  H    0.153628
    10  H    0.164567
    11  C   -0.299347
    12  C   -0.302916
    13  C   -0.475818
    14  H    0.153782
    15  H    0.153217
    16  H    0.152244
    17  H    0.144708
    18  H    0.158380
    19  H    0.158037
    20  H    0.160921
    21  C   -0.171738
    22  C   -0.223914
    23  C   -0.174553
    24  C    0.158508
    25  C   -0.171055
    26  C   -0.218345
    27  H    0.226190
    28  H    0.232208
    29  H    0.276210
    30  H    0.275631
    31  H    0.223523
    32  N    0.488498
    33  O   -0.460246
    34  O   -0.460976
 Sum of Mulliken charges =  -0.00000

 Dipole moment (field-independent basis, Debye):
    X=             -1.7902    Y=             -3.7987    Z=              3.0213  Tot=              5.1733
 Quadrupole moment (field-independent basis, Debye-Ang):
   XX=            -97.7421   YY=            -94.2590   ZZ=            -96.6327
   XY=            -11.6165   XZ=              8.9326   YZ=             -0.2624

 Normal termination of Gaussian 16 at Thu May  6 07:24:21 2021.
