 Gaussian 16, Revision A.03,
 Gaussian 16:  EM64L-G16RevA.03 25-Dec-2016

 -------------
 #p 6-31g* mp2
 -------------

 ------------------------------------------------------
 Input file generated by CHIRIPA (05-May-2021 14:55:24)
 ------------------------------------------------------
 Symbolic Z-matrix:
 Charge =  0 Multiplicity = 1

                         Standard orientation:
 ---------------------------------------------------------------------
 Center     Atomic      Atomic             Coordinates (Angstroms)
 Number     Number       Type             X           Y           Z
 ---------------------------------------------------------------------
      1          6           0       -0.684993   -2.838100   -0.406104
      2          6           0       -1.610590   -2.318563   -1.317077
      3          6           0       -2.313050   -1.145712   -1.024641
      4          6           0       -2.064030   -0.515392    0.193544
      5          6           0       -1.148168   -1.008232    1.121766
      6          6           0       -0.457138   -2.182432    0.808270
      7          1           0       -0.143745   -3.749722   -0.641455
      8          1           0       -1.789581   -2.825641   -2.260941
      9          1           0       -3.035204   -0.721632   -1.711713
     10          1           0       -0.991184   -0.480396    2.054592
     11          1           0        0.261107   -2.583619    1.517649
     12          7           0       -2.801642    0.726967    0.514281
     13          8           0       -2.564152    1.263406    1.594313
     14          8           0       -3.603307    1.140764   -0.320430
     15          6           0        2.726013    0.196730   -0.163232
     16          6           0        4.183523    0.049888    0.275043
     17          6           0        4.648331   -1.406450    0.303757
     18          1           0        2.085245   -0.380817    0.517063
     19          1           0        2.603755   -0.247882   -1.160613
     20          1           0        4.303294    0.495878    1.270715
     21          1           0        4.820876    0.628006   -0.406262
     22          1           0        4.557506   -1.859460   -0.688782
     23          1           0        4.036984   -1.992340    0.997723
     24          1           0        5.692994   -1.488295    0.619733
     25          6           0        2.246691    1.646849   -0.196916
     26          6           0        0.789180    1.793691   -0.635192
     27          6           0        0.324372    3.250029   -0.663906
     28          1           0        2.368950    2.091460    0.800465
     29          1           0        2.887459    2.224396   -0.877211
     30          1           0        0.151827    1.215571    0.046112
     31          1           0        0.669409    1.347701   -1.630864
     32          1           0        0.935720    3.835918   -1.357872
     33          1           0        0.415198    3.703039    0.328634
     34          1           0       -0.720291    3.331874   -0.979882
 ---------------------------------------------------------------------

 SCF Done:  E(RHF) =  -669.534088901     A.U. after   15 cycles
 E2 =    -0.2095597151D+01 EUMP2 =    -0.67162968605216D+03

 The electronic state is 1-A.
 Alpha  occ. eigenvalues --  -20.60883 -20.60871 -15.85905 -11.31216 -11.27815
 Alpha  occ. eigenvalues --  -11.27800 -11.27556 -11.26841 -11.26826 -11.21839
 Alpha  occ. eigenvalues --  -11.21511 -11.21501 -11.21328 -11.21266 -11.20524
 Alpha  occ. eigenvalues --   -1.59940  -1.39496  -1.19433  -1.08829  -1.08459
 Alpha  occ. eigenvalues --   -1.04838  -1.03515  -0.95959  -0.95663  -0.86974
 Alpha  occ. eigenvalues --   -0.86234  -0.82502  -0.79615  -0.78285  -0.77546
 Alpha  occ. eigenvalues --   -0.72133  -0.71277  -0.70536  -0.65121  -0.65080
 Alpha  occ. eigenvalues --   -0.64837  -0.62182  -0.60924  -0.59363  -0.57561
 Alpha  occ. eigenvalues --   -0.55330  -0.55258  -0.53282  -0.52926  -0.52582
 Alpha  occ. eigenvalues --   -0.52387  -0.49917  -0.48898  -0.48889  -0.47926
 Alpha  occ. eigenvalues --   -0.46683  -0.45791  -0.45732  -0.44828  -0.43748
 Alpha  occ. eigenvalues --   -0.37309  -0.36343
 Alpha virt. eigenvalues --    0.04942   0.11103   0.16378   0.20834   0.22996
 Alpha virt. eigenvalues --    0.24155   0.25981   0.27068   0.27843   0.28221
 Alpha virt. eigenvalues --    0.28693   0.30101   0.31537   0.31753   0.32343

 Mulliken charges:
               1
     1  C   -0.170732
     2  C   -0.218181
     3  C   -0.170833
     4  C    0.161542
     5  C   -0.177221
     6  C   -0.213452
     7  H    0.226326
     8  H    0.223706
     9  H    0.275703
    10  H    0.275180
    11  H    0.223761
    12  N    0.491338
    13  O   -0.460194
    14  O   -0.459984
    15  C   -0.298863
    16  C   -0.299697
    17  C   -0.474191
    18  H    0.145719
    19  H    0.147715
    20  H    0.152426
    21  H    0.153544
    22  H    0.154001
    23  H    0.148292
    24  H    0.161866
    25  C   -0.297914
    26  C   -0.305585
    27  C   -0.476534
    28  H    0.150075
    29  H    0.149524
    30  H    0.155023
    31  H    0.148503
    32  H    0.151537
    33  H    0.159010
    34  H    0.168592
 Sum of Mulliken charges =  -0.00000

 Dipole moment (field-independent basis, Debye):
    X=              2.4550    Y=             -4.3453    Z=             -1.1450  Tot=              5.1205
 Quadrupole moment (field-independent basis, Debye-Ang):
   XX=           -105.3238   YY=            -91.6590   ZZ=            -90.6243
   XY=              8.4043   XZ=              4.9857   YZ=              0.1914

 Normal termination of Gaussian 16 at Thu May  6 17:43:38 2021.
