 Gaussian 16, Revision A.03,
 Gaussian 16:  EM64L-G16RevA.03 25-Dec-2016

 -------------
 #p 6-31g* mp2
 -------------

 ------------------------------------------------------
 Input file generated by CHIRIPA (05-May-2021 14:53:18)
 ------------------------------------------------------
 Symbolic Z-matrix:
 Charge =  0 Multiplicity = 1

                         Standard orientation:
 ---------------------------------------------------------------------
 Center     Atomic      Atomic             Coordinates (Angstroms)
 Number     Number       Type             X           Y           Z
 ---------------------------------------------------------------------
      1          6           0       -4.211340    0.476362   -0.048925
      2          6           0       -4.522942   -0.909166   -0.615672
      3          6           0       -5.981026   -1.055103   -1.052121
      4          1           0       -4.872877    0.673163    0.805817
      5          1           0       -4.445895    1.236257   -0.807172
      6          1           0       -4.286565   -1.666312    0.142926
      7          1           0       -3.860456   -1.102769   -1.469045
      8          1           0       -6.226527   -0.321504   -1.826823
      9          1           0       -6.655057   -0.888248   -0.205692
     10          1           0       -6.181805   -2.053087   -1.454088
     11          6           0       -2.757559    0.637709    0.391774
     12          6           0       -2.445957    2.023236    0.958521
     13          6           0       -0.987874    2.169174    1.394971
     14          1           0       -2.523004   -0.122186    1.150022
     15          1           0       -2.096023    0.440907   -0.462968
     16          1           0       -3.108444    2.216840    1.811894
     17          1           0       -2.682335    2.780382    0.199923
     18          1           0       -0.313842    2.002319    0.548542
     19          1           0       -0.742372    1.435575    2.169672
     20          1           0       -0.787095    3.167157    1.796938
     21          6           0        0.983281   -2.035312    0.750146
     22          6           0        2.268257   -2.022779    1.302594
     23          6           0        3.239734   -1.140447    0.820648
     24          6           0        2.890341   -0.280489   -0.219394
     25          6           0        1.618777   -0.269087   -0.790609
     26          6           0        0.663206   -1.159969   -0.292855
     27          1           0        0.234793   -2.724049    1.130673
     28          1           0        2.519652   -2.701457    2.112682
     29          1           0        4.242188   -1.109666    1.229984
     30          1           0        1.397894    0.419311   -1.597292
     31          1           0       -0.333920   -1.167493   -0.723816
     32          7           0        3.910381    0.658122   -0.737978
     33          8           0        3.577476    1.405734   -1.654976
     34          8           0        5.023479    0.628421   -0.217624
 ---------------------------------------------------------------------

 SCF Done:  E(RHF) =  -669.535090863     A.U. after   15 cycles
 E2 =    -0.2092725372D+01 EUMP2 =    -0.67162781623486D+03

 The electronic state is 1-A.
 Alpha  occ. eigenvalues --  -20.60739 -20.60734 -15.85792 -11.31159 -11.27711
 Alpha  occ. eigenvalues --  -11.27708 -11.27440 -11.26742 -11.26684 -11.22373
 Alpha  occ. eigenvalues --  -11.22222 -11.22094 -11.22049 -11.21667 -11.21362
 Alpha  occ. eigenvalues --   -1.59814  -1.39368  -1.19321  -1.09122  -1.08712
 Alpha  occ. eigenvalues --   -1.04728  -1.04108  -0.96547  -0.95552  -0.87561
 Alpha  occ. eigenvalues --   -0.86120  -0.82393  -0.80186  -0.78995  -0.77422
 Alpha  occ. eigenvalues --   -0.72010  -0.71135  -0.70429  -0.65771  -0.64971
 Alpha  occ. eigenvalues --   -0.64724  -0.62097  -0.61491  -0.59921  -0.58173
 Alpha  occ. eigenvalues --   -0.55838  -0.55221  -0.53216  -0.53176  -0.52988
 Alpha  occ. eigenvalues --   -0.52679  -0.50483  -0.48772  -0.48766  -0.48481
 Alpha  occ. eigenvalues --   -0.47227  -0.46459  -0.46425  -0.44773  -0.44397
 Alpha  occ. eigenvalues --   -0.37289  -0.36273
 Alpha virt. eigenvalues --    0.05066   0.11255   0.16499   0.20104   0.22701
 Alpha virt. eigenvalues --    0.23718   0.24691   0.25947   0.27101   0.28471
 Alpha virt. eigenvalues --    0.29199   0.30879   0.30978   0.31420   0.31596

 Mulliken charges:
               1
     1  C   -0.298107
     2  C   -0.300218
     3  C   -0.475803
     4  H    0.152491
     5  H    0.152534
     6  H    0.149126
     7  H    0.147919
     8  H    0.157472
     9  H    0.157056
    10  H    0.161217
    11  C   -0.299253
    12  C   -0.300573
    13  C   -0.476315
    14  H    0.146220
    15  H    0.142221
    16  H    0.153620
    17  H    0.154417
    18  H    0.156164
    19  H    0.154706
    20  H    0.163525
    21  C   -0.173326
    22  C   -0.218113
    23  C   -0.171306
    24  C    0.159000
    25  C   -0.173421
    26  C   -0.215460
    27  H    0.225576
    28  H    0.223170
    29  H    0.275423
    30  H    0.274467
    31  H    0.228544
    32  N    0.488181
    33  O   -0.460730
    34  O   -0.460425
 Sum of Mulliken charges =  -0.00000

 Dipole moment (field-independent basis, Debye):
    X=             -3.7071    Y=             -3.2356    Z=              1.8761  Tot=              5.2660
 Quadrupole moment (field-independent basis, Debye-Ang):
   XX=           -114.1644   YY=            -92.6978   ZZ=            -93.0832
   XY=            -10.3274   XZ=              8.0601   YZ=             -1.5415

 Normal termination of Gaussian 16 at Thu May  6 17:21:22 2021.
