 Gaussian 16, Revision A.03,
 Gaussian 16:  EM64L-G16RevA.03 25-Dec-2016

 -------------
 #p 6-31g* mp2
 -------------

 ------------------------------------------------------
 Input file generated by CHIRIPA (05-May-2021 14:51:13)
 ------------------------------------------------------
 Symbolic Z-matrix:
 Charge =  0 Multiplicity = 1

                         Standard orientation:
 ---------------------------------------------------------------------
 Center     Atomic      Atomic             Coordinates (Angstroms)
 Number     Number       Type             X           Y           Z
 ---------------------------------------------------------------------
      1          6           0        3.035424    0.366581   -0.412182
      2          6           0        3.488877    1.646607    0.290599
      3          6           0        4.015433    2.701014   -0.683444
      4          1           0        3.876937   -0.048053   -0.983917
      5          1           0        2.253352    0.615131   -1.142922
      6          1           0        4.268886    1.395523    1.020777
      7          1           0        2.646241    2.058138    0.860881
      8          1           0        3.240617    2.980232   -1.404761
      9          1           0        4.872481    2.313852   -1.243957
     10          1           0        4.334101    3.607736   -0.159835
     11          6           0        2.506436   -0.697050    0.548332
     12          6           0        2.052983   -1.977076   -0.154448
     13          6           0        1.526428   -3.031483    0.819594
     14          1           0        3.288508   -0.945600    1.279072
     15          1           0        1.664924   -0.282416    1.120067
     16          1           0        2.895619   -2.388607   -0.724731
     17          1           0        1.272975   -1.725992   -0.884626
     18          1           0        0.669380   -2.644321    1.380108
     19          1           0        2.301244   -3.310701    1.540912
     20          1           0        1.207760   -3.938205    0.295986
     21          6           0       -2.940960   -0.496171   -0.410221
     22          6           0       -2.015353   -1.643878   -0.005246
     23          6           0       -2.368161   -2.960442   -0.698050
     24          1           0       -3.978520   -0.769691   -0.174422
     25          1           0       -2.892841   -0.362593   -1.499825
     26          1           0       -2.064152   -1.774346    1.083430
     27          1           0       -0.979856   -1.367516   -0.241859
     28          1           0       -2.300960   -2.853575   -1.785553
     29          1           0       -3.391416   -3.262717   -0.452733
     30          1           0       -1.693977   -3.767272   -0.394137
     31          6           0       -2.600900    0.826640    0.274071
     32          6           0       -3.526507    1.974347   -0.130905
     33          6           0       -3.173699    3.290911    0.561899
     34          1           0       -2.649019    0.693062    1.363675
     35          1           0       -1.563341    1.100160    0.038271
     36          1           0       -4.562004    1.697985    0.105709
     37          1           0       -3.477709    2.104815   -1.219580
     38          1           0       -2.150444    3.593186    0.316583
     39          1           0       -3.240900    3.184044    1.649402
     40          1           0       -3.847883    4.097741    0.257987
 ---------------------------------------------------------------------

 SCF Done:  E(RHF) =  -470.732767127     A.U. after   11 cycles
 E2 =    -0.1584092750D+01 EUMP2 =    -0.47231685987732D+03

 The electronic state is 1-A.
 Alpha  occ. eigenvalues --  -11.21642 -11.21619 -11.21601 -11.21596 -11.21449
 Alpha  occ. eigenvalues --  -11.21424 -11.21383 -11.21362 -11.21107 -11.21089
 Alpha  occ. eigenvalues --  -11.21065 -11.21022  -1.08495  -1.08420  -1.03623
 Alpha  occ. eigenvalues --   -1.03476  -0.96051  -0.95938  -0.87032  -0.86990
 Alpha  occ. eigenvalues --   -0.79637  -0.79599  -0.78294  -0.78259  -0.65283
 Alpha  occ. eigenvalues --   -0.64933  -0.61230  -0.60743  -0.59432  -0.59263
 Alpha  occ. eigenvalues --   -0.57649  -0.57564  -0.55344  -0.55180  -0.52773
 Alpha  occ. eigenvalues --   -0.52619  -0.52451  -0.52360  -0.49981  -0.49893
 Alpha  occ. eigenvalues --   -0.48108  -0.47761  -0.46858  -0.46475  -0.45976
 Alpha  occ. eigenvalues --   -0.45819  -0.45670  -0.45526  -0.43858  -0.43741
 Alpha virt. eigenvalues --    0.20215   0.22885   0.23469   0.25156   0.25646
 Alpha virt. eigenvalues --    0.26194   0.26923   0.27556   0.29052   0.29399
 Alpha virt. eigenvalues --    0.30026   0.30848   0.31232   0.31947   0.32775

 Mulliken charges:
               1
     1  C   -0.298040
     2  C   -0.299750
     3  C   -0.475678
     4  H    0.149841
     5  H    0.148520
     6  H    0.152120
     7  H    0.152074
     8  H    0.154918
     9  H    0.155250
    10  H    0.160415
    11  C   -0.299986
    12  C   -0.303169
    13  C   -0.479177
    14  H    0.149919
    15  H    0.150879
    16  H    0.152770
    17  H    0.153421
    18  H    0.160282
    19  H    0.154849
    20  H    0.160090
    21  C   -0.297797
    22  C   -0.307237
    23  C   -0.477553
    24  H    0.149816
    25  H    0.149307
    26  H    0.151362
    27  H    0.160292
    28  H    0.154702
    29  H    0.155198
    30  H    0.163047
    31  C   -0.298463
    32  C   -0.299631
    33  C   -0.475731
    34  H    0.149537
    35  H    0.148632
    36  H    0.152241
    37  H    0.152005
    38  H    0.154982
    39  H    0.155262
    40  H    0.160482
 Sum of Mulliken charges =  -0.00000

 Dipole moment (field-independent basis, Debye):
    X=             -0.0028    Y=             -0.0100    Z=              0.0143  Tot=              0.0177
 Quadrupole moment (field-independent basis, Debye-Ang):
   XX=            -83.6675   YY=            -86.3667   ZZ=            -84.6970
   XY=             -0.6798   XZ=             -0.2191   YZ=             -0.1636

 Normal termination of Gaussian 16 at Wed May  5 21:35:33 2021.
