 Gaussian 16, Revision A.03,
 Gaussian 16:  EM64L-G16RevA.03 25-Dec-2016

 -------------
 #p 6-31g* mp2
 -------------

 ------------------------------------------------------
 Input file generated by CHIRIPA (05-May-2021 14:51:11)
 ------------------------------------------------------
 Symbolic Z-matrix:
 Charge =  0 Multiplicity = 1

                         Standard orientation:
 ---------------------------------------------------------------------
 Center     Atomic      Atomic             Coordinates (Angstroms)
 Number     Number       Type             X           Y           Z
 ---------------------------------------------------------------------
      1          6           0        1.811561    1.282314   -0.605199
      2          6           0        0.667864    2.259619   -0.331675
      3          6           0        0.133648    2.915770   -1.605203
      4          1           0        2.626409    1.814716   -1.114627
      5          1           0        1.462862    0.505966   -1.300245
      6          1           0        1.018208    3.033109    0.363730
      7          1           0       -0.144277    1.724871    0.177332
      8          1           0       -0.242115    2.158118   -2.300449
      9          1           0        0.926975    3.473788   -2.112992
     10          1           0       -0.683277    3.610528   -1.386562
     11          6           0        2.356241    0.618310    0.658189
     12          6           0        3.499938   -0.358995    0.384665
     13          6           0        4.034154   -1.015146    1.658193
     14          1           0        2.704941    1.394657    1.353235
     15          1           0        1.541394    0.085907    1.167617
     16          1           0        4.312079    0.175752   -0.124342
     17          1           0        3.149594   -1.132485   -0.310741
     18          1           0        3.240827   -1.573165    2.165982
     19          1           0        4.409917   -0.257494    2.353439
     20          1           0        4.851079   -1.709904    1.439552
     21          6           0       -2.807485   -0.799500    0.166155
     22          6           0       -2.966130    0.498855    0.958046
     23          6           0       -4.419363    0.786864    1.336145
     24          1           0       -3.420469   -0.743731   -0.743837
     25          1           0       -3.205074   -1.634031    0.760188
     26          1           0       -2.567099    1.330495    0.363265
     27          1           0       -2.352547    0.440066    1.866163
     28          1           0       -4.825380   -0.023244    1.950536
     29          1           0       -5.041150    0.872245    0.439100
     30          1           0       -4.509781    1.719546    1.901645
     31          6           0       -1.360317   -1.101124   -0.219145
     32          6           0       -1.201672   -2.399479   -1.011036
     33          6           0        0.251560   -2.687487   -1.389135
     34          1           0       -0.962728   -0.266592   -0.813178
     35          1           0       -0.747334   -1.156893    0.690847
     36          1           0       -1.815255   -2.340688   -1.919153
     37          1           0       -1.600703   -3.231119   -0.416255
     38          1           0        0.873348   -2.772869   -0.492089
     39          1           0        0.657578   -1.877379   -2.003526
     40          1           0        0.341979   -3.620169   -1.954634
 ---------------------------------------------------------------------

 SCF Done:  E(RHF) =  -470.731479498     A.U. after   11 cycles
 E2 =    -0.1586943042D+01 EUMP2 =    -0.47231842253921D+03

 The electronic state is 1-A.
 Alpha  occ. eigenvalues --  -11.21701 -11.21666 -11.21500 -11.21483 -11.21446
 Alpha  occ. eigenvalues --  -11.21423 -11.21302 -11.21243 -11.21188 -11.21119
 Alpha  occ. eigenvalues --  -11.21086 -11.21033  -1.08583  -1.08303  -1.03625
 Alpha  occ. eigenvalues --   -1.03472  -0.96074  -0.95933  -0.87095  -0.86946
 Alpha  occ. eigenvalues --   -0.79712  -0.79535  -0.78442  -0.78106  -0.65344
 Alpha  occ. eigenvalues --   -0.64856  -0.61067  -0.60864  -0.59461  -0.59276
 Alpha  occ. eigenvalues --   -0.57707  -0.57515  -0.55458  -0.55141  -0.52769
 Alpha  occ. eigenvalues --   -0.52649  -0.52485  -0.52359  -0.50018  -0.49911
 Alpha  occ. eigenvalues --   -0.48109  -0.47840  -0.46900  -0.46598  -0.46252
 Alpha  occ. eigenvalues --   -0.45816  -0.45394  -0.45060  -0.43865  -0.43706
 Alpha virt. eigenvalues --    0.19934   0.21884   0.23314   0.23997   0.25133
 Alpha virt. eigenvalues --    0.25787   0.26938   0.28250   0.28889   0.30023
 Alpha virt. eigenvalues --    0.30502   0.31360   0.31747   0.31899   0.32430

 Mulliken charges:
               1
     1  C   -0.302441
     2  C   -0.310511
     3  C   -0.476885
     4  H    0.149329
     5  H    0.153435
     6  H    0.152225
     7  H    0.162930
     8  H    0.153487
     9  H    0.155829
    10  H    0.159933
    11  C   -0.300645
    12  C   -0.303516
    13  C   -0.475546
    14  H    0.149049
    15  H    0.152671
    16  H    0.151520
    17  H    0.156326
    18  H    0.153893
    19  H    0.155101
    20  H    0.160162
    21  C   -0.297220
    22  C   -0.304548
    23  C   -0.475378
    24  H    0.149765
    25  H    0.149676
    26  H    0.156436
    27  H    0.151927
    28  H    0.155310
    29  H    0.155383
    30  H    0.160641
    31  C   -0.308442
    32  C   -0.299543
    33  C   -0.480701
    34  H    0.158177
    35  H    0.151676
    36  H    0.152204
    37  H    0.152249
    38  H    0.157206
    39  H    0.157648
    40  H    0.161190
 Sum of Mulliken charges =  -0.00000

 Dipole moment (field-independent basis, Debye):
    X=             -0.0631    Y=             -0.0362    Z=             -0.0041  Tot=              0.0728
 Quadrupole moment (field-independent basis, Debye-Ang):
   XX=            -85.6165   YY=            -84.4204   ZZ=            -84.8504
   XY=              1.0178   XZ=              0.0708   YZ=              0.0437

 Normal termination of Gaussian 16 at Thu May  6 05:27:14 2021.
