 Gaussian 16, Revision A.03,
 Gaussian 16:  EM64L-G16RevA.03 25-Dec-2016

 -------------
 #p 6-31g* mp2
 -------------

 ------------------------------------------------------
 Input file generated by CHIRIPA (05-May-2021 14:55:24)
 ------------------------------------------------------
 Symbolic Z-matrix:
 Charge =  0 Multiplicity = 1

                         Standard orientation:
 ---------------------------------------------------------------------
 Center     Atomic      Atomic             Coordinates (Angstroms)
 Number     Number       Type             X           Y           Z
 ---------------------------------------------------------------------
      1          6           0        4.240845   -2.114608   -0.120292
      2          6           0        4.632899   -1.112811   -1.014282
      3          6           0        4.082819    0.169662   -0.929286
      4          6           0        3.138939    0.416644    0.066395
      5          6           0        2.727893   -0.560376    0.971803
      6          6           0        3.291268   -1.835685    0.868154
      7          1           0        4.673324   -3.108082   -0.193564
      8          1           0        5.370149   -1.326567   -1.782927
      9          1           0        4.368304    0.963834   -1.608408
     10          1           0        1.990814   -0.317164    1.727435
     11          1           0        2.984904   -2.611743    1.563798
     12          7           0        2.549557    1.770549    0.166250
     13          8           0        1.719815    1.962704    1.052388
     14          8           0        2.928501    2.613948   -0.643514
     15          6           0       -3.481840   -0.492024   -0.360036
     16          6           0       -2.272657   -0.195425    0.527596
     17          6           0       -0.958962   -0.690268   -0.078318
     18          1           0       -3.542541   -1.574706   -0.536280
     19          1           0       -3.330570   -0.023433   -1.342347
     20          1           0       -2.426787   -0.663274    1.508401
     21          1           0       -2.214939    0.886656    0.701904
     22          1           0       -0.778388   -0.214360   -1.047599
     23          1           0       -0.991441   -1.773097   -0.236521
     24          1           0       -0.107696   -0.467895    0.572648
     25          6           0       -4.802516   -0.003348    0.232194
     26          6           0       -6.011700   -0.299947   -0.655437
     27          6           0       -7.325393    0.194896   -0.049523
     28          1           0       -4.953786   -0.471939    1.214505
     29          1           0       -4.741815    1.079334    0.408439
     30          1           0       -6.069418   -1.382028   -0.829746
     31          1           0       -5.857569    0.167903   -1.636241
     32          1           0       -7.292915    1.277725    0.108680
     33          1           0       -7.505967   -0.281012    0.919759
     34          1           0       -8.176660   -0.027476   -0.700489
 ---------------------------------------------------------------------

 SCF Done:  E(RHF) =  -669.535055561     A.U. after   15 cycles
 E2 =    -0.2092169263D+01 EUMP2 =    -0.67162722482354D+03

 The electronic state is 1-A.
 Alpha  occ. eigenvalues --  -20.60828 -20.60814 -15.85859 -11.31199 -11.27777
 Alpha  occ. eigenvalues --  -11.27769 -11.27511 -11.26782 -11.26772 -11.21385
 Alpha  occ. eigenvalues --  -11.21237 -11.21131 -11.21070 -11.20873 -11.20809
 Alpha  occ. eigenvalues --   -1.59886  -1.39443  -1.19378  -1.08774  -1.08156
 Alpha  occ. eigenvalues --   -1.04785  -1.03265  -0.95754  -0.95600  -0.86776
 Alpha  occ. eigenvalues --   -0.86174  -0.82449  -0.79335  -0.77965  -0.77503
 Alpha  occ. eigenvalues --   -0.72085  -0.71203  -0.70506  -0.65034  -0.64800
 Alpha  occ. eigenvalues --   -0.64783  -0.62176  -0.60658  -0.59102  -0.57343
 Alpha  occ. eigenvalues --   -0.55287  -0.55023  -0.53217  -0.52923  -0.52296
 Alpha  occ. eigenvalues --   -0.52133  -0.49679  -0.48845  -0.48838  -0.47647
 Alpha  occ. eigenvalues --   -0.46354  -0.45510  -0.45428  -0.44849  -0.43515
 Alpha  occ. eigenvalues --   -0.37341  -0.36340
 Alpha virt. eigenvalues --    0.05012   0.11197   0.16529   0.21181   0.23138
 Alpha virt. eigenvalues --    0.24405   0.26865   0.26932   0.27749   0.27897
 Alpha virt. eigenvalues --    0.28840   0.30496   0.31638   0.31655   0.32156

 Mulliken charges:
               1
     1  C   -0.170630
     2  C   -0.218319
     3  C   -0.171069
     4  C    0.161432
     5  C   -0.170257
     6  C   -0.218752
     7  H    0.225665
     8  H    0.223453
     9  H    0.275536
    10  H    0.275013
    11  H    0.223688
    12  N    0.488756
    13  O   -0.461189
    14  O   -0.459937
    15  C   -0.298617
    16  C   -0.299387
    17  C   -0.478408
    18  H    0.146648
    19  H    0.150425
    20  H    0.148011
    21  H    0.161743
    22  H    0.156908
    23  H    0.148624
    24  H    0.160940
    25  C   -0.298328
    26  C   -0.299439
    27  C   -0.475621
    28  H    0.148349
    29  H    0.151985
    30  H    0.150504
    31  H    0.152232
    32  H    0.156050
    33  H    0.154538
    34  H    0.159457
 Sum of Mulliken charges =  -0.00000

 Dipole moment (field-independent basis, Debye):
    X=              2.1594    Y=             -4.6795    Z=             -0.3567  Tot=              5.1660
 Quadrupole moment (field-independent basis, Debye-Ang):
   XX=            -81.9094   YY=            -98.2286   ZZ=            -92.0462
   XY=            -13.2884   XZ=             -3.3261   YZ=             -2.3512

 Normal termination of Gaussian 16 at Thu May  6 06:22:15 2021.
