 Gaussian 16, Revision A.03,
 Gaussian 16:  EM64L-G16RevA.03 25-Dec-2016

 -------------
 #p 6-31g* mp2
 -------------

 ------------------------------------------------------
 Input file generated by CHIRIPA (05-May-2021 14:57:23)
 ------------------------------------------------------
 Symbolic Z-matrix:
 Charge =  0 Multiplicity = 1

                         Standard orientation:
 ---------------------------------------------------------------------
 Center     Atomic      Atomic             Coordinates (Angstroms)
 Number     Number       Type             X           Y           Z
 ---------------------------------------------------------------------
      1          6           0        5.570826   -1.300644    0.455228
      2          6           0        4.376325   -1.672288    1.080984
      3          6           0        3.191878   -0.976896    0.820095
      4          6           0        3.238356    0.089903   -0.076047
      5          6           0        4.412715    0.484295   -0.715287
      6          6           0        5.585183   -0.225435   -0.439333
      7          1           0        6.486280   -1.846410    0.663744
      8          1           0        4.362199   -2.506897    1.776162
      9          1           0        2.253236   -1.243333    1.290606
     10          1           0        4.395440    1.320620   -1.403530
     11          1           0        6.511391    0.065419   -0.926763
     12          7           0        1.990776    0.833673   -0.360212
     13          8           0        2.058196    1.769856   -1.153719
     14          8           0        0.969126    0.466374    0.215946
     15          6           0       -2.329825    2.152317    0.824028
     16          6           0       -3.140282    1.418067    1.696127
     17          6           0       -3.762583    0.242159    1.266559
     18          6           0       -3.551684   -0.172240   -0.047628
     19          6           0       -2.749949    0.537415   -0.940319
     20          6           0       -2.137584    1.710427   -0.489098
     21          1           0       -1.850266    3.064666    1.166137
     22          1           0       -3.291369    1.758853    2.716463
     23          1           0       -4.395078   -0.345593    1.920711
     24          1           0       -2.618208    0.172494   -1.951702
     25          1           0       -1.508703    2.278630   -1.168583
     26          7           0       -4.205226   -1.415589   -0.513853
     27          8           0       -4.003493   -1.759390   -1.676498
     28          8           0       -4.906832   -2.022779    0.292190
 ---------------------------------------------------------------------

 SCF Done:  E(RHF) =  -868.339344374     A.U. after   16 cycles
 E2 =    -0.2599484117D+01 EUMP2 =    -0.87093882849196D+03

 The electronic state is 1-A.
 Alpha  occ. eigenvalues --  -20.61493 -20.61472 -20.59787 -20.59776 -15.86497
 Alpha  occ. eigenvalues --  -15.84822 -11.31634 -11.29863 -11.28186 -11.28161
 Alpha  occ. eigenvalues --  -11.27877 -11.27144 -11.27123 -11.26424 -11.26274
 Alpha  occ. eigenvalues --  -11.25997 -11.25434 -11.25168  -1.60559  -1.58865
 Alpha  occ. eigenvalues --   -1.40112  -1.38428  -1.19788  -1.17968  -1.09229
 Alpha  occ. eigenvalues --   -1.07424  -1.05153  -1.03321  -0.96101  -0.94329
 Alpha  occ. eigenvalues --   -0.86562  -0.84743  -0.82935  -0.81179  -0.78012
 Alpha  occ. eigenvalues --   -0.76271  -0.72728  -0.71859  -0.71055  -0.70892
 Alpha  occ. eigenvalues --   -0.70181  -0.69105  -0.65441  -0.65155  -0.63631
 Alpha  occ. eigenvalues --   -0.63336  -0.62501  -0.60701  -0.55667  -0.53849
 Alpha  occ. eigenvalues --   -0.53497  -0.53242  -0.51706  -0.51434  -0.49510
 Alpha  occ. eigenvalues --   -0.49417  -0.47824  -0.47776  -0.45564  -0.43908
 Alpha  occ. eigenvalues --   -0.37756  -0.36746  -0.35885  -0.34830
 Alpha virt. eigenvalues --    0.04492   0.06247   0.10912   0.12798   0.16038
 Alpha virt. eigenvalues --    0.17864   0.21087   0.22796   0.27009   0.27964
 Alpha virt. eigenvalues --    0.28730   0.29593   0.30670   0.32156   0.32360

 Mulliken charges:
               1
     1  C   -0.169908
     2  C   -0.218517
     3  C   -0.170522
     4  C    0.157576
     5  C   -0.170706
     6  C   -0.218576
     7  H    0.227394
     8  H    0.225601
     9  H    0.277127
    10  H    0.275152
    11  H    0.224646
    12  N    0.488357
    13  O   -0.466473
    14  O   -0.458924
    15  C   -0.167118
    16  C   -0.219229
    17  C   -0.174737
    18  C    0.157495
    19  C   -0.172672
    20  C   -0.196640
    21  H    0.222696
    22  H    0.216849
    23  H    0.269358
    24  H    0.271441
    25  H    0.231452
    26  N    0.487993
    27  O   -0.463591
    28  O   -0.465524
 Sum of Mulliken charges =  -0.00000

 Dipole moment (field-independent basis, Debye):
    X=              7.2194    Y=              1.8579    Z=              2.5847  Tot=              7.8900
 Quadrupole moment (field-independent basis, Debye-Ang):
   XX=            -92.8507   YY=           -106.1011   ZZ=           -100.0305
   XY=            -22.9843   XZ=             -6.5179   YZ=             -3.2741

 Normal termination of Gaussian 16 at Fri May  7 12:32:37 2021.
