 Gaussian 16, Revision A.03,
 Gaussian 16:  EM64L-G16RevA.03 25-Dec-2016

 -------------
 #p 6-31g* mp2
 -------------

 ------------------------------------------------------
 Input file generated by CHIRIPA (05-May-2021 14:57:22)
 ------------------------------------------------------
 Symbolic Z-matrix:
 Charge =  0 Multiplicity = 1

                         Standard orientation:
 ---------------------------------------------------------------------
 Center     Atomic      Atomic             Coordinates (Angstroms)
 Number     Number       Type             X           Y           Z
 ---------------------------------------------------------------------
      1          6           0        1.739732    1.422947    2.069049
      2          6           0        2.238328    2.055673    0.925554
      3          6           0        2.591051    1.308803   -0.202417
      4          6           0        2.431516   -0.075143   -0.152088
      5          6           0        1.937464   -0.734678    0.972286
      6          6           0        1.591153    0.032243    2.088731
      7          1           0        1.468218    2.010922    2.940808
      8          1           0        2.354780    3.135560    0.907428
      9          1           0        2.979440    1.772930   -1.100836
     10          1           0        1.832589   -1.812768    0.960417
     11          1           0        1.204188   -0.461835    2.975405
     12          7           0        2.801534   -0.876434   -1.340119
     13          8           0        2.651519   -2.094337   -1.270503
     14          8           0        3.234564   -0.271412   -2.318418
     15          6           0       -2.675757    2.132946   -1.259136
     16          6           0       -2.006013    2.101115   -0.031558
     17          6           0       -1.831094    0.893448    0.650712
     18          6           0       -2.341025   -0.268628    0.073788
     19          6           0       -3.012817   -0.269407   -1.147680
     20          6           0       -3.176141    0.949669   -1.812304
     21          1           0       -2.807135    3.075522   -1.782286
     22          1           0       -1.616355    3.018504    0.400425
     23          1           0       -1.316578    0.840134    1.602473
     24          1           0       -3.390149   -1.200330   -1.553168
     25          1           0       -3.696690    0.971385   -2.765510
     26          7           0       -2.161984   -1.553170    0.786736
     27          8           0       -2.620602   -2.563094    0.257246
     28          8           0       -1.566424   -1.525747    1.861536
 ---------------------------------------------------------------------

 SCF Done:  E(RHF) =  -868.338474642     A.U. after   16 cycles
 E2 =    -0.2602650487D+01 EUMP2 =    -0.87094112512893D+03

 The electronic state is 1-A.
 Alpha  occ. eigenvalues --  -20.61174 -20.61109 -20.60691 -20.60664 -15.86178
 Alpha  occ. eigenvalues --  -15.85729 -11.31359 -11.31147 -11.27932 -11.27906
 Alpha  occ. eigenvalues --  -11.27751 -11.27675 -11.27550 -11.27491 -11.26953
 Alpha  occ. eigenvalues --  -11.26882 -11.26864 -11.26578  -1.60203  -1.59755
 Alpha  occ. eigenvalues --   -1.39767  -1.39304  -1.19540  -1.19316  -1.08969
 Alpha  occ. eigenvalues --   -1.08738  -1.04921  -1.04683  -0.95832  -0.95550
 Alpha  occ. eigenvalues --   -0.86341  -0.86095  -0.82695  -0.82329  -0.77764
 Alpha  occ. eigenvalues --   -0.77351  -0.72423  -0.71946  -0.71516  -0.71078
 Alpha  occ. eigenvalues --   -0.70670  -0.70442  -0.65207  -0.64980  -0.64926
 Alpha  occ. eigenvalues --   -0.64660  -0.62303  -0.61986  -0.55461  -0.55258
 Alpha  occ. eigenvalues --   -0.53484  -0.53114  -0.52750  -0.52725  -0.49179
 Alpha  occ. eigenvalues --   -0.49137  -0.48714  -0.48693  -0.45219  -0.44695
 Alpha  occ. eigenvalues --   -0.37542  -0.37416  -0.36446  -0.36212
 Alpha virt. eigenvalues --    0.04757   0.05118   0.11027   0.11363   0.16197
 Alpha virt. eigenvalues --    0.16640   0.20810   0.21859   0.26924   0.27110
 Alpha virt. eigenvalues --    0.28282   0.28753   0.30886   0.31068   0.32183

 Mulliken charges:
               1
     1  C   -0.184010
     2  C   -0.219253
     3  C   -0.171725
     4  C    0.158422
     5  C   -0.171653
     6  C   -0.215877
     7  H    0.223144
     8  H    0.219562
     9  H    0.273867
    10  H    0.284499
    11  H    0.237704
    12  N    0.487621
    13  O   -0.456230
    14  O   -0.462788
    15  C   -0.169857
    16  C   -0.218933
    17  C   -0.164001
    18  C    0.155568
    19  C   -0.168857
    20  C   -0.218430
    21  H    0.225687
    22  H    0.218378
    23  H    0.270709
    24  H    0.277484
    25  H    0.225215
    26  N    0.490027
    27  O   -0.454571
    28  O   -0.471701
 Sum of Mulliken charges =  -0.00000

 Dipole moment (field-independent basis, Debye):
    X=             -1.9878    Y=              7.0323    Z=              1.6047  Tot=              7.4819
 Quadrupole moment (field-independent basis, Debye-Ang):
   XX=           -107.9685   YY=           -103.8653   ZZ=           -103.3713
   XY=             -1.2377   XZ=             18.1522   YZ=             -0.3402

 Normal termination of Gaussian 16 at Thu May  6 06:34:18 2021.
