 Gaussian 16, Revision A.03,
 Gaussian 16:  EM64L-G16RevA.03 25-Dec-2016

 -------------
 #p 6-31g* mp2
 -------------

 ------------------------------------------------------
 Input file generated by CHIRIPA (05-May-2021 14:55:23)
 ------------------------------------------------------
 Symbolic Z-matrix:
 Charge =  0 Multiplicity = 1

                         Standard orientation:
 ---------------------------------------------------------------------
 Center     Atomic      Atomic             Coordinates (Angstroms)
 Number     Number       Type             X           Y           Z
 ---------------------------------------------------------------------
      1          6           0        0.449790    0.169023    1.055811
      2          6           0        1.180340   -0.993149    1.324464
      3          6           0        2.480124   -1.144415    0.832297
      4          6           0        3.020824   -0.108957    0.071534
      5          6           0        2.318284    1.060920   -0.213276
      6          6           0        1.020088    1.190547    0.289150
      7          1           0       -0.559297    0.278125    1.442123
      8          1           0        0.739983   -1.788114    1.919578
      9          1           0        3.068038   -2.033561    1.025152
     10          1           0        2.784057    1.836142   -0.809517
     11          1           0        0.455076    2.094213    0.078925
     12          7           0        4.396006   -0.257641   -0.454932
     13          8           0        4.849734    0.669152   -1.122631
     14          8           0        4.994107   -1.298158   -0.189908
     15          6           0       -3.618298   -0.530403   -0.619765
     16          6           0       -4.196838   -1.719493    0.147920
     17          6           0       -4.273995   -2.989510   -0.699958
     18          1           0       -4.234222   -0.341966   -1.509751
     19          1           0       -2.614757   -0.791005   -0.983617
     20          1           0       -5.198434   -1.456231    0.511397
     21          1           0       -3.579575   -1.905001    1.036284
     22          1           0       -3.278354   -3.279387   -1.051060
     23          1           0       -4.906410   -2.828067   -1.578929
     24          1           0       -4.690444   -3.826993   -0.131581
     25          6           0       -3.534795    0.746599    0.214514
     26          6           0       -2.956255    1.935690   -0.553172
     27          6           0       -2.879098    3.205706    0.294706
     28          1           0       -4.538336    1.007201    0.578364
     29          1           0       -2.918871    0.558162    1.104498
     30          1           0       -3.573517    2.121198   -1.441536
     31          1           0       -1.954660    1.672427   -0.916650
     32          1           0       -2.246683    3.044263    1.173676
     33          1           0       -3.874738    3.495583    0.645808
     34          1           0       -2.462650    4.043189   -0.273672
 ---------------------------------------------------------------------

 SCF Done:  E(RHF) =  -669.535284802     A.U. after   15 cycles
 E2 =    -0.2092726302D+01 EUMP2 =    -0.67162801110369D+03

 The electronic state is 1-A.
 Alpha  occ. eigenvalues --  -20.60772 -20.60767 -15.85826 -11.31203 -11.27773
 Alpha  occ. eigenvalues --  -11.27764 -11.27492 -11.26786 -11.26762 -11.22724
 Alpha  occ. eigenvalues --  -11.22556 -11.22434 -11.22267 -11.22234 -11.21724
 Alpha  occ. eigenvalues --   -1.59848  -1.39401  -1.19375  -1.09461  -1.08763
 Alpha  occ. eigenvalues --   -1.04781  -1.04500  -0.96947  -0.95601  -0.87952
 Alpha  occ. eigenvalues --   -0.86175  -0.82434  -0.80567  -0.79243  -0.77478
 Alpha  occ. eigenvalues --   -0.72044  -0.71171  -0.70533  -0.66151  -0.65022
 Alpha  occ. eigenvalues --   -0.64747  -0.62229  -0.61778  -0.60316  -0.58541
 Alpha  occ. eigenvalues --   -0.56327  -0.55219  -0.53612  -0.53345  -0.53106
 Alpha  occ. eigenvalues --   -0.52858  -0.50884  -0.48870  -0.48804  -0.48797
 Alpha  occ. eigenvalues --   -0.47620  -0.46780  -0.46688  -0.44804  -0.44757
 Alpha  occ. eigenvalues --   -0.37343  -0.36377
 Alpha virt. eigenvalues --    0.05038   0.11158   0.16456   0.18142   0.22618
 Alpha virt. eigenvalues --    0.23651   0.24776   0.25817   0.26716   0.28246
 Alpha virt. eigenvalues --    0.29869   0.30136   0.30786   0.31187   0.31550

 Mulliken charges:
               1
     1  C   -0.175574
     2  C   -0.220865
     3  C   -0.170671
     4  C    0.158556
     5  C   -0.171194
     6  C   -0.224589
     7  H    0.234018
     8  H    0.223759
     9  H    0.275673
    10  H    0.275882
    11  H    0.228466
    12  N    0.487985
    13  O   -0.460296
    14  O   -0.460370
    15  C   -0.301114
    16  C   -0.299021
    17  C   -0.476483
    18  H    0.153948
    19  H    0.152258
    20  H    0.154250
    21  H    0.146529
    22  H    0.156441
    23  H    0.157658
    24  H    0.162146
    25  C   -0.300643
    26  C   -0.306719
    27  C   -0.478243
    28  H    0.155274
    29  H    0.139785
    30  H    0.158819
    31  H    0.150855
    32  H    0.148899
    33  H    0.161433
    34  H    0.163147
 Sum of Mulliken charges =  -0.00000

 Dipole moment (field-independent basis, Debye):
    X=             -5.0519    Y=              0.5162    Z=              1.7392  Tot=              5.3677
 Quadrupole moment (field-independent basis, Debye-Ang):
   XX=           -122.8404   YY=            -91.5193   ZZ=            -94.4085
   XY=              1.3214   XZ=              6.0411   YZ=             -3.0190

 Normal termination of Gaussian 16 at Thu May  6 10:59:29 2021.
