 Gaussian 16, Revision A.03,
 Gaussian 16:  EM64L-G16RevA.03 25-Dec-2016

 -------------
 #p 6-31g* mp2
 -------------

 ------------------------------------------------------
 Input file generated by CHIRIPA (05-May-2021 14:55:23)
 ------------------------------------------------------
 Symbolic Z-matrix:
 Charge =  0 Multiplicity = 1

                         Standard orientation:
 ---------------------------------------------------------------------
 Center     Atomic      Atomic             Coordinates (Angstroms)
 Number     Number       Type             X           Y           Z
 ---------------------------------------------------------------------
      1          6           0        2.476970   -2.244593    0.407348
      2          6           0        2.175585   -1.352575    1.441752
      3          6           0        2.370710    0.021557    1.273723
      4          6           0        2.871039    0.471147    0.052727
      5          6           0        3.180814   -0.392476   -0.996789
      6          6           0        2.977740   -1.762547   -0.806481
      7          1           0        2.322305   -3.310474    0.546531
      8          1           0        1.786551   -1.724101    2.385504
      9          1           0        2.145767    0.734289    2.057835
     10          1           0        3.567258    0.007784   -1.926236
     11          1           0        3.212678   -2.452976   -1.611563
     12          7           0        3.081817    1.923729   -0.136951
     13          8           0        3.523759    2.294570   -1.222216
     14          8           0        2.801091    2.663917    0.803237
     15          6           0       -2.896207   -0.481952   -0.007734
     16          6           0       -2.572319   -1.918848   -0.418111
     17          6           0       -1.099565   -2.274621   -0.212650
     18          1           0       -2.266663    0.208441   -0.585643
     19          1           0       -2.627671   -0.340230    1.048295
     20          1           0       -2.842671   -2.058214   -1.472673
     21          1           0       -3.202843   -2.605891    0.160705
     22          1           0       -0.819634   -2.163562    0.839922
     23          1           0       -0.457416   -1.612773   -0.802738
     24          1           0       -0.890159   -3.306210   -0.512369
     25          6           0       -4.364722   -0.111312   -0.207276
     26          6           0       -4.688609    1.325584    0.203100
     27          6           0       -6.161364    1.681357   -0.002361
     28          1           0       -4.633258   -0.253033   -1.263306
     29          1           0       -4.994266   -0.801704    0.370632
     30          1           0       -4.058085    2.012627   -0.375716
     31          1           0       -4.418258    1.464950    1.257663
     32          1           0       -6.803513    1.019510    0.587727
     33          1           0       -6.441294    1.570299   -1.054932
     34          1           0       -6.370770    2.712947    0.297358
 ---------------------------------------------------------------------

 SCF Done:  E(RHF) =  -669.535054059     A.U. after   15 cycles
 E2 =    -0.2092241345D+01 EUMP2 =    -0.67162729540386D+03

 The electronic state is 1-A.
 Alpha  occ. eigenvalues --  -20.60757 -20.60752 -15.85812 -11.31169 -11.27756
 Alpha  occ. eigenvalues --  -11.27735 -11.27469 -11.26750 -11.26731 -11.21873
 Alpha  occ. eigenvalues --  -11.21630 -11.21570 -11.21477 -11.21457 -11.21082
 Alpha  occ. eigenvalues --   -1.59834  -1.39387  -1.19348  -1.08746  -1.08585
 Alpha  occ. eigenvalues --   -1.04752  -1.03704  -0.96172  -0.95570  -0.87192
 Alpha  occ. eigenvalues --   -0.86147  -0.82408  -0.79774  -0.78387  -0.77459
 Alpha  occ. eigenvalues --   -0.72030  -0.71158  -0.70448  -0.65222  -0.64999
 Alpha  occ. eigenvalues --   -0.64756  -0.62103  -0.61100  -0.59551  -0.57788
 Alpha  occ. eigenvalues --   -0.55456  -0.55245  -0.53404  -0.52849  -0.52830
 Alpha  occ. eigenvalues --   -0.52323  -0.50106  -0.48788  -0.48785  -0.48064
 Alpha  occ. eigenvalues --   -0.46799  -0.45930  -0.45850  -0.44795  -0.43969
 Alpha  occ. eigenvalues --   -0.37247  -0.36338
 Alpha virt. eigenvalues --    0.05070   0.11245   0.16529   0.21077   0.22759
 Alpha virt. eigenvalues --    0.24160   0.26312   0.26931   0.27381   0.27648
 Alpha virt. eigenvalues --    0.28654   0.30227   0.31320   0.31787   0.32073

 Mulliken charges:
               1
     1  C   -0.164669
     2  C   -0.216422
     3  C   -0.171329
     4  C    0.158050
     5  C   -0.171780
     6  C   -0.219819
     7  H    0.226119
     8  H    0.222839
     9  H    0.275462
    10  H    0.275486
    11  H    0.223440
    12  N    0.488090
    13  O   -0.460731
    14  O   -0.460439
    15  C   -0.298127
    16  C   -0.300776
    17  C   -0.474845
    18  H    0.152419
    19  H    0.147778
    20  H    0.152474
    21  H    0.150738
    22  H    0.149786
    23  H    0.161434
    24  H    0.152891
    25  C   -0.298405
    26  C   -0.300074
    27  C   -0.475876
    28  H    0.149919
    29  H    0.148854
    30  H    0.154428
    31  H    0.151849
    32  H    0.154443
    33  H    0.155334
    34  H    0.161458
 Sum of Mulliken charges =  -0.00000

 Dipole moment (field-independent basis, Debye):
    X=             -0.7280    Y=             -5.0801    Z=              0.6543  Tot=              5.1736
 Quadrupole moment (field-independent basis, Debye-Ang):
   XX=           -100.2616   YY=           -100.3455   ZZ=            -89.6025
   XY=            -15.3717   XZ=             -0.1184   YZ=              0.6626

 Normal termination of Gaussian 16 at Wed May  5 17:32:36 2021.
