 Gaussian 16, Revision A.03,
 Gaussian 16:  EM64L-G16RevA.03 25-Dec-2016

 -------------
 #p 6-31g* mp2
 -------------

 ------------------------------------------------------
 Input file generated by CHIRIPA (05-May-2021 14:55:18)
 ------------------------------------------------------
 Symbolic Z-matrix:
 Charge =  0 Multiplicity = 1

                         Standard orientation:
 ---------------------------------------------------------------------
 Center     Atomic      Atomic             Coordinates (Angstroms)
 Number     Number       Type             X           Y           Z
 ---------------------------------------------------------------------
      1          6           0        1.427861    1.917043   -0.064303
      2          6           0        0.977850    0.593429   -0.018949
      3          6           0        1.889703   -0.465967    0.008476
      4          6           0        3.250521   -0.164139   -0.010645
      5          6           0        3.729980    1.144057   -0.055712
      6          6           0        2.800070    2.187656   -0.082507
      7          1           0        0.712498    2.733872   -0.085363
      8          1           0       -0.087238    0.380289   -0.004721
      9          1           0        1.568764   -1.499977    0.043692
     10          1           0        4.797900    1.325135   -0.068938
     11          1           0        3.152431    3.214616   -0.117718
     12          7           0        4.225417   -1.277312    0.018056
     13          8           0        5.419075   -0.984900    0.000402
     14          8           0        3.777422   -2.421152    0.057662
     15          6           0       -3.482853    0.537346    0.230796
     16          6           0       -3.944062    1.921096   -0.228014
     17          6           0       -2.989163    3.035147    0.201928
     18          1           0       -3.383449    0.535085    1.324898
     19          1           0       -2.480877    0.339428   -0.174503
     20          1           0       -4.945444    2.115774    0.176891
     21          1           0       -4.042564    1.920006   -1.321134
     22          1           0       -1.990291    2.868207   -0.213990
     23          1           0       -2.898302    3.065088    1.292547
     24          1           0       -3.338029    4.015773   -0.136491
     25          6           0       -4.427154   -0.586817   -0.191437
     26          6           0       -3.965944   -1.970568    0.267374
     27          6           0       -4.920844   -3.084620   -0.162569
     28          1           0       -5.429130   -0.388900    0.213863
     29          1           0       -4.526557   -0.584557   -1.285539
     30          1           0       -3.867442   -1.969478    1.360495
     31          1           0       -2.964561   -2.165246   -0.137532
     32          1           0       -5.011704   -3.114559   -1.253187
     33          1           0       -5.919715   -2.917679    0.253350
     34          1           0       -4.571978   -4.065244    0.175850
 ---------------------------------------------------------------------

 SCF Done:  E(RHF) =  -669.535468256     A.U. after   15 cycles
 E2 =    -0.2091729770D+01 EUMP2 =    -0.67162719802587D+03

 The electronic state is 1-A.
 Alpha  occ. eigenvalues --  -20.60713 -20.60708 -15.85766 -11.31118 -11.27687
 Alpha  occ. eigenvalues --  -11.27678 -11.27410 -11.26699 -11.26656 -11.22614
 Alpha  occ. eigenvalues --  -11.22480 -11.22283 -11.22279 -11.22159 -11.21560
 Alpha  occ. eigenvalues --   -1.59789  -1.39343  -1.19287  -1.09338  -1.08683
 Alpha  occ. eigenvalues --   -1.04689  -1.04384  -0.96854  -0.95522  -0.87867
 Alpha  occ. eigenvalues --   -0.86090  -0.82356  -0.80468  -0.79151  -0.77403
 Alpha  occ. eigenvalues --   -0.71984  -0.71112  -0.70402  -0.66001  -0.64938
 Alpha  occ. eigenvalues --   -0.64681  -0.62063  -0.61751  -0.60222  -0.58458
 Alpha  occ. eigenvalues --   -0.56192  -0.55173  -0.53514  -0.53283  -0.53019
 Alpha  occ. eigenvalues --   -0.52780  -0.50789  -0.48790  -0.48740  -0.48726
 Alpha  occ. eigenvalues --   -0.47497  -0.46667  -0.46574  -0.44751  -0.44649
 Alpha  occ. eigenvalues --   -0.37266  -0.36293
 Alpha virt. eigenvalues --    0.05129   0.11355   0.16625   0.18574   0.22470
 Alpha virt. eigenvalues --    0.23577   0.24478   0.25358   0.26308   0.28327
 Alpha virt. eigenvalues --    0.29131   0.30312   0.30989   0.31296   0.31665

 Mulliken charges:
               1
     1  C   -0.177492
     2  C   -0.227653
     3  C   -0.173737
     4  C    0.158797
     5  C   -0.171122
     6  C   -0.218773
     7  H    0.230151
     8  H    0.236099
     9  H    0.275876
    10  H    0.275275
    11  H    0.223415
    12  N    0.488024
    13  O   -0.460713
    14  O   -0.460596
    15  C   -0.305703
    16  C   -0.299712
    17  C   -0.478902
    18  H    0.152547
    19  H    0.144283
    20  H    0.157086
    21  H    0.154906
    22  H    0.145152
    23  H    0.158488
    24  H    0.165461
    25  C   -0.298116
    26  C   -0.300027
    27  C   -0.476340
    28  H    0.152927
    29  H    0.151797
    30  H    0.153488
    31  H    0.148723
    32  H    0.156522
    33  H    0.156558
    34  H    0.163311
 Sum of Mulliken charges =  -0.00000

 Dipole moment (field-independent basis, Debye):
    X=             -3.7481    Y=              3.9075    Z=             -0.0778  Tot=              5.4150
 Quadrupole moment (field-independent basis, Debye-Ang):
   XX=           -113.2969   YY=            -94.6961   ZZ=            -94.9174
   XY=             15.6533   XZ=             -1.0457   YZ=             -0.2118

 Normal termination of Gaussian 16 at Thu May  6 14:01:15 2021.
