 Gaussian 16, Revision A.03,
 Gaussian 16:  EM64L-G16RevA.03 25-Dec-2016

 -------------
 #p 6-31g* mp2
 -------------

 ------------------------------------------------------
 Input file generated by CHIRIPA (05-May-2021 14:51:09)
 ------------------------------------------------------
 Symbolic Z-matrix:
 Charge =  0 Multiplicity = 1

                         Standard orientation:
 ---------------------------------------------------------------------
 Center     Atomic      Atomic             Coordinates (Angstroms)
 Number     Number       Type             X           Y           Z
 ---------------------------------------------------------------------
      1          6           0        2.867550   -0.713531   -0.235610
      2          6           0        2.130734   -1.386775   -1.393984
      3          6           0        1.802082   -2.853326   -1.112898
      4          1           0        3.794705   -1.265454   -0.028945
      5          1           0        2.252352   -0.784941    0.672039
      6          1           0        2.746530   -1.312899   -2.299497
      7          1           0        1.205320   -0.833072   -1.598042
      8          1           0        1.167711   -2.942640   -0.225094
      9          1           0        2.717677   -3.425193   -0.930535
     10          1           0        1.275529   -3.315084   -1.953958
     11          6           0        3.203028    0.752901   -0.501617
     12          6           0        3.939844    1.426144    0.656757
     13          6           0        4.268495    2.892696    0.375671
     14          1           0        3.818226    0.824311   -1.409266
     15          1           0        2.275873    1.304824   -0.708282
     16          1           0        4.865257    0.872442    0.860814
     17          1           0        3.324048    1.352269    1.562270
     18          1           0        3.352901    3.464562    0.193308
     19          1           0        4.902867    2.982009   -0.512133
     20          1           0        4.795049    3.354453    1.216730
     21          6           0       -3.295162    0.639501    0.083357
     22          6           0       -4.719910    0.543840   -0.463388
     23          6           0       -5.225750    1.870562   -1.030599
     24          1           0       -3.260066    1.411095    0.864608
     25          1           0       -2.623881    0.976126   -0.718803
     26          1           0       -5.388074    0.206166    0.339200
     27          1           0       -4.751660   -0.227750   -1.243296
     28          1           0       -4.582804    2.209655   -1.849281
     29          1           0       -5.222835    2.646037   -0.257793
     30          1           0       -6.246075    1.779461   -1.415953
     31          6           0       -2.775416   -0.678871    0.653871
     32          6           0       -1.350668   -0.583209    1.200615
     33          6           0       -0.844827   -1.909931    1.767827
     34          1           0       -3.446698   -1.015496    1.456030
     35          1           0       -2.810512   -1.450465   -0.127381
     36          1           0       -1.318918    0.188381    1.980524
     37          1           0       -0.682504   -0.245536    0.398027
     38          1           0       -0.847743   -2.685407    0.995020
     39          1           0       -1.487773   -2.249025    2.586507
     40          1           0        0.175497   -1.818832    2.153180
 ---------------------------------------------------------------------

 SCF Done:  E(RHF) =  -470.732748418     A.U. after   11 cycles
 E2 =    -0.1583977222D+01 EUMP2 =    -0.47231672564001D+03

 The electronic state is 1-A.
 Alpha  occ. eigenvalues --  -11.21694 -11.21639 -11.21592 -11.21588 -11.21464
 Alpha  occ. eigenvalues --  -11.21404 -11.21390 -11.21329 -11.21156 -11.21100
 Alpha  occ. eigenvalues --  -11.21061 -11.20969  -1.08503  -1.08406  -1.03624
 Alpha  occ. eigenvalues --   -1.03483  -0.96066  -0.95939  -0.87094  -0.86948
 Alpha  occ. eigenvalues --   -0.79701  -0.79537  -0.78305  -0.78229  -0.65289
 Alpha  occ. eigenvalues --   -0.64925  -0.61275  -0.60654  -0.59440  -0.59285
 Alpha  occ. eigenvalues --   -0.57671  -0.57562  -0.55554  -0.55036  -0.52757
 Alpha  occ. eigenvalues --   -0.52653  -0.52514  -0.52329  -0.50240  -0.49661
 Alpha  occ. eigenvalues --   -0.47995  -0.47855  -0.46854  -0.46422  -0.45896
 Alpha  occ. eigenvalues --   -0.45798  -0.45696  -0.45620  -0.43839  -0.43764
 Alpha virt. eigenvalues --    0.19558   0.23172   0.23643   0.25018   0.25713
 Alpha virt. eigenvalues --    0.26141   0.26564   0.27755   0.28626   0.29430
 Alpha virt. eigenvalues --    0.30149   0.31188   0.31535   0.31925   0.32284

 Mulliken charges:
               1
     1  C   -0.302841
     2  C   -0.300169
     3  C   -0.483602
     4  H    0.149736
     5  H    0.154007
     6  H    0.151954
     7  H    0.151742
     8  H    0.164712
     9  H    0.154839
    10  H    0.158955
    11  C   -0.298337
    12  C   -0.299618
    13  C   -0.475729
    14  H    0.149532
    15  H    0.149490
    16  H    0.151890
    17  H    0.151941
    18  H    0.155286
    19  H    0.155133
    20  H    0.160199
    21  C   -0.298336
    22  C   -0.299726
    23  C   -0.475766
    24  H    0.149724
    25  H    0.149233
    26  H    0.152063
    27  H    0.152128
    28  H    0.155254
    29  H    0.155212
    30  H    0.160429
    31  C   -0.298476
    32  C   -0.304159
    33  C   -0.481402
    34  H    0.149913
    35  H    0.150299
    36  H    0.152255
    37  H    0.155496
    38  H    0.158626
    39  H    0.156420
    40  H    0.161691
 Sum of Mulliken charges =  -0.00000

 Dipole moment (field-independent basis, Debye):
    X=             -0.0384    Y=             -0.0081    Z=              0.0328  Tot=              0.0511
 Quadrupole moment (field-independent basis, Debye-Ang):
   XX=            -84.1783   YY=            -86.5691   ZZ=            -84.0080
   XY=             -0.1853   XZ=             -0.8772   YZ=              0.7249

 Normal termination of Gaussian 16 at Wed May  5 18:09:05 2021.
