 Gaussian 16, Revision A.03,
 Gaussian 16:  EM64L-G16RevA.03 25-Dec-2016

 -------------
 #p 6-31g* mp2
 -------------

 ------------------------------------------------------
 Input file generated by CHIRIPA (05-May-2021 14:57:23)
 ------------------------------------------------------
 Symbolic Z-matrix:
 Charge =  0 Multiplicity = 1

                         Standard orientation:
 ---------------------------------------------------------------------
 Center     Atomic      Atomic             Coordinates (Angstroms)
 Number     Number       Type             X           Y           Z
 ---------------------------------------------------------------------
      1          6           0       -2.863534    2.337454   -0.634022
      2          6           0       -1.787731    1.489318   -0.916572
      3          6           0       -1.884086    0.115668   -0.675017
      4          6           0       -3.076401   -0.378192   -0.147970
      5          6           0       -4.165783    0.441116    0.144043
      6          6           0       -4.047040    1.811573   -0.105548
      7          1           0       -2.779987    3.403298   -0.824789
      8          1           0       -0.867388    1.894941   -1.327040
      9          1           0       -1.066706   -0.563617   -0.884491
     10          1           0       -5.070402    0.007448    0.552716
     11          1           0       -4.884144    2.467869    0.114856
     12          7           0       -3.190258   -1.830723    0.112007
     13          8           0       -4.251516   -2.241057    0.576760
     14          8           0       -2.216086   -2.531380   -0.153899
     15          6           0        1.532436    2.025213    0.884446
     16          6           0        2.795404    2.305632    0.352661
     17          6           0        3.648817    1.268362   -0.035031
     18          6           0        3.205086   -0.043575    0.123760
     19          6           0        1.952536   -0.355136    0.650386
     20          6           0        1.115766    0.698064    1.031353
     21          1           0        0.875949    2.837177    1.183003
     22          1           0        3.121639    3.335358    0.237423
     23          1           0        4.631662    1.457065   -0.449550
     24          1           0        1.655193   -1.391691    0.753152
     25          1           0        0.135463    0.477310    1.444049
     26          7           0        4.099746   -1.150118   -0.283112
     27          8           0        3.685293   -2.297433   -0.132994
     28          8           0        5.198493   -0.849160   -0.744433
 ---------------------------------------------------------------------

 SCF Done:  E(RHF) =  -868.336431961     A.U. after   16 cycles
 E2 =    -0.2602865802D+01 EUMP2 =    -0.87093929776332D+03

 The electronic state is 1-A.
 Alpha  occ. eigenvalues --  -20.61363 -20.61349 -20.60975 -20.60950 -15.86413
 Alpha  occ. eigenvalues --  -15.86021 -11.31900 -11.31585 -11.28428 -11.28425
 Alpha  occ. eigenvalues --  -11.28208 -11.28163 -11.28073 -11.27957 -11.27476
 Alpha  occ. eigenvalues --  -11.27445 -11.27267 -11.27136  -1.60434  -1.60039
 Alpha  occ. eigenvalues --   -1.39984  -1.39584  -1.20085  -1.19776  -1.09450
 Alpha  occ. eigenvalues --   -1.09149  -1.05517  -1.05152  -0.96262  -0.95940
 Alpha  occ. eigenvalues --   -0.86867  -0.86575  -0.83075  -0.82749  -0.78133
 Alpha  occ. eigenvalues --   -0.77737  -0.72617  -0.72231  -0.71772  -0.71370
 Alpha  occ. eigenvalues --   -0.71169  -0.70867  -0.65717  -0.65526  -0.65333
 Alpha  occ. eigenvalues --   -0.65167  -0.62863  -0.62434  -0.55974  -0.55703
 Alpha  occ. eigenvalues --   -0.54028  -0.53589  -0.53406  -0.53105  -0.49387
 Alpha  occ. eigenvalues --   -0.49374  -0.49011  -0.48976  -0.45360  -0.44945
 Alpha  occ. eigenvalues --   -0.38165  -0.37950  -0.37253  -0.36376
 Alpha virt. eigenvalues --    0.04353   0.04705   0.10435   0.10826   0.15893
 Alpha virt. eigenvalues --    0.16157   0.20488   0.21317   0.26379   0.26850
 Alpha virt. eigenvalues --    0.27233   0.28351   0.30547   0.30650   0.31778

 Mulliken charges:
               1
     1  C   -0.174458
     2  C   -0.222211
     3  C   -0.180668
     4  C    0.158035
     5  C   -0.171260
     6  C   -0.218061
     7  H    0.225629
     8  H    0.228519
     9  H    0.279098
    10  H    0.277795
    11  H    0.225569
    12  N    0.487818
    13  O   -0.457391
    14  O   -0.459607
    15  C   -0.178240
    16  C   -0.219514
    17  C   -0.171315
    18  C    0.159537
    19  C   -0.178823
    20  C   -0.223439
    21  H    0.223912
    22  H    0.223443
    23  H    0.276965
    24  H    0.285310
    25  H    0.231337
    26  N    0.487598
    27  O   -0.455320
    28  O   -0.460256
 Sum of Mulliken charges =  -0.00000

 Dipole moment (field-independent basis, Debye):
    X=             -2.7690    Y=              8.8558    Z=              0.5222  Tot=              9.2933
 Quadrupole moment (field-independent basis, Debye-Ang):
   XX=           -120.4217   YY=           -107.6417   ZZ=           -104.6678
   XY=             -1.5755   XZ=              4.1770   YZ=             -0.8669

 Normal termination of Gaussian 16 at Fri May  7 11:05:04 2021.
