 Gaussian 16, Revision A.03,
 Gaussian 16:  EM64L-G16RevA.03 25-Dec-2016

 -------------
 #p 6-31g* mp2
 -------------

 ------------------------------------------------------
 Input file generated by CHIRIPA (05-May-2021 14:55:23)
 ------------------------------------------------------
 Symbolic Z-matrix:
 Charge =  0 Multiplicity = 1

                         Standard orientation:
 ---------------------------------------------------------------------
 Center     Atomic      Atomic             Coordinates (Angstroms)
 Number     Number       Type             X           Y           Z
 ---------------------------------------------------------------------
      1          6           0        0.312322    0.146711    1.586765
      2          6           0        0.924981    1.308685    1.106155
      3          6           0        2.109578    1.233278    0.367512
      4          6           0        2.656558   -0.026186    0.126986
      5          6           0        2.069969   -1.202045    0.592345
      6          6           0        0.885761   -1.102743    1.328781
      7          1           0       -0.607750    0.214569    2.159703
      8          1           0        0.481893    2.280377    1.304981
      9          1           0        2.604894    2.116820   -0.016459
     10          1           0        2.535392   -2.156445    0.378055
     11          1           0        0.412165   -2.006826    1.700782
     12          7           0        3.910432   -0.118664   -0.653813
     13          8           0        4.372287   -1.240268   -0.852134
     14          8           0        4.407621    0.932207   -1.052700
     15          6           0       -3.081160   -0.656465    0.034546
     16          6           0       -3.373778   -1.857072   -0.865955
     17          6           0       -3.260301   -3.191250   -0.127790
     18          1           0       -2.071705   -0.759448    0.455665
     19          1           0       -3.777076   -0.666474    0.884838
     20          1           0       -2.678422   -1.844029   -1.715028
     21          1           0       -4.382581   -1.751123   -1.285131
     22          1           0       -3.965336   -3.229785    0.708895
     23          1           0       -2.251495   -3.323219    0.276555
     24          1           0       -3.473467   -4.035983   -0.790244
     25          6           0       -3.190596    0.684482   -0.689065
     26          6           0       -2.897978    1.885090    0.211437
     27          6           0       -3.011455    3.219267   -0.526729
     28          1           0       -2.494680    0.694492   -1.539356
     29          1           0       -4.200051    0.787466   -1.110183
     30          1           0       -1.889175    1.779140    0.630612
     31          1           0       -3.593334    1.872046    1.060510
     32          1           0       -4.020261    3.351237   -0.931074
     33          1           0       -2.306420    3.257802   -1.363414
     34          1           0       -2.798289    4.064001    0.135725
 ---------------------------------------------------------------------

 SCF Done:  E(RHF) =  -669.533563023     A.U. after   15 cycles
 E2 =    -0.2094985639D+01 EUMP2 =    -0.67162854866117D+03

 The electronic state is 1-A.
 Alpha  occ. eigenvalues --  -20.60827 -20.60822 -15.85883 -11.31273 -11.27863
 Alpha  occ. eigenvalues --  -11.27858 -11.27557 -11.26858 -11.26838 -11.22455
 Alpha  occ. eigenvalues --  -11.22223 -11.22105 -11.22044 -11.21814 -11.21769
 Alpha  occ. eigenvalues --   -1.59903  -1.39455  -1.19467  -1.09201  -1.08829
 Alpha  occ. eigenvalues --   -1.04873  -1.04265  -0.96707  -0.95687  -0.87725
 Alpha  occ. eigenvalues --   -0.86272  -0.82514  -0.80353  -0.79041  -0.77544
 Alpha  occ. eigenvalues --   -0.72102  -0.71227  -0.70597  -0.65865  -0.65124
 Alpha  occ. eigenvalues --   -0.64807  -0.62279  -0.61600  -0.60075  -0.58340
 Alpha  occ. eigenvalues --   -0.56030  -0.55338  -0.53423  -0.53227  -0.53113
 Alpha  occ. eigenvalues --   -0.52950  -0.50652  -0.48864  -0.48856  -0.48665
 Alpha  occ. eigenvalues --   -0.47384  -0.46529  -0.46433  -0.44856  -0.44505
 Alpha  occ. eigenvalues --   -0.37306  -0.36459
 Alpha virt. eigenvalues --    0.04951   0.10919   0.16365   0.20184   0.22648
 Alpha virt. eigenvalues --    0.22847   0.25875   0.26435   0.26713   0.26978
 Alpha virt. eigenvalues --    0.30134   0.30372   0.30991   0.31157   0.31486

 Mulliken charges:
               1
     1  C   -0.169548
     2  C   -0.220246
     3  C   -0.171981
     4  C    0.158033
     5  C   -0.170766
     6  C   -0.220535
     7  H    0.230535
     8  H    0.225346
     9  H    0.276194
    10  H    0.276174
    11  H    0.225267
    12  N    0.488135
    13  O   -0.460181
    14  O   -0.460176
    15  C   -0.306736
    16  C   -0.299614
    17  C   -0.475509
    18  H    0.150226
    19  H    0.147091
    20  H    0.155702
    21  H    0.154294
    22  H    0.155323
    23  H    0.148728
    24  H    0.164241
    25  C   -0.296699
    26  C   -0.306730
    27  C   -0.476574
    28  H    0.153971
    29  H    0.152360
    30  H    0.146912
    31  H    0.151124
    32  H    0.159129
    33  H    0.158044
    34  H    0.158465
 Sum of Mulliken charges =  -0.00000

 Dipole moment (field-independent basis, Debye):
    X=             -4.4347    Y=              0.3208    Z=              2.6393  Tot=              5.1707
 Quadrupole moment (field-independent basis, Debye-Ang):
   XX=           -117.8141   YY=            -90.8112   ZZ=            -94.7802
   XY=              1.1171   XZ=              6.9283   YZ=             -0.1584

 Normal termination of Gaussian 16 at Wed May  5 19:04:17 2021.
