 Gaussian 16, Revision A.03,
 Gaussian 16:  EM64L-G16RevA.03 25-Dec-2016

 -------------
 #p 6-31g* mp2
 -------------

 ------------------------------------------------------
 Input file generated by CHIRIPA (05-May-2021 14:51:13)
 ------------------------------------------------------
 Symbolic Z-matrix:
 Charge =  0 Multiplicity = 1

                         Standard orientation:
 ---------------------------------------------------------------------
 Center     Atomic      Atomic             Coordinates (Angstroms)
 Number     Number       Type             X           Y           Z
 ---------------------------------------------------------------------
      1          6           0       -3.999835    0.957749    0.335071
      2          6           0       -2.939688    1.696086   -0.482812
      3          6           0       -2.594312    3.067685    0.097898
      4          1           0       -4.907689    1.574115    0.388362
      5          1           0       -3.640793    0.840252    1.366903
      6          1           0       -3.300038    1.810933   -1.513139
      7          1           0       -2.034318    1.077807   -0.534324
      8          1           0       -2.210356    2.968403    1.118350
      9          1           0       -3.483268    3.705695    0.133974
     10          1           0       -1.834578    3.578019   -0.502288
     11          6           0       -4.355728   -0.415010   -0.232909
     12          6           0       -5.415875   -1.153346    0.584973
     13          6           0       -5.761251   -2.524946    0.004264
     14          1           0       -4.714769   -0.297512   -1.264741
     15          1           0       -3.447874   -1.031376   -0.286200
     16          1           0       -6.321245   -0.535067    0.636485
     17          1           0       -5.055525   -1.268194    1.615300
     18          1           0       -4.872295   -3.162956   -0.031812
     19          1           0       -6.145206   -2.425664   -1.016188
     20          1           0       -6.520985   -3.035280    0.604450
     21          6           0        3.542634   -0.602436   -0.316439
     22          6           0        2.271764    0.190202   -0.008869
     23          6           0        1.009453   -0.484881   -0.546110
     24          1           0        3.630360   -0.735069   -1.403479
     25          1           0        3.452073   -1.608960    0.114957
     26          1           0        2.365270    1.195391   -0.439528
     27          1           0        2.187152    0.321128    1.077555
     28          1           0        0.888668   -1.480657   -0.107429
     29          1           0        1.067798   -0.601427   -1.633130
     30          1           0        0.112793    0.098645   -0.315112
     31          6           0        4.812929    0.059698    0.214277
     32          6           0        6.083799   -0.732941   -0.093293
     33          6           0        7.346110   -0.057858    0.443948
     34          1           0        4.903490    1.066221   -0.217118
     35          1           0        4.725202    0.192330    1.301318
     36          1           0        6.168410   -0.863868   -1.179716
     37          1           0        5.990293   -1.738130    0.337366
     38          1           0        7.287765    0.058689    1.530969
     39          1           0        7.466894    0.937918    0.005266
     40          1           0        8.242770   -0.641384    0.212951
 ---------------------------------------------------------------------

 SCF Done:  E(RHF) =  -470.733359247     A.U. after   11 cycles
 E2 =    -0.1582407686D+01 EUMP2 =    -0.47231576693316D+03

 The electronic state is 1-A.
 Alpha  occ. eigenvalues --  -11.21631 -11.21613 -11.21580 -11.21578 -11.21423
 Alpha  occ. eigenvalues --  -11.21382 -11.21363 -11.21321 -11.21107 -11.21080
 Alpha  occ. eigenvalues --  -11.21068 -11.21050  -1.08450  -1.08410  -1.03557
 Alpha  occ. eigenvalues --   -1.03510  -0.96007  -0.95959  -0.87030  -0.86972
 Alpha  occ. eigenvalues --   -0.79642  -0.79552  -0.78262  -0.78221  -0.65078
 Alpha  occ. eigenvalues --   -0.65053  -0.60956  -0.60939  -0.59437  -0.59264
 Alpha  occ. eigenvalues --   -0.57649  -0.57535  -0.55288  -0.55248  -0.52750
 Alpha  occ. eigenvalues --   -0.52641  -0.52439  -0.52372  -0.49943  -0.49898
 Alpha  occ. eigenvalues --   -0.48005  -0.47833  -0.46648  -0.46597  -0.45805
 Alpha  occ. eigenvalues --   -0.45763  -0.45726  -0.45689  -0.43793  -0.43730
 Alpha virt. eigenvalues --    0.21451   0.23005   0.23726   0.24841   0.26010
 Alpha virt. eigenvalues --    0.26639   0.27156   0.27483   0.28023   0.28697
 Alpha virt. eigenvalues --    0.30426   0.31393   0.31692   0.31890   0.31970

 Mulliken charges:
               1
     1  C   -0.297552
     2  C   -0.309274
     3  C   -0.475295
     4  H    0.149614
     5  H    0.149261
     6  H    0.152239
     7  H    0.160052
     8  H    0.154962
     9  H    0.155333
    10  H    0.160169
    11  C   -0.298682
    12  C   -0.299637
    13  C   -0.475711
    14  H    0.149516
    15  H    0.150377
    16  H    0.151840
    17  H    0.151849
    18  H    0.155319
    19  H    0.155161
    20  H    0.160125
    21  C   -0.298696
    22  C   -0.298653
    23  C   -0.484309
    24  H    0.149760
    25  H    0.149507
    26  H    0.152236
    27  H    0.151816
    28  H    0.155059
    29  H    0.155767
    30  H    0.167572
    31  C   -0.298239
    32  C   -0.299654
    33  C   -0.475715
    34  H    0.149615
    35  H    0.149655
    36  H    0.151984
    37  H    0.151926
    38  H    0.155188
    39  H    0.155224
    40  H    0.160292
 Sum of Mulliken charges =  -0.00000

 Dipole moment (field-independent basis, Debye):
    X=              0.0135    Y=             -0.0018    Z=             -0.0064  Tot=              0.0150
 Quadrupole moment (field-independent basis, Debye-Ang):
   XX=            -85.3865   YY=            -85.5292   ZZ=            -83.8623
   XY=             -0.9756   XZ=             -0.0886   YZ=             -1.1332

 Normal termination of Gaussian 16 at Wed May  5 15:21:57 2021.
