 Gaussian 16, Revision A.03,
 Gaussian 16:  EM64L-G16RevA.03 25-Dec-2016

 -------------
 #p 6-31g* mp2
 -------------

 ------------------------------------------------------
 Input file generated by CHIRIPA (05-May-2021 14:53:16)
 ------------------------------------------------------
 Symbolic Z-matrix:
 Charge =  0 Multiplicity = 1

                         Standard orientation:
 ---------------------------------------------------------------------
 Center     Atomic      Atomic             Coordinates (Angstroms)
 Number     Number       Type             X           Y           Z
 ---------------------------------------------------------------------
      1          6           0       -5.640077    0.180880    0.174014
      2          6           0       -6.681452   -0.712955   -0.500214
      3          6           0       -8.085308   -0.107691   -0.474948
      4          1           0       -5.942681    0.365458    1.213873
      5          1           0       -5.627667    1.159134   -0.326246
      6          1           0       -6.690919   -1.689699    0.000284
      7          1           0       -6.376235   -0.895583   -1.538532
      8          1           0       -8.098096    0.857381   -0.991738
      9          1           0       -8.414568    0.058754    0.555821
     10          1           0       -8.813912   -0.763126   -0.962187
     11          6           0       -4.231693   -0.410631    0.156772
     12          6           0       -3.190319    0.483204    0.830999
     13          6           0       -1.786463   -0.122060    0.805734
     14          1           0       -4.244104   -1.388885    0.657031
     15          1           0       -3.929090   -0.595209   -0.883087
     16          1           0       -3.495536    0.665832    1.869318
     17          1           0       -3.180852    1.459948    0.330502
     18          1           0       -1.457203   -0.288505   -0.225035
     19          1           0       -1.773674   -1.087133    1.322524
     20          1           0       -1.057859    0.533375    1.292973
     21          6           0        5.939773   -1.317656    0.079828
     22          6           0        4.691582   -1.932150   -0.064873
     23          6           0        3.530443   -1.162287   -0.181559
     24          6           0        3.654725    0.225809   -0.149423
     25          6           0        4.883955    0.867553   -0.006430
     26          6           0        6.031814    0.077773    0.108537
     27          1           0        6.836615   -1.923440    0.169805
     28          1           0        4.617089   -3.015655   -0.087496
     29          1           0        2.551453   -1.611969   -0.294621
     30          1           0        4.926462    1.949794    0.012678
     31          1           0        6.999845    0.557726    0.220805
     32          7           0        2.432508    1.051371   -0.272043
     33          8           0        2.568806    2.272471   -0.240824
     34          8           0        1.361381    0.461714   -0.397051
 ---------------------------------------------------------------------

 SCF Done:  E(RHF) =  -669.535486372     A.U. after   15 cycles
 E2 =    -0.2090931428D+01 EUMP2 =    -0.67162641779956D+03

 The electronic state is 1-A.
 Alpha  occ. eigenvalues --  -20.60860 -20.60851 -15.85894 -11.31243 -11.27812
 Alpha  occ. eigenvalues --  -11.27806 -11.27555 -11.26826 -11.26816 -11.21050
 Alpha  occ. eigenvalues --  -11.20686 -11.20610 -11.20515 -11.20420 -11.19465
 Alpha  occ. eigenvalues --   -1.59929  -1.39484  -1.19417  -1.08817  -1.07613
 Alpha  occ. eigenvalues --   -1.04816  -1.02621  -0.95662  -0.95040  -0.86219
 Alpha  occ. eigenvalues --   -0.86059  -0.82487  -0.78722  -0.77545  -0.77387
 Alpha  occ. eigenvalues --   -0.72121  -0.71247  -0.70525  -0.65073  -0.64820
 Alpha  occ. eigenvalues --   -0.64252  -0.62163  -0.60020  -0.58470  -0.56650
 Alpha  occ. eigenvalues --   -0.55321  -0.54338  -0.53149  -0.52909  -0.51703
 Alpha  occ. eigenvalues --   -0.51482  -0.49113  -0.48879  -0.48750  -0.47018
 Alpha  occ. eigenvalues --   -0.45769  -0.44940  -0.44900  -0.44838  -0.42834
 Alpha  occ. eigenvalues --   -0.37398  -0.36419
 Alpha virt. eigenvalues --    0.04980   0.11235   0.16465   0.21353   0.23627
 Alpha virt. eigenvalues --    0.25267   0.27268   0.27414   0.28062   0.28291
 Alpha virt. eigenvalues --    0.29089   0.30923   0.32197   0.32382   0.32702

 Mulliken charges:
               1
     1  C   -0.297545
     2  C   -0.298945
     3  C   -0.475250
     4  H    0.148054
     5  H    0.149602
     6  H    0.150269
     7  H    0.151284
     8  H    0.155018
     9  H    0.154325
    10  H    0.158318
    11  C   -0.297487
    12  C   -0.300997
    13  C   -0.471149
    14  H    0.145889
    15  H    0.149148
    16  H    0.146413
    17  H    0.153625
    18  H    0.165015
    19  H    0.141795
    20  H    0.169477
    21  C   -0.170703
    22  C   -0.218572
    23  C   -0.170805
    24  C    0.157561
    25  C   -0.170751
    26  C   -0.218596
    27  H    0.225792
    28  H    0.223712
    29  H    0.276177
    30  H    0.275701
    31  H    0.223605
    32  N    0.492072
    33  O   -0.460109
    34  O   -0.461942
 Sum of Mulliken charges =  -0.00000

 Dipole moment (field-independent basis, Debye):
    X=              4.6195    Y=             -2.8398    Z=              0.3671  Tot=              5.4350
 Quadrupole moment (field-independent basis, Debye-Ang):
   XX=            -64.6216   YY=            -92.7774   ZZ=            -95.1407
   XY=             -7.0391   XZ=              1.1749   YZ=              0.5387

 Normal termination of Gaussian 16 at Thu May  6 12:12:07 2021.
