 Gaussian 16, Revision A.03,
 Gaussian 16:  EM64L-G16RevA.03 25-Dec-2016

 -------------
 #p 6-31g* mp2
 -------------

 ------------------------------------------------------
 Input file generated by CHIRIPA (05-May-2021 14:51:08)
 ------------------------------------------------------
 Symbolic Z-matrix:
 Charge =  0 Multiplicity = 1

                         Standard orientation:
 ---------------------------------------------------------------------
 Center     Atomic      Atomic             Coordinates (Angstroms)
 Number     Number       Type             X           Y           Z
 ---------------------------------------------------------------------
      1          6           0        3.348883    0.238762   -0.193203
      2          6           0        4.849086   -0.040260   -0.290781
      3          6           0        5.526703    0.754133   -1.407727
      4          1           0        2.874602   -0.000361   -1.154880
      5          1           0        3.192997    1.313614   -0.026512
      6          1           0        5.002146   -1.114475   -0.455858
      7          1           0        5.319822    0.199373    0.671300
      8          1           0        5.403481    1.829721   -1.244852
      9          1           0        5.084000    0.508408   -2.378415
     10          1           0        6.598659    0.539478   -1.459636
     11          6           0        2.657414   -0.548039    0.918797
     12          6           0        1.157211   -0.269017    1.016374
     13          6           0        0.479594   -1.063411    2.133320
     14          1           0        2.813300   -1.622892    0.752105
     15          1           0        3.131695   -0.308917    1.880474
     16          1           0        0.686475   -0.508650    0.054293
     17          1           0        1.004151    0.805198    1.181451
     18          1           0        0.922297   -0.817685    3.104008
     19          1           0        0.602816   -2.138999    1.970446
     20          1           0       -0.592362   -0.848756    2.185229
     21          6           0       -2.683780   -0.466856   -0.671311
     22          6           0       -3.456629   -1.753706   -0.380276
     23          6           0       -2.805302   -2.988373   -1.004108
     24          1           0       -2.605245   -0.331813   -1.758758
     25          1           0       -1.656923   -0.570866   -0.294291
     26          1           0       -4.482123   -1.646779   -0.756500
     27          1           0       -3.533499   -1.885602    0.706605
     28          1           0       -1.788735   -3.122944   -0.620594
     29          1           0       -2.742749   -2.882765   -2.092012
     30          1           0       -3.374145   -3.897032   -0.783611
     31          6           0       -3.322518    0.776133   -0.054282
     32          6           0       -2.549668    2.062984   -0.345318
     33          6           0       -3.200995    3.297651    0.278514
     34          1           0       -4.349374    0.880143   -0.431302
     35          1           0       -3.401052    0.641090    1.033165
     36          1           0       -2.472798    2.194879   -1.432199
     37          1           0       -1.524174    1.956056    0.030906
     38          1           0       -3.263547    3.192042    1.366419
     39          1           0       -4.217562    3.432223   -0.104999
     40          1           0       -2.632152    4.206309    0.058018
 ---------------------------------------------------------------------

 SCF Done:  E(RHF) =  -470.733072538     A.U. after   11 cycles
 E2 =    -0.1583880743D+01 EUMP2 =    -0.47231695328060D+03

 The electronic state is 1-A.
 Alpha  occ. eigenvalues --  -11.21688 -11.21627 -11.21575 -11.21560 -11.21456
 Alpha  occ. eigenvalues --  -11.21391 -11.21363 -11.21282 -11.21183 -11.21088
 Alpha  occ. eigenvalues --  -11.21063 -11.21050  -1.08498  -1.08388  -1.03599
 Alpha  occ. eigenvalues --   -1.03501  -0.96051  -0.95946  -0.87057  -0.86970
 Alpha  occ. eigenvalues --   -0.79673  -0.79564  -0.78382  -0.78129  -0.65193
 Alpha  occ. eigenvalues --   -0.64996  -0.61079  -0.60824  -0.59413  -0.59319
 Alpha  occ. eigenvalues --   -0.57706  -0.57524  -0.55341  -0.55218  -0.52738
 Alpha  occ. eigenvalues --   -0.52650  -0.52475  -0.52370  -0.50009  -0.49870
 Alpha  occ. eigenvalues --   -0.48012  -0.47893  -0.46821  -0.46518  -0.46067
 Alpha  occ. eigenvalues --   -0.45760  -0.45730  -0.45312  -0.43842  -0.43752
 Alpha virt. eigenvalues --    0.19896   0.23000   0.23711   0.24488   0.26067
 Alpha virt. eigenvalues --    0.26387   0.26541   0.27653   0.27912   0.29651
 Alpha virt. eigenvalues --    0.30158   0.31418   0.31690   0.32037   0.32184

 Mulliken charges:
               1
     1  C   -0.298556
     2  C   -0.299714
     3  C   -0.475753
     4  H    0.150173
     5  H    0.149618
     6  H    0.152029
     7  H    0.151970
     8  H    0.155241
     9  H    0.155319
    10  H    0.160346
    11  C   -0.297662
    12  C   -0.305843
    13  C   -0.478597
    14  H    0.149776
    15  H    0.149805
    16  H    0.155764
    17  H    0.153092
    18  H    0.156225
    19  H    0.155645
    20  H    0.161431
    21  C   -0.310001
    22  C   -0.298947
    23  C   -0.476046
    24  H    0.148985
    25  H    0.162523
    26  H    0.151811
    27  H    0.151777
    28  H    0.154991
    29  H    0.154922
    30  H    0.160296
    31  C   -0.297799
    32  C   -0.302649
    33  C   -0.475644
    34  H    0.149489
    35  H    0.148909
    36  H    0.151774
    37  H    0.155141
    38  H    0.154972
    39  H    0.155143
    40  H    0.160045
 Sum of Mulliken charges =  -0.00000

 Dipole moment (field-independent basis, Debye):
    X=              0.0509    Y=             -0.0030    Z=              0.0045  Tot=              0.0512
 Quadrupole moment (field-independent basis, Debye-Ang):
   XX=            -85.0616   YY=            -85.4516   ZZ=            -84.3528
   XY=              0.0971   XZ=              1.2085   YZ=              0.3800

 Normal termination of Gaussian 16 at Wed May  5 15:06:32 2021.
