 Gaussian 16, Revision A.03,
 Gaussian 16:  EM64L-G16RevA.03 25-Dec-2016

 -------------
 #p 6-31g* mp2
 -------------

 ------------------------------------------------------
 Input file generated by CHIRIPA (05-May-2021 14:55:21)
 ------------------------------------------------------
 Symbolic Z-matrix:
 Charge =  0 Multiplicity = 1

                         Standard orientation:
 ---------------------------------------------------------------------
 Center     Atomic      Atomic             Coordinates (Angstroms)
 Number     Number       Type             X           Y           Z
 ---------------------------------------------------------------------
      1          6           0       -1.094941   -2.509751    0.135791
      2          6           0       -0.624170   -1.334994    0.731477
      3          6           0       -1.395699   -0.169314    0.709576
      4          6           0       -2.638888   -0.214222    0.080487
      5          6           0       -3.135492   -1.369147   -0.521860
      6          6           0       -2.346892   -2.523055   -0.487877
      7          1           0       -0.488968   -3.410707    0.157497
      8          1           0        0.347728   -1.321735    1.216539
      9          1           0       -1.055564    0.753833    1.162927
     10          1           0       -4.108382   -1.351516   -0.997876
     11          1           0       -2.715048   -3.433952   -0.951313
     12          7           0       -3.464707    1.013601    0.050906
     13          8           0       -4.556535    0.947993   -0.509669
     14          8           0       -3.004520    2.018326    0.588856
     15          6           0        3.316656    1.286497   -0.166023
     16          6           0        2.021188    2.098167   -0.135353
     17          6           0        2.263850    3.603424   -0.249854
     18          1           0        3.968820    1.617610    0.653729
     19          1           0        3.854273    1.502187   -1.099747
     20          1           0        1.485502    1.879958    0.797407
     21          1           0        1.371954    1.764950   -0.955157
     22          1           0        2.776945    3.840698   -1.187423
     23          1           0        2.891139    3.956359    0.575099
     24          1           0        1.324441    4.164488   -0.225809
     25          6           0        3.090468   -0.220049   -0.052504
     26          6           0        4.385936   -1.031718   -0.083174
     27          6           0        4.143274   -2.536975    0.031327
     28          1           0        2.552851   -0.435738    0.881220
     29          1           0        2.438306   -0.551162   -0.872256
     30          1           0        5.035171   -0.698502    0.736630
     31          1           0        4.921622   -0.813509   -1.015934
     32          1           0        3.515986   -2.889911   -0.793626
     33          1           0        3.630180   -2.774250    0.968896
     34          1           0        5.082683   -3.098039    0.007281
 ---------------------------------------------------------------------

 SCF Done:  E(RHF) =  -669.535364676     A.U. after   15 cycles
 E2 =    -0.2092429452D+01 EUMP2 =    -0.67162779412799D+03

 The electronic state is 1-A.
 Alpha  occ. eigenvalues --  -20.60711 -20.60705 -15.85762 -11.31102 -11.27673
 Alpha  occ. eigenvalues --  -11.27642 -11.27396 -11.26690 -11.26619 -11.22329
 Alpha  occ. eigenvalues --  -11.22205 -11.22055 -11.21920 -11.21917 -11.21228
 Alpha  occ. eigenvalues --   -1.59786  -1.39340  -1.19270  -1.09079  -1.08669
 Alpha  occ. eigenvalues --   -1.04666  -1.04096  -0.96549  -0.95509  -0.87564
 Alpha  occ. eigenvalues --   -0.86067  -0.82347  -0.80186  -0.78932  -0.77371
 Alpha  occ. eigenvalues --   -0.71981  -0.71109  -0.70377  -0.65722  -0.64919
 Alpha  occ. eigenvalues --   -0.64675  -0.62020  -0.61487  -0.59924  -0.58154
 Alpha  occ. eigenvalues --   -0.55851  -0.55172  -0.53213  -0.53072  -0.52984
 Alpha  occ. eigenvalues --   -0.52677  -0.50491  -0.48748  -0.48738  -0.48469
 Alpha  occ. eigenvalues --   -0.47223  -0.46414  -0.46334  -0.44751  -0.44360
 Alpha  occ. eigenvalues --   -0.37251  -0.36245
 Alpha virt. eigenvalues --    0.05122   0.11338   0.16587   0.19645   0.22820
 Alpha virt. eigenvalues --    0.23148   0.24611   0.26422   0.27248   0.27626
 Alpha virt. eigenvalues --    0.29403   0.30585   0.31250   0.31370   0.31863

 Mulliken charges:
               1
     1  C   -0.173363
     2  C   -0.219602
     3  C   -0.174304
     4  C    0.158198
     5  C   -0.171261
     6  C   -0.218656
     7  H    0.225999
     8  H    0.229326
     9  H    0.277637
    10  H    0.275138
    11  H    0.222950
    12  N    0.488064
    13  O   -0.460817
    14  O   -0.460714
    15  C   -0.298271
    16  C   -0.301378
    17  C   -0.477164
    18  H    0.151234
    19  H    0.152833
    20  H    0.144954
    21  H    0.156168
    22  H    0.156158
    23  H    0.155228
    24  H    0.168385
    25  C   -0.302125
    26  C   -0.299335
    27  C   -0.476676
    28  H    0.140265
    29  H    0.153013
    30  H    0.154400
    31  H    0.155661
    32  H    0.153822
    33  H    0.149792
    34  H    0.164442
 Sum of Mulliken charges =  -0.00000

 Dipole moment (field-independent basis, Debye):
    X=              3.0761    Y=             -4.1985    Z=              0.0000  Tot=              5.2048
 Quadrupole moment (field-independent basis, Debye-Ang):
   XX=           -107.5196   YY=            -93.0151   ZZ=            -93.1275
   XY=             13.0050   XZ=              1.8516   YZ=              1.1722

 Normal termination of Gaussian 16 at Thu May  6 14:10:42 2021.
