 Gaussian 16, Revision A.03,
 Gaussian 16:  EM64L-G16RevA.03 25-Dec-2016

 -------------
 #p 6-31g* mp2
 -------------

 ------------------------------------------------------
 Input file generated by CHIRIPA (05-May-2021 14:53:11)
 ------------------------------------------------------
 Symbolic Z-matrix:
 Charge =  0 Multiplicity = 1

                         Standard orientation:
 ---------------------------------------------------------------------
 Center     Atomic      Atomic             Coordinates (Angstroms)
 Number     Number       Type             X           Y           Z
 ---------------------------------------------------------------------
      1          6           0        5.585685   -0.343082    0.030480
      2          6           0        6.168895    0.805135   -0.793805
      3          6           0        7.681675    0.688401   -0.982655
      4          1           0        6.078306   -0.368431    1.012125
      5          1           0        5.822114   -1.296170   -0.462591
      6          1           0        5.930245    1.755856   -0.300053
      7          1           0        5.674693    0.827873   -1.773532
      8          1           0        7.934949   -0.244896   -1.495890
      9          1           0        8.191953    0.688360   -0.014039
     10          1           0        8.077658    1.519398   -1.574687
     11          6           0        4.074329   -0.240413    0.227941
     12          6           0        3.491118   -1.388630    1.052227
     13          6           0        1.978338   -1.271896    1.241077
     14          1           0        3.837900    0.712676    0.721012
     15          1           0        3.581708   -0.215064   -0.753704
     16          1           0        3.985320   -1.411368    2.031953
     17          1           0        3.729768   -2.339351    0.558474
     18          1           0        1.468060   -1.271855    0.272461
     19          1           0        1.725064   -0.338598    1.754311
     20          1           0        1.582356   -2.102893    1.833108
     21          6           0       -1.552123    1.314174    0.400780
     22          6           0       -2.742636    1.973272    0.724490
     23          6           0       -3.979127    1.380917    0.451078
     24          6           0       -3.988192    0.122913   -0.149451
     25          6           0       -2.819280   -0.559049   -0.483913
     26          6           0       -1.594170    0.052341   -0.201326
     27          1           0       -0.596008    1.781723    0.616736
     28          1           0       -2.713018    2.953302    1.192153
     29          1           0       -4.915983    1.868857    0.691147
     30          1           0       -2.880799   -1.535203   -0.949483
     31          1           0       -0.671195   -0.461861   -0.453829
     32          7           0       -5.291185   -0.514262   -0.443756
     33          8           0       -5.272160   -1.623230   -0.973345
     34          8           0       -6.306823    0.107352   -0.139270
 ---------------------------------------------------------------------

 SCF Done:  E(RHF) =  -669.535479335     A.U. after   15 cycles
 E2 =    -0.2090946033D+01 EUMP2 =    -0.67162642536716D+03

 The electronic state is 1-A.
 Alpha  occ. eigenvalues --  -20.60704 -20.60699 -15.85757 -11.31107 -11.27675
 Alpha  occ. eigenvalues --  -11.27659 -11.27402 -11.26691 -11.26637 -11.22467
 Alpha  occ. eigenvalues --  -11.22231 -11.22206 -11.22163 -11.22009 -11.21529
 Alpha  occ. eigenvalues --   -1.59780  -1.39334  -1.19274  -1.09170  -1.08671
 Alpha  occ. eigenvalues --   -1.04676  -1.04280  -0.96752  -0.95509  -0.87776
 Alpha  occ. eigenvalues --   -0.86070  -0.82343  -0.80356  -0.78965  -0.77394
 Alpha  occ. eigenvalues --   -0.71976  -0.71103  -0.70381  -0.65803  -0.64924
 Alpha  occ. eigenvalues --   -0.64698  -0.62071  -0.61648  -0.60113  -0.58341
 Alpha  occ. eigenvalues --   -0.56072  -0.55163  -0.53445  -0.53262  -0.52994
 Alpha  occ. eigenvalues --   -0.52687  -0.50686  -0.48763  -0.48732  -0.48627
 Alpha  occ. eigenvalues --   -0.47374  -0.46511  -0.46415  -0.44743  -0.44518
 Alpha  occ. eigenvalues --   -0.37251  -0.36275
 Alpha virt. eigenvalues --    0.05137   0.11349   0.16627   0.19989   0.22374
 Alpha virt. eigenvalues --    0.23808   0.24968   0.25951   0.26975   0.27514
 Alpha virt. eigenvalues --    0.29355   0.29415   0.31213   0.31513   0.31985

 Mulliken charges:
               1
     1  C   -0.298740
     2  C   -0.300084
     3  C   -0.476102
     4  H    0.151261
     5  H    0.151369
     6  H    0.151510
     7  H    0.152120
     8  H    0.156277
     9  H    0.156009
    10  H    0.161579
    11  C   -0.298676
    12  C   -0.299768
    13  C   -0.479100
    14  H    0.147431
    15  H    0.147828
    16  H    0.155642
    17  H    0.155326
    18  H    0.147313
    19  H    0.152805
    20  H    0.167176
    21  C   -0.173366
    22  C   -0.218575
    23  C   -0.171345
    24  C    0.158840
    25  C   -0.172801
    26  C   -0.221327
    27  H    0.226044
    28  H    0.222955
    29  H    0.275231
    30  H    0.275533
    31  H    0.230959
    32  N    0.488040
    33  O   -0.460625
    34  O   -0.460739
 Sum of Mulliken charges =  -0.00000

 Dipole moment (field-independent basis, Debye):
    X=              4.8327    Y=              2.1918    Z=              1.0868  Tot=              5.4166
 Quadrupole moment (field-independent basis, Debye-Ang):
   XX=           -131.1974   YY=            -90.9237   ZZ=            -94.3128
   XY=            -10.7626   XZ=             -5.4424   YZ=              1.9587

 Normal termination of Gaussian 16 at Wed May  5 18:28:00 2021.
