 Gaussian 16, Revision A.03,
 Gaussian 16:  EM64L-G16RevA.03 25-Dec-2016

 -------------
 #p 6-31g* mp2
 -------------

 ------------------------------------------------------
 Input file generated by CHIRIPA (05-May-2021 14:53:13)
 ------------------------------------------------------
 Symbolic Z-matrix:
 Charge =  0 Multiplicity = 1

                         Standard orientation:
 ---------------------------------------------------------------------
 Center     Atomic      Atomic             Coordinates (Angstroms)
 Number     Number       Type             X           Y           Z
 ---------------------------------------------------------------------
      1          6           0       -3.188508    0.851975   -0.154925
      2          6           0       -3.168328    1.942416    0.916763
      3          6           0       -2.817921    3.319542    0.352377
      4          1           0       -2.206033    0.809924   -0.644742
      5          1           0       -3.914291    1.125835   -0.933151
      6          1           0       -2.443804    1.665908    1.693438
      7          1           0       -4.150906    1.981746    1.404217
      8          1           0       -3.545786    3.620883   -0.407891
      9          1           0       -1.828984    3.303250   -0.117027
     10          1           0       -2.809169    4.084018    1.135550
     11          6           0       -3.537242   -0.530398    0.393852
     12          6           0       -3.557421   -1.620839   -0.677837
     13          6           0       -3.907828   -2.997966   -0.113450
     14          1           0       -2.811459   -0.804259    1.172077
     15          1           0       -4.519716   -0.488347    0.883669
     16          1           0       -2.574843   -1.660170   -1.165290
     17          1           0       -4.281946   -1.344331   -1.454511
     18          1           0       -4.896765   -2.981674    0.355953
     19          1           0       -3.179964   -3.299306    0.646818
     20          1           0       -3.916580   -3.762441   -0.896623
     21          6           0        5.100923   -0.099486    0.402813
     22          6           0        4.593295    0.647419   -0.665348
     23          6           0        3.224437    0.640413   -0.949474
     24          6           0        2.388100   -0.128141   -0.141296
     25          6           0        2.863565   -0.882841    0.929990
     26          6           0        4.235964   -0.860890    1.195675
     27          1           0        6.165661   -0.088239    0.616366
     28          1           0        5.262681    1.239655   -1.282780
     29          1           0        2.804715    1.209342   -1.770188
     30          1           0        2.171491   -1.463514    1.527710
     31          1           0        4.627393   -1.441921    2.025874
     32          7           0        0.937077   -0.143469   -0.432327
     33          8           0        0.221198   -0.828755    0.294679
     34          8           0        0.543121    0.530093   -1.381932
 ---------------------------------------------------------------------

 SCF Done:  E(RHF) =  -669.537508838     A.U. after   15 cycles
 E2 =    -0.2092841949D+01 EUMP2 =    -0.67163035078711D+03

 The electronic state is 1-A.
 Alpha  occ. eigenvalues --  -20.61330 -20.61324 -15.86297 -11.31501 -11.28039
 Alpha  occ. eigenvalues --  -11.28035 -11.27754 -11.27015 -11.27005 -11.20134
 Alpha  occ. eigenvalues --  -11.19865 -11.19849 -11.19729 -11.19539 -11.19329
 Alpha  occ. eigenvalues --   -1.60345  -1.39904  -1.19648  -1.09078  -1.06672
 Alpha  occ. eigenvalues --   -1.05023  -1.02004  -0.95938  -0.94451  -0.86430
 Alpha  occ. eigenvalues --   -0.85491  -0.82776  -0.78058  -0.77849  -0.76465
 Alpha  occ. eigenvalues --   -0.72500  -0.71639  -0.70755  -0.65304  -0.65031
 Alpha  occ. eigenvalues --   -0.63271  -0.62370  -0.59394  -0.57849  -0.56085
 Alpha  occ. eigenvalues --   -0.55535  -0.53743  -0.53359  -0.53112  -0.51250
 Alpha  occ. eigenvalues --   -0.50918  -0.49310  -0.49258  -0.48380  -0.46396
 Alpha  occ. eigenvalues --   -0.45357  -0.45041  -0.44028  -0.43744  -0.42174
 Alpha  occ. eigenvalues --   -0.37619  -0.36616
 Alpha virt. eigenvalues --    0.04654   0.11042   0.16177   0.21173   0.24623
 Alpha virt. eigenvalues --    0.25692   0.27121   0.27956   0.28514   0.29148
 Alpha virt. eigenvalues --    0.29624   0.30853   0.32276   0.32771   0.33172

 Mulliken charges:
               1
     1  C   -0.311058
     2  C   -0.297840
     3  C   -0.475594
     4  H    0.180788
     5  H    0.139794
     6  H    0.149855
     7  H    0.145071
     8  H    0.152146
     9  H    0.158300
    10  H    0.152725
    11  C   -0.294323
    12  C   -0.300943
    13  C   -0.475031
    14  H    0.157053
    15  H    0.138371
    16  H    0.166218
    17  H    0.144332
    18  H    0.149532
    19  H    0.154921
    20  H    0.154274
    21  C   -0.170060
    22  C   -0.218617
    23  C   -0.170303
    24  C    0.159251
    25  C   -0.170490
    26  C   -0.218623
    27  H    0.226817
    28  H    0.224622
    29  H    0.276340
    30  H    0.276122
    31  H    0.224606
    32  N    0.489349
    33  O   -0.459648
    34  O   -0.457956
 Sum of Mulliken charges =  -0.00000

 Dipole moment (field-independent basis, Debye):
    X=              5.7564    Y=             -0.0168    Z=              0.9283  Tot=              5.8308
 Quadrupole moment (field-independent basis, Debye-Ang):
   XX=            -71.7324   YY=            -95.5417   ZZ=            -92.5980
   XY=             -0.3776   XZ=              1.6277   YZ=             -3.0408

 Normal termination of Gaussian 16 at Thu May  6 08:56:16 2021.
