 Gaussian 16, Revision A.03,
 Gaussian 16:  EM64L-G16RevA.03 25-Dec-2016

 -------------
 #p 6-31g* mp2
 -------------

 ------------------------------------------------------
 Input file generated by CHIRIPA (05-May-2021 14:51:10)
 ------------------------------------------------------
 Symbolic Z-matrix:
 Charge =  0 Multiplicity = 1

                         Standard orientation:
 ---------------------------------------------------------------------
 Center     Atomic      Atomic             Coordinates (Angstroms)
 Number     Number       Type             X           Y           Z
 ---------------------------------------------------------------------
      1          6           0       -2.829774    0.458014    0.468041
      2          6           0       -2.888646   -1.061397    0.307072
      3          6           0       -3.902185   -1.716487    1.245895
      4          1           0       -2.577240    0.700523    1.509367
      5          1           0       -3.827903    0.878355    0.282444
      6          1           0       -1.890392   -1.478614    0.491560
      7          1           0       -3.140880   -1.300320   -0.734038
      8          1           0       -4.908366   -1.327966    1.058141
      9          1           0       -3.650773   -1.507274    2.290703
     10          1           0       -3.927864   -2.802685    1.114081
     11          6           0       -1.821070    1.127304   -0.463783
     12          6           0       -1.762198    2.646714   -0.302814
     13          6           0       -0.748659    3.301805   -1.241637
     14          1           0       -0.822940    0.706963   -0.278187
     15          1           0       -2.073604    0.884794   -1.505110
     16          1           0       -1.509963    2.885637    0.738296
     17          1           0       -2.760451    3.063931   -0.487302
     18          1           0       -1.000071    3.092591   -2.286445
     19          1           0        0.257523    2.913284   -1.053883
     20          1           0       -0.722980    4.388002   -1.109823
     21          6           0        2.221318   -1.549358   -0.002957
     22          6           0        1.155094   -2.013661   -0.995717
     23          6           0        0.958282   -3.529894   -0.985708
     24          1           0        3.172891   -2.045610   -0.237877
     25          1           0        1.939121   -1.876742    1.007281
     26          1           0        1.438520   -1.684303   -2.003591
     27          1           0        0.205994   -1.516100   -0.758524
     28          1           0        0.651726   -3.872017    0.008060
     29          1           0        1.891253   -4.041177   -1.244080
     30          1           0        0.191693   -3.839963   -1.702687
     31          6           0        2.429526   -0.035960   -0.001301
     32          6           0        3.495751    0.428344    0.991459
     33          6           0        3.692561    1.944576    0.981450
     34          1           0        2.711722    0.291424   -1.011538
     35          1           0        1.477953    0.460293    0.233619
     36          1           0        4.444849   -0.069217    0.754266
     37          1           0        3.212323    0.098986    1.999333
     38          1           0        2.759590    2.455859    1.239823
     39          1           0        3.999118    2.286700   -0.012318
     40          1           0        4.459150    2.254645    1.698429
 ---------------------------------------------------------------------

 SCF Done:  E(RHF) =  -470.732408749     A.U. after   11 cycles
 E2 =    -0.1585118073D+01 EUMP2 =    -0.47231752682287D+03

 The electronic state is 1-A.
 Alpha  occ. eigenvalues --  -11.21648 -11.21642 -11.21608 -11.21536 -11.21444
 Alpha  occ. eigenvalues --  -11.21422 -11.21379 -11.21347 -11.21118 -11.21104
 Alpha  occ. eigenvalues --  -11.21055 -11.21040  -1.08513  -1.08414  -1.03572
 Alpha  occ. eigenvalues --   -1.03523  -0.96012  -0.95985  -0.87023  -0.87004
 Alpha  occ. eigenvalues --   -0.79676  -0.79559  -0.78533  -0.78046  -0.65393
 Alpha  occ. eigenvalues --   -0.64827  -0.61101  -0.60819  -0.59410  -0.59319
 Alpha  occ. eigenvalues --   -0.57634  -0.57583  -0.55379  -0.55204  -0.52712
 Alpha  occ. eigenvalues --   -0.52670  -0.52433  -0.52408  -0.50017  -0.49875
 Alpha  occ. eigenvalues --   -0.48068  -0.47833  -0.46878  -0.46772  -0.46358
 Alpha  occ. eigenvalues --   -0.45785  -0.45753  -0.44747  -0.43808  -0.43783
 Alpha virt. eigenvalues --    0.20323   0.22028   0.23764   0.24494   0.25675
 Alpha virt. eigenvalues --    0.26814   0.26939   0.26968   0.28262   0.29949
 Alpha virt. eigenvalues --    0.31357   0.31625   0.31671   0.31835   0.32127

 Mulliken charges:
               1
     1  C   -0.297655
     2  C   -0.304322
     3  C   -0.475443
     4  H    0.148831
     5  H    0.149822
     6  H    0.156099
     7  H    0.152224
     8  H    0.155422
     9  H    0.154985
    10  H    0.160580
    11  C   -0.310356
    12  C   -0.298761
    13  C   -0.478184
    14  H    0.160702
    15  H    0.149926
    16  H    0.150966
    17  H    0.152060
    18  H    0.155173
    19  H    0.157865
    20  H    0.160150
    21  C   -0.297977
    22  C   -0.310548
    23  C   -0.475221
    24  H    0.149986
    25  H    0.148532
    26  H    0.151915
    27  H    0.163206
    28  H    0.154564
    29  H    0.155067
    30  H    0.160533
    31  C   -0.306678
    32  C   -0.299065
    33  C   -0.476530
    34  H    0.150167
    35  H    0.156230
    36  H    0.152409
    37  H    0.151742
    38  H    0.155280
    39  H    0.155638
    40  H    0.160668
 Sum of Mulliken charges =  -0.00000

 Dipole moment (field-independent basis, Debye):
    X=              0.0010    Y=             -0.0028    Z=             -0.0139  Tot=              0.0142
 Quadrupole moment (field-independent basis, Debye-Ang):
   XX=            -84.2469   YY=            -86.3947   ZZ=            -84.1284
   XY=             -0.7699   XZ=              0.4162   YZ=              0.2605

 Normal termination of Gaussian 16 at Thu May  6 06:58:22 2021.
