 Gaussian 16, Revision A.03,
 Gaussian 16:  EM64L-G16RevA.03 25-Dec-2016

 -------------
 #p 6-31g* mp2
 -------------

 ------------------------------------------------------
 Input file generated by CHIRIPA (05-May-2021 14:53:15)
 ------------------------------------------------------
 Symbolic Z-matrix:
 Charge =  0 Multiplicity = 1

                         Standard orientation:
 ---------------------------------------------------------------------
 Center     Atomic      Atomic             Coordinates (Angstroms)
 Number     Number       Type             X           Y           Z
 ---------------------------------------------------------------------
      1          6           0       -5.469693   -0.144896    0.202519
      2          6           0       -6.172182    1.049569   -0.443816
      3          6           0       -7.678626    0.837490   -0.596926
      4          1           0       -5.655375   -1.042814   -0.402635
      5          1           0       -5.916286   -0.334557    1.188409
      6          1           0       -5.723467    1.237784   -1.427607
      7          1           0       -5.984647    1.944785    0.162844
      8          1           0       -8.145535    0.671854    0.379374
      9          1           0       -7.882871   -0.039164   -1.220114
     10          1           0       -8.160837    1.703463   -1.061063
     11          6           0       -3.963244    0.052057    0.362354
     12          6           0       -3.260755   -1.142407    1.008689
     13          6           0       -1.754311   -0.930329    1.161799
     14          1           0       -3.516651    0.241719   -0.623536
     15          1           0       -3.777562    0.949975    0.967508
     16          1           0       -3.448290   -2.037623    0.402030
     17          1           0       -3.709470   -1.330622    1.992481
     18          1           0       -1.550066   -0.053675    1.784987
     19          1           0       -1.287402   -0.764693    0.185499
     20          1           0       -1.272100   -1.796301    1.625936
     21          6           0        5.748133    1.273545    0.539263
     22          6           0        5.785530   -0.114946    0.374290
     23          6           0        4.648277   -0.810861   -0.046314
     24          6           0        3.485260   -0.083351   -0.294120
     25          6           0        3.416468    1.300296   -0.138938
     26          6           0        4.565807    1.975496    0.282576
     27          1           0        6.636273    1.806103    0.866351
     28          1           0        6.702356   -0.662693    0.572902
     29          1           0        4.649405   -1.885556   -0.182136
     30          1           0        2.487947    1.818894   -0.344661
     31          1           0        4.533848    3.053841    0.409846
     32          7           0        2.274904   -0.809121   -0.739875
     33          8           0        1.262597   -0.145030   -0.951660
     34          8           0        2.361455   -2.028327   -0.869034
 ---------------------------------------------------------------------

 SCF Done:  E(RHF) =  -669.536191179     A.U. after   15 cycles
 E2 =    -0.2090809733D+01 EUMP2 =    -0.67162700091137D+03

 The electronic state is 1-A.
 Alpha  occ. eigenvalues --  -20.60918 -20.60896 -15.85937 -11.31263 -11.27826
 Alpha  occ. eigenvalues --  -11.27822 -11.27567 -11.26836 -11.26826 -11.21035
 Alpha  occ. eigenvalues --  -11.20686 -11.20603 -11.20545 -11.20473 -11.19583
 Alpha  occ. eigenvalues --   -1.59964  -1.39521  -1.19431  -1.08835  -1.07622
 Alpha  occ. eigenvalues --   -1.04828  -1.02660  -0.95678  -0.95089  -0.86229
 Alpha  occ. eigenvalues --   -0.86103  -0.82512  -0.78752  -0.77564  -0.77409
 Alpha  occ. eigenvalues --   -0.72164  -0.71274  -0.70541  -0.65088  -0.64833
 Alpha  occ. eigenvalues --   -0.64257  -0.62176  -0.60054  -0.58517  -0.56701
 Alpha  occ. eigenvalues --   -0.55336  -0.54367  -0.53160  -0.52921  -0.51789
 Alpha  occ. eigenvalues --   -0.51514  -0.49184  -0.48913  -0.48765  -0.47046
 Alpha  occ. eigenvalues --   -0.45797  -0.45046  -0.44917  -0.44715  -0.42930
 Alpha  occ. eigenvalues --   -0.37410  -0.36429
 Alpha virt. eigenvalues --    0.04952   0.11226   0.16438   0.21356   0.23637
 Alpha virt. eigenvalues --    0.25239   0.27273   0.27451   0.28173   0.28309
 Alpha virt. eigenvalues --    0.29007   0.30923   0.32313   0.32418   0.32589

 Mulliken charges:
               1
     1  C   -0.297665
     2  C   -0.299079
     3  C   -0.475252
     4  H    0.149476
     5  H    0.147397
     6  H    0.152188
     7  H    0.150199
     8  H    0.154060
     9  H    0.154985
    10  H    0.158377
    11  C   -0.297941
    12  C   -0.299246
    13  C   -0.484102
    14  H    0.153071
    15  H    0.146205
    16  H    0.151716
    17  H    0.146066
    18  H    0.145694
    19  H    0.183129
    20  H    0.156550
    21  C   -0.170617
    22  C   -0.218600
    23  C   -0.170698
    24  C    0.158287
    25  C   -0.170628
    26  C   -0.218589
    27  H    0.225864
    28  H    0.223692
    29  H    0.275781
    30  H    0.275947
    31  H    0.223731
    32  N    0.489450
    33  O   -0.460191
    34  O   -0.459257
 Sum of Mulliken charges =  -0.00000

 Dipole moment (field-independent basis, Debye):
    X=              4.5689    Y=              2.5392    Z=              1.4380  Tot=              5.4213
 Quadrupole moment (field-independent basis, Debye-Ang):
   XX=            -66.4459   YY=            -91.4887   ZZ=            -96.0464
   XY=              6.2135   XZ=              4.4909   YZ=             -0.5311

 Normal termination of Gaussian 16 at Wed May  5 21:53:45 2021.
