 Gaussian 16, Revision A.03,
 Gaussian 16:  EM64L-G16RevA.03 25-Dec-2016

 -------------
 #p 6-31g* mp2
 -------------

 ------------------------------------------------------
 Input file generated by CHIRIPA (05-May-2021 14:55:23)
 ------------------------------------------------------
 Symbolic Z-matrix:
 Charge =  0 Multiplicity = 1

                         Standard orientation:
 ---------------------------------------------------------------------
 Center     Atomic      Atomic             Coordinates (Angstroms)
 Number     Number       Type             X           Y           Z
 ---------------------------------------------------------------------
      1          6           0        3.899984   -2.344625   -0.154619
      2          6           0        2.531688   -2.076932   -0.042248
      3          6           0        2.060326   -0.761228   -0.078161
      4          6           0        2.989356    0.267198   -0.228270
      5          6           0        4.358726    0.032661   -0.342765
      6          6           0        4.807536   -1.290832   -0.304255
      7          1           0        4.257390   -3.369721   -0.125713
      8          1           0        1.824577   -2.893333    0.074055
      9          1           0        1.006422   -0.525601    0.006595
     10          1           0        5.039427    0.867438   -0.457705
     11          1           0        5.870737   -1.495750   -0.391758
     12          7           0        2.502284    1.664198   -0.267664
     13          8           0        3.341177    2.552558   -0.400752
     14          8           0        1.290846    1.844354   -0.164708
     15          6           0       -3.441396   -0.255927    0.833444
     16          6           0       -2.160912    0.579413    0.856910
     17          6           0       -1.195161    0.150057    1.961796
     18          1           0       -3.940307   -0.178125    1.809139
     19          1           0       -3.178004   -1.314401    0.700585
     20          1           0       -2.426719    1.636153    0.988299
     21          1           0       -1.665091    0.499767   -0.119017
     22          1           0       -0.901221   -0.896448    1.831305
     23          1           0       -1.667176    0.246394    2.944914
     24          1           0       -0.286634    0.760335    1.960394
     25          6           0       -4.416860    0.161320   -0.265694
     26          6           0       -5.697345   -0.674021   -0.289160
     27          6           0       -6.663096   -0.244664   -1.394045
     28          1           0       -4.680253    1.219794   -0.132834
     29          1           0       -3.917950    0.083518   -1.241389
     30          1           0       -6.193166   -0.594374    0.686768
     31          1           0       -5.431538   -1.730760   -0.420549
     32          1           0       -6.191081   -0.341001   -2.377163
     33          1           0       -6.957037    0.801841   -1.263555
     34          1           0       -7.571622   -0.854942   -1.392642
 ---------------------------------------------------------------------

 SCF Done:  E(RHF) =  -669.535723275     A.U. after   15 cycles
 E2 =    -0.2092300311D+01 EUMP2 =    -0.67162802358598D+03

 The electronic state is 1-A.
 Alpha  occ. eigenvalues --  -20.60897 -20.60886 -15.85921 -11.31208 -11.27788
 Alpha  occ. eigenvalues --  -11.27734 -11.27525 -11.26788 -11.26771 -11.21450
 Alpha  occ. eigenvalues --  -11.21193 -11.21153 -11.21106 -11.20925 -11.20750
 Alpha  occ. eigenvalues --   -1.59956  -1.39513  -1.19385  -1.08798  -1.08187
 Alpha  occ. eigenvalues --   -1.04778  -1.03278  -0.95791  -0.95604  -0.86783
 Alpha  occ. eigenvalues --   -0.86175  -0.82478  -0.79329  -0.77982  -0.77533
 Alpha  occ. eigenvalues --   -0.72151  -0.71269  -0.70503  -0.65045  -0.64921
 Alpha  occ. eigenvalues --   -0.64718  -0.62181  -0.60662  -0.59068  -0.57306
 Alpha  occ. eigenvalues --   -0.55347  -0.55032  -0.53113  -0.52873  -0.52387
 Alpha  occ. eigenvalues --   -0.52165  -0.49728  -0.48897  -0.48890  -0.47642
 Alpha  occ. eigenvalues --   -0.46383  -0.45528  -0.45467  -0.44914  -0.43496
 Alpha  occ. eigenvalues --   -0.37370  -0.36371
 Alpha virt. eigenvalues --    0.04962   0.11251   0.16442   0.20455   0.23048
 Alpha virt. eigenvalues --    0.24098   0.26581   0.27337   0.27479   0.28020
 Alpha virt. eigenvalues --    0.29456   0.30658   0.31599   0.31881   0.32506

 Mulliken charges:
               1
     1  C   -0.170084
     2  C   -0.222151
     3  C   -0.175148
     4  C    0.155060
     5  C   -0.170053
     6  C   -0.219130
     7  H    0.225709
     8  H    0.223696
     9  H    0.290153
    10  H    0.275495
    11  H    0.223478
    12  N    0.488993
    13  O   -0.459029
    14  O   -0.462726
    15  C   -0.297781
    16  C   -0.300122
    17  C   -0.488256
    18  H    0.149091
    19  H    0.143129
    20  H    0.159052
    21  H    0.156471
    22  H    0.138582
    23  H    0.156133
    24  H    0.179152
    25  C   -0.297977
    26  C   -0.299201
    27  C   -0.475554
    28  H    0.151772
    29  H    0.149556
    30  H    0.151691
    31  H    0.149660
    32  H    0.154983
    33  H    0.156101
    34  H    0.159256
 Sum of Mulliken charges =  -0.00000

 Dipole moment (field-independent basis, Debye):
    X=              1.8089    Y=             -4.7262    Z=              0.1115  Tot=              5.0618
 Quadrupole moment (field-independent basis, Debye-Ang):
   XX=            -80.7365   YY=            -96.9530   ZZ=            -95.9122
   XY=            -13.2625   XZ=             -1.4162   YZ=              1.7587

 Normal termination of Gaussian 16 at Thu May  6 14:15:50 2021.
