 Gaussian 16, Revision A.03,
 Gaussian 16:  EM64L-G16RevA.03 25-Dec-2016

 -------------
 #p 6-31g* mp2
 -------------

 ------------------------------------------------------
 Input file generated by CHIRIPA (05-May-2021 14:51:10)
 ------------------------------------------------------
 Symbolic Z-matrix:
 Charge =  0 Multiplicity = 1

                         Standard orientation:
 ---------------------------------------------------------------------
 Center     Atomic      Atomic             Coordinates (Angstroms)
 Number     Number       Type             X           Y           Z
 ---------------------------------------------------------------------
      1          6           0       -3.737479   -0.215665   -0.336904
      2          6           0       -5.051344   -0.860256    0.106094
      3          6           0       -5.194323   -2.303610   -0.377724
      4          1           0       -3.673707   -0.244399   -1.433285
      5          1           0       -2.897479   -0.814903    0.040864
      6          1           0       -5.888597   -0.259214   -0.271229
      7          1           0       -5.112083   -0.829812    1.201539
      8          1           0       -4.378727   -2.922488    0.010082
      9          1           0       -5.159653   -2.348648   -1.471054
     10          1           0       -6.140612   -2.745065   -0.049828
     11          6           0       -3.579913    1.227361    0.139096
     12          6           0       -2.266048    1.871952   -0.303902
     13          6           0       -2.123068    3.315307    0.179916
     14          1           0       -4.419913    1.826600   -0.238672
     15          1           0       -3.643685    1.256095    1.235477
     16          1           0       -2.205309    1.841508   -1.399347
     17          1           0       -1.428795    1.270910    0.073421
     18          1           0       -2.157739    3.360344    1.273246
     19          1           0       -2.938665    3.934185   -0.207890
     20          1           0       -1.176780    3.756761   -0.147979
     21          6           0        4.333973   -0.570823   -0.252112
     22          6           0        5.335798    0.509948    0.155641
     23          6           0        6.681971    0.366577   -0.555033
     24          1           0        4.761641   -1.559114   -0.034564
     25          1           0        4.181912   -0.528535   -1.339534
     26          1           0        5.484873    0.466537    1.242153
     27          1           0        4.905616    1.495786   -0.062726
     28          1           0        6.553507    0.431683   -1.640326
     29          1           0        7.136054   -0.603413   -0.328033
     30          1           0        7.382977    1.149317   -0.248819
     31          6           0        2.983419   -0.440873    0.449921
     32          6           0        1.981594   -1.521644    0.042167
     33          6           0        0.635421   -1.378273    0.752841
     34          1           0        3.135479   -0.483161    1.537341
     35          1           0        2.555751    0.547417    0.232371
     36          1           0        2.411776   -2.507482    0.260534
     37          1           0        1.832519   -1.478233   -1.044345
     38          1           0        0.181338   -0.408283    0.525840
     39          1           0        0.763885   -1.443379    1.838133
     40          1           0       -0.065585   -2.161014    0.446627
 ---------------------------------------------------------------------

 SCF Done:  E(RHF) =  -470.733322801     A.U. after   11 cycles
 E2 =    -0.1582822235D+01 EUMP2 =    -0.47231614503627D+03

 The electronic state is 1-A.
 Alpha  occ. eigenvalues --  -11.21631 -11.21612 -11.21590 -11.21567 -11.21424
 Alpha  occ. eigenvalues --  -11.21369 -11.21364 -11.21303 -11.21114 -11.21079
 Alpha  occ. eigenvalues --  -11.21073 -11.21047  -1.08452  -1.08401  -1.03557
 Alpha  occ. eigenvalues --   -1.03509  -0.96007  -0.95957  -0.87029  -0.86972
 Alpha  occ. eigenvalues --   -0.79647  -0.79554  -0.78279  -0.78195  -0.65124
 Alpha  occ. eigenvalues --   -0.64998  -0.61034  -0.60841  -0.59382  -0.59322
 Alpha  occ. eigenvalues --   -0.57631  -0.57553  -0.55307  -0.55240  -0.52714
 Alpha  occ. eigenvalues --   -0.52654  -0.52459  -0.52361  -0.50031  -0.49855
 Alpha  occ. eigenvalues --   -0.48037  -0.47815  -0.46794  -0.46495  -0.45879
 Alpha  occ. eigenvalues --   -0.45753  -0.45729  -0.45472  -0.43803  -0.43758
 Alpha virt. eigenvalues --    0.21323   0.23041   0.23809   0.24304   0.25669
 Alpha virt. eigenvalues --    0.26740   0.27099   0.27445   0.27988   0.29397
 Alpha virt. eigenvalues --    0.29500   0.31642   0.31707   0.31874   0.32088

 Mulliken charges:
               1
     1  C   -0.301196
     2  C   -0.299591
     3  C   -0.475631
     4  H    0.149162
     5  H    0.153215
     6  H    0.151746
     7  H    0.151995
     8  H    0.155075
     9  H    0.155037
    10  H    0.160145
    11  C   -0.297424
    12  C   -0.308655
    13  C   -0.475022
    14  H    0.149389
    15  H    0.149680
    16  H    0.151664
    17  H    0.159749
    18  H    0.155341
    19  H    0.155291
    20  H    0.159682
    21  C   -0.298344
    22  C   -0.299683
    23  C   -0.475724
    24  H    0.149701
    25  H    0.149659
    26  H    0.151931
    27  H    0.152009
    28  H    0.155223
    29  H    0.155190
    30  H    0.160301
    31  C   -0.298502
    32  C   -0.299219
    33  C   -0.484790
    34  H    0.149512
    35  H    0.149669
    36  H    0.152058
    37  H    0.152445
    38  H    0.162868
    39  H    0.155212
    40  H    0.160835
 Sum of Mulliken charges =  -0.00000

 Dipole moment (field-independent basis, Debye):
    X=              0.0199    Y=             -0.0069    Z=              0.0043  Tot=              0.0215
 Quadrupole moment (field-independent basis, Debye-Ang):
   XX=            -85.6346   YY=            -85.4666   ZZ=            -83.7286
   XY=             -0.6521   XZ=              0.9941   YZ=             -1.0204

 Normal termination of Gaussian 16 at Thu May  6 06:59:37 2021.
