 Gaussian 16, Revision A.03,
 Gaussian 16:  EM64L-G16RevA.03 25-Dec-2016

 -------------
 #p 6-31g* mp2
 -------------

 ------------------------------------------------------
 Input file generated by CHIRIPA (05-May-2021 14:53:18)
 ------------------------------------------------------
 Symbolic Z-matrix:
 Charge =  0 Multiplicity = 1

                         Standard orientation:
 ---------------------------------------------------------------------
 Center     Atomic      Atomic             Coordinates (Angstroms)
 Number     Number       Type             X           Y           Z
 ---------------------------------------------------------------------
      1          6           0       -3.180249   -0.437419   -0.544714
      2          6           0       -3.301617   -1.901693   -0.121444
      3          6           0       -2.404531   -2.830140   -0.940600
      4          1           0       -3.433268   -0.348132   -1.610056
      5          1           0       -2.133200   -0.119578   -0.444420
      6          1           0       -4.348376   -2.216275   -0.221192
      7          1           0       -3.048466   -1.987476    0.943061
      8          1           0       -1.353295   -2.544026   -0.832698
      9          1           0       -2.660591   -2.774125   -2.003566
     10          1           0       -2.507058   -3.871988   -0.621381
     11          6           0       -4.071028    0.503093    0.265027
     12          6           0       -3.949660    1.967367   -0.158243
     13          6           0       -4.846747    2.895813    0.660912
     14          1           0       -5.118077    0.185252    0.164733
     15          1           0       -3.818009    0.413805    1.330369
     16          1           0       -4.202811    2.053149   -1.222748
     17          1           0       -2.902901    2.281949   -0.058496
     18          1           0       -4.590687    2.839799    1.723878
     19          1           0       -5.897982    2.609699    0.553011
     20          1           0       -4.744219    3.937661    0.341693
     21          6           0        4.134759    1.894136   -0.882982
     22          6           0        3.427510    1.022526   -1.717617
     23          6           0        2.702536   -0.044560   -1.178833
     24          6           0        2.706635   -0.211252    0.205178
     25          6           0        3.401313    0.640130    1.063003
     26          6           0        4.119430    1.700497    0.502223
     27          1           0        4.695273    2.720465   -1.310066
     28          1           0        3.437623    1.170482   -2.793745
     29          1           0        2.146208   -0.734354   -1.801810
     30          1           0        3.372352    0.467071    2.131942
     31          1           0        4.667768    2.375826    1.152839
     32          7           0        1.942767   -1.337372    0.787208
     33          8           0        1.962318   -1.462642    2.009731
     34          8           0        1.338960   -2.073432    0.009860
 ---------------------------------------------------------------------

 SCF Done:  E(RHF) =  -669.536256152     A.U. after   15 cycles
 E2 =    -0.2090936472D+01 EUMP2 =    -0.67162719262383D+03

 The electronic state is 1-A.
 Alpha  occ. eigenvalues --  -20.60986 -20.60976 -15.86015 -11.31314 -11.27875
 Alpha  occ. eigenvalues --  -11.27871 -11.27609 -11.26878 -11.26868 -11.21275
 Alpha  occ. eigenvalues --  -11.20877 -11.20815 -11.20725 -11.20646 -11.19779
 Alpha  occ. eigenvalues --   -1.60043  -1.39600  -1.19481  -1.08890  -1.07821
 Alpha  occ. eigenvalues --   -1.04874  -1.02849  -0.95736  -0.95287  -0.86309
 Alpha  occ. eigenvalues --   -0.86273  -0.82569  -0.78953  -0.77645  -0.77588
 Alpha  occ. eigenvalues --   -0.72239  -0.71357  -0.70589  -0.65138  -0.64876
 Alpha  occ. eigenvalues --   -0.64450  -0.62221  -0.60232  -0.58718  -0.56898
 Alpha  occ. eigenvalues --   -0.55379  -0.54555  -0.53207  -0.52965  -0.51982
 Alpha  occ. eigenvalues --   -0.51717  -0.49270  -0.48998  -0.48942  -0.47254
 Alpha  occ. eigenvalues --   -0.46001  -0.45220  -0.45115  -0.44827  -0.43123
 Alpha  occ. eigenvalues --   -0.37459  -0.36474
 Alpha virt. eigenvalues --    0.04871   0.11179   0.16343   0.21287   0.23437
 Alpha virt. eigenvalues --    0.25045   0.27089   0.27302   0.27924   0.28198
 Alpha virt. eigenvalues --    0.28891   0.30808   0.31942   0.32288   0.32561

 Mulliken charges:
               1
     1  C   -0.297321
     2  C   -0.298672
     3  C   -0.485859
     4  H    0.145869
     5  H    0.149016
     6  H    0.147081
     7  H    0.155597
     8  H    0.180080
     9  H    0.145879
    10  H    0.158854
    11  C   -0.298078
    12  C   -0.298794
    13  C   -0.475309
    14  H    0.148491
    15  H    0.150879
    16  H    0.150188
    17  H    0.149800
    18  H    0.155340
    19  H    0.155059
    20  H    0.157853
    21  C   -0.170531
    22  C   -0.218486
    23  C   -0.170761
    24  C    0.157532
    25  C   -0.170750
    26  C   -0.218577
    27  H    0.226134
    28  H    0.224100
    29  H    0.276098
    30  H    0.275830
    31  H    0.223896
    32  N    0.491017
    33  O   -0.458638
    34  O   -0.462816
 Sum of Mulliken charges =  -0.00000

 Dipole moment (field-independent basis, Debye):
    X=              2.9593    Y=              3.9222    Z=             -1.9774  Tot=              5.2963
 Quadrupole moment (field-independent basis, Debye-Ang):
   XX=            -80.9525   YY=            -97.5032   ZZ=            -91.3549
   XY=             11.5032   XZ=             -3.0450   YZ=              2.2056

 Normal termination of Gaussian 16 at Thu May  6 09:09:16 2021.
