 Gaussian 16, Revision A.03,
 Gaussian 16:  EM64L-G16RevA.03 25-Dec-2016

 -------------
 #p 6-31g* mp2
 -------------

 ------------------------------------------------------
 Input file generated by CHIRIPA (05-May-2021 14:53:17)
 ------------------------------------------------------
 Symbolic Z-matrix:
 Charge =  0 Multiplicity = 1

                         Standard orientation:
 ---------------------------------------------------------------------
 Center     Atomic      Atomic             Coordinates (Angstroms)
 Number     Number       Type             X           Y           Z
 ---------------------------------------------------------------------
      1          6           0       -2.711858   -0.168702   -0.256794
      2          6           0       -4.131275   -0.329833    0.288437
      3          6           0       -4.481891   -1.784308    0.603658
      4          1           0       -2.602990   -0.778527   -1.164101
      5          1           0       -1.997438   -0.568501    0.476117
      6          1           0       -4.842717    0.071411   -0.444686
      7          1           0       -4.236835    0.280597    1.194444
      8          1           0       -3.795151   -2.192601    1.352180
      9          1           0       -4.404476   -2.402976   -0.296263
     10          1           0       -5.500945   -1.876500    0.992103
     11          6           0       -2.346553    1.279731   -0.576674
     12          6           0       -0.927136    1.440861   -1.121905
     13          6           0       -0.576520    2.895336   -1.437126
     14          1           0       -3.060972    1.679530   -1.309586
     15          1           0       -2.455420    1.889556    0.330633
     16          1           0       -0.821576    0.830431   -2.027912
     17          1           0       -0.215694    1.039617   -0.388782
     18          1           0       -0.653935    3.514004   -0.537205
     19          1           0       -1.263260    3.303630   -2.185648
     20          1           0        0.442534    2.987529   -1.825571
     21          6           0        1.656751    0.944507    2.414539
     22          6           0        2.496261    1.403722    1.394310
     23          6           0        2.680560    0.648255    0.232479
     24          6           0        2.006800   -0.567264    0.123620
     25          6           0        1.163771   -1.051757    1.122549
     26          6           0        0.994354   -0.279609    2.275646
     27          1           0        1.519364    1.537850    3.313684
     28          1           0        3.011963    2.354008    1.499445
     29          1           0        3.324652    0.979972   -0.572833
     30          1           0        0.663140   -2.003043    0.988974
     31          1           0        0.341769   -0.638736    3.066347
     32          7           0        2.194032   -1.375873   -1.101736
     33          8           0        1.589096   -2.443374   -1.173349
     34          8           0        2.942176   -0.926847   -1.967354
 ---------------------------------------------------------------------

 SCF Done:  E(RHF) =  -669.534434797     A.U. after   15 cycles
 E2 =    -0.2095263262D+01 EUMP2 =    -0.67162969805900D+03

 The electronic state is 1-A.
 Alpha  occ. eigenvalues --  -20.60808 -20.60802 -15.85862 -11.31246 -11.27859
 Alpha  occ. eigenvalues --  -11.27849 -11.27648 -11.26927 -11.26912 -11.21699
 Alpha  occ. eigenvalues --  -11.21431 -11.21395 -11.21343 -11.21187 -11.21087
 Alpha  occ. eigenvalues --   -1.59881  -1.39434  -1.19500  -1.08863  -1.08443
 Alpha  occ. eigenvalues --   -1.04898  -1.03550  -0.96017  -0.95686  -0.87035
 Alpha  occ. eigenvalues --   -0.86279  -0.82516  -0.79628  -0.78275  -0.77549
 Alpha  occ. eigenvalues --   -0.72085  -0.71205  -0.70580  -0.65143  -0.65092
 Alpha  occ. eigenvalues --   -0.64887  -0.62233  -0.60990  -0.59405  -0.57639
 Alpha  occ. eigenvalues --   -0.55391  -0.55326  -0.53382  -0.52974  -0.52671
 Alpha  occ. eigenvalues --   -0.52432  -0.49952  -0.48847  -0.48834  -0.47909
 Alpha  occ. eigenvalues --   -0.46610  -0.45773  -0.45627  -0.44829  -0.43802
 Alpha  occ. eigenvalues --   -0.37424  -0.36484
 Alpha virt. eigenvalues --    0.04944   0.11103   0.16364   0.21018   0.22973
 Alpha virt. eigenvalues --    0.24078   0.26139   0.27027   0.27449   0.28134
 Alpha virt. eigenvalues --    0.28621   0.30791   0.31430   0.31505   0.31920

 Mulliken charges:
               1
     1  C   -0.299893
     2  C   -0.299641
     3  C   -0.474864
     4  H    0.155788
     5  H    0.143023
     6  H    0.153476
     7  H    0.148764
     8  H    0.150385
     9  H    0.158918
    10  H    0.160246
    11  C   -0.296057
    12  C   -0.311268
    13  C   -0.473812
    14  H    0.149910
    15  H    0.145279
    16  H    0.156201
    17  H    0.163351
    18  H    0.150283
    19  H    0.155954
    20  H    0.158363
    21  C   -0.172037
    22  C   -0.215604
    23  C   -0.172971
    24  C    0.160114
    25  C   -0.173291
    26  C   -0.216875
    27  H    0.226445
    28  H    0.224570
    29  H    0.276106
    30  H    0.276673
    31  H    0.224314
    32  N    0.489040
    33  O   -0.460181
    34  O   -0.460710
 Sum of Mulliken charges =  -0.00000

 Dipole moment (field-independent basis, Debye):
    X=             -0.5573    Y=              2.7880    Z=              4.2815  Tot=              5.1396
 Quadrupole moment (field-independent basis, Debye-Ang):
   XX=            -96.0572   YY=            -97.1941   ZZ=            -92.6616
   XY=              8.4941   XZ=              8.1010   YZ=             -2.9642

 Normal termination of Gaussian 16 at Thu May  6 09:09:16 2021.
