 Gaussian 16, Revision A.03,
 Gaussian 16:  EM64L-G16RevA.03 25-Dec-2016

 -------------
 #p 6-31g* mp2
 -------------

 ------------------------------------------------------
 Input file generated by CHIRIPA (05-May-2021 14:51:11)
 ------------------------------------------------------
 Symbolic Z-matrix:
 Charge =  0 Multiplicity = 1

                         Standard orientation:
 ---------------------------------------------------------------------
 Center     Atomic      Atomic             Coordinates (Angstroms)
 Number     Number       Type             X           Y           Z
 ---------------------------------------------------------------------
      1          6           0       -3.533917   -0.568141    0.463921
      2          6           0       -2.275582    0.284394    0.297300
      3          6           0       -1.053860   -0.323884    0.986640
      4          1           0       -3.742073   -0.697870    1.534802
      5          1           0       -3.344771   -1.571739    0.058446
      6          1           0       -2.467498    1.286507    0.701716
      7          1           0       -2.070505    0.412268   -0.773310
      8          1           0       -0.834402   -1.315300    0.577330
      9          1           0       -1.233650   -0.436094    2.060738
     10          1           0       -0.165578    0.301779    0.854888
     11          6           0       -4.763696    0.026851   -0.219713
     12          6           0       -6.022031   -0.825683   -0.053093
     13          6           0       -7.243753   -0.217405   -0.742433
     14          1           0       -4.952842    1.030449    0.185762
     15          1           0       -4.555540    0.156581   -1.290594
     16          1           0       -6.227108   -0.953558    1.017518
     17          1           0       -5.830115   -1.827797   -0.457508
     18          1           0       -7.063963   -0.105196   -1.816530
     19          1           0       -7.463211    0.774010   -0.333123
     20          1           0       -8.132035   -0.843069   -0.610680
     21          6           0        4.491562   -0.323162    0.214563
     22          6           0        5.422005   -1.096283   -0.720608
     23          6           0        6.100332   -2.281312   -0.032589
     24          1           0        5.066025    0.033466    1.080446
     25          1           0        3.726625   -1.007312    0.607253
     26          1           0        6.184130   -0.410568   -1.112499
     27          1           0        4.845301   -1.450948   -1.584460
     28          1           0        5.353197   -2.987638    0.343570
     29          1           0        6.699632   -1.941347    0.818213
     30          1           0        6.760886   -2.819860   -0.719243
     31          6           0        3.806051    0.864452   -0.458770
     32          6           0        2.875607    1.637572    0.476401
     33          6           0        2.197282    2.822602   -0.211619
     34          1           0        4.570988    1.548601   -0.851460
     35          1           0        3.231588    0.507824   -1.324654
     36          1           0        3.452312    1.992237    1.340253
     37          1           0        2.113483    0.951857    0.868291
     38          1           0        1.597980    2.482636   -1.062421
     39          1           0        2.944416    3.528927   -0.587776
     40          1           0        1.536727    3.361150    0.475036
 ---------------------------------------------------------------------

 SCF Done:  E(RHF) =  -470.733343566     A.U. after   11 cycles
 E2 =    -0.1582449086D+01 EUMP2 =    -0.47231579265200D+03

 The electronic state is 1-A.
 Alpha  occ. eigenvalues --  -11.21621 -11.21610 -11.21586 -11.21585 -11.21417
 Alpha  occ. eigenvalues --  -11.21388 -11.21357 -11.21328 -11.21089 -11.21080
 Alpha  occ. eigenvalues --  -11.21077 -11.21057  -1.08445  -1.08416  -1.03557
 Alpha  occ. eigenvalues --   -1.03511  -0.96008  -0.95960  -0.87020  -0.86982
 Alpha  occ. eigenvalues --   -0.79642  -0.79553  -0.78257  -0.78227  -0.65075
 Alpha  occ. eigenvalues --   -0.65060  -0.60980  -0.60937  -0.59437  -0.59254
 Alpha  occ. eigenvalues --   -0.57659  -0.57522  -0.55280  -0.55259  -0.52724
 Alpha  occ. eigenvalues --   -0.52651  -0.52422  -0.52389  -0.49936  -0.49909
 Alpha  occ. eigenvalues --   -0.47991  -0.47845  -0.46640  -0.46609  -0.45799
 Alpha  occ. eigenvalues --   -0.45771  -0.45721  -0.45696  -0.43799  -0.43727
 Alpha virt. eigenvalues --    0.21299   0.23034   0.23628   0.25071   0.26275
 Alpha virt. eigenvalues --    0.26638   0.27229   0.27426   0.27963   0.28689
 Alpha virt. eigenvalues --    0.30480   0.31368   0.31609   0.31852   0.31988

 Mulliken charges:
               1
     1  C   -0.298637
     2  C   -0.298579
     3  C   -0.484508
     4  H    0.149707
     5  H    0.149427
     6  H    0.152225
     7  H    0.151726
     8  H    0.154729
     9  H    0.155492
    10  H    0.168479
    11  C   -0.298227
    12  C   -0.299641
    13  C   -0.475710
    14  H    0.149617
    15  H    0.149643
    16  H    0.151964
    17  H    0.151901
    18  H    0.155187
    19  H    0.155224
    20  H    0.160273
    21  C   -0.298555
    22  C   -0.299647
    23  C   -0.475716
    24  H    0.149612
    25  H    0.150182
    26  H    0.151839
    27  H    0.151879
    28  H    0.155278
    29  H    0.155166
    30  H    0.160161
    31  C   -0.297721
    32  C   -0.307438
    33  C   -0.475868
    34  H    0.149474
    35  H    0.149576
    36  H    0.152306
    37  H    0.158179
    38  H    0.155287
    39  H    0.155450
    40  H    0.160262
 Sum of Mulliken charges =  -0.00000

 Dipole moment (field-independent basis, Debye):
    X=             -0.0037    Y=              0.0052    Z=              0.0046  Tot=              0.0079
 Quadrupole moment (field-independent basis, Debye-Ang):
   XX=            -85.4096   YY=            -85.0624   ZZ=            -84.2907
   XY=              1.1512   XZ=             -0.6094   YZ=              1.0797

 Normal termination of Gaussian 16 at Thu May  6 03:51:36 2021.
