 Gaussian 16, Revision A.03,
 Gaussian 16:  EM64L-G16RevA.03 25-Dec-2016

 -------------
 #p 6-31g* mp2
 -------------

 ------------------------------------------------------
 Input file generated by CHIRIPA (05-May-2021 14:57:25)
 ------------------------------------------------------
 Symbolic Z-matrix:
 Charge =  0 Multiplicity = 1

                         Standard orientation:
 ---------------------------------------------------------------------
 Center     Atomic      Atomic             Coordinates (Angstroms)
 Number     Number       Type             X           Y           Z
 ---------------------------------------------------------------------
      1          6           0       -1.771635    2.868352    0.033934
      2          6           0       -1.728550    2.066886    1.179498
      3          6           0       -2.140290    0.731837    1.127886
      4          6           0       -2.591486    0.228570   -0.091308
      5          6           0       -2.646239    1.001786   -1.249941
      6          6           0       -2.229535    2.334186   -1.174998
      7          1           0       -1.449858    3.904421    0.083089
      8          1           0       -1.373404    2.479050    2.119730
      9          1           0       -2.117370    0.089041    1.999497
     10          1           0       -3.005158    0.562720   -2.172879
     11          1           0       -2.264088    2.954275   -2.066256
     12          7           0       -3.030005   -1.183384   -0.158297
     13          8           0       -3.423379   -1.602954   -1.244508
     14          8           0       -2.972038   -1.843767    0.876677
     15          6           0        0.753706   -2.204185    0.539811
     16          6           0        1.580061   -2.323804   -0.582396
     17          6           0        2.561637   -1.364062   -0.846879
     18          6           0        2.689896   -0.292780    0.035840
     19          6           0        1.881899   -0.145770    1.162259
     20          6           0        0.906992   -1.117465    1.407029
     21          1           0       -0.006215   -2.954379    0.737612
     22          1           0        1.463280   -3.166706   -1.257617
     23          1           0        3.214891   -1.432109   -1.708301
     24          1           0        2.022153    0.705630    1.817137
     25          1           0        0.266651   -1.021993    2.279320
     26          7           0        3.725516    0.729585   -0.233721
     27          8           0        3.818385    1.663969    0.559334
     28          8           0        4.424757    0.577169   -1.232956
 ---------------------------------------------------------------------

 SCF Done:  E(RHF) =  -868.339000409     A.U. after   16 cycles
 E2 =    -0.2601895212D+01 EUMP2 =    -0.87094089562073D+03

 The electronic state is 1-A.
 Alpha  occ. eigenvalues --  -20.61639 -20.61587 -20.60841 -20.60824 -15.86636
 Alpha  occ. eigenvalues --  -15.85885 -11.31719 -11.31105 -11.28362 -11.28242
 Alpha  occ. eigenvalues --  -11.27921 -11.27712 -11.27633 -11.27241 -11.27175
 Alpha  occ. eigenvalues --  -11.27160 -11.26639 -11.26540  -1.60678  -1.59915
 Alpha  occ. eigenvalues --   -1.40244  -1.39473  -1.19877  -1.19250  -1.09304
 Alpha  occ. eigenvalues --   -1.08636  -1.05268  -1.04644  -0.96196  -0.95497
 Alpha  occ. eigenvalues --   -0.86675  -0.86023  -0.83057  -0.82353  -0.78157
 Alpha  occ. eigenvalues --   -0.77455  -0.72871  -0.72108  -0.72004  -0.71238
 Alpha  occ. eigenvalues --   -0.70992  -0.70221  -0.65539  -0.65300  -0.64883
 Alpha  occ. eigenvalues --   -0.64625  -0.62666  -0.61975  -0.55729  -0.54996
 Alpha  occ. eigenvalues --   -0.53722  -0.53380  -0.52833  -0.52682  -0.49648
 Alpha  occ. eigenvalues --   -0.49592  -0.48871  -0.48845  -0.45709  -0.44913
 Alpha  occ. eigenvalues --   -0.37913  -0.37244  -0.36967  -0.35905
 Alpha virt. eigenvalues --    0.04293   0.05140   0.10355   0.11854   0.15848
 Alpha virt. eigenvalues --    0.16706   0.19884   0.22186   0.25528   0.27242
 Alpha virt. eigenvalues --    0.28521   0.29189   0.30308   0.31160   0.32174

 Mulliken charges:
               1
     1  C   -0.167937
     2  C   -0.219780
     3  C   -0.169767
     4  C    0.160883
     5  C   -0.169753
     6  C   -0.218096
     7  H    0.230644
     8  H    0.223384
     9  H    0.268054
    10  H    0.276282
    11  H    0.226757
    12  N    0.488493
    13  O   -0.456851
    14  O   -0.470087
    15  C   -0.177462
    16  C   -0.219095
    17  C   -0.171555
    18  C    0.157404
    19  C   -0.170078
    20  C   -0.218837
    21  H    0.243707
    22  H    0.226767
    23  H    0.274812
    24  H    0.269484
    25  H    0.219083
    26  N    0.488187
    27  O   -0.464203
    28  O   -0.460441
 Sum of Mulliken charges =  -0.00000

 Dipole moment (field-independent basis, Debye):
    X=             -2.2642    Y=              1.3925    Z=              0.9783  Tot=              2.8325
 Quadrupole moment (field-independent basis, Debye-Ang):
   XX=           -133.9024   YY=            -99.3506   ZZ=            -97.0943
   XY=            -22.6673   XZ=              1.7837   YZ=              0.8604

 Normal termination of Gaussian 16 at Thu May  6 14:45:14 2021.
