 Gaussian 16, Revision A.03,
 Gaussian 16:  EM64L-G16RevA.03 25-Dec-2016

 -------------
 #p 6-31g* mp2
 -------------

 ------------------------------------------------------
 Input file generated by CHIRIPA (05-May-2021 14:57:24)
 ------------------------------------------------------
 Symbolic Z-matrix:
 Charge =  0 Multiplicity = 1

                         Standard orientation:
 ---------------------------------------------------------------------
 Center     Atomic      Atomic             Coordinates (Angstroms)
 Number     Number       Type             X           Y           Z
 ---------------------------------------------------------------------
      1          6           0        1.468630    0.809230    0.747692
      2          6           0        1.651013   -0.437102    0.139486
      3          6           0        2.930605   -0.872162   -0.218166
      4          6           0        4.010304   -0.031593    0.048265
      5          6           0        3.860960    1.215560    0.652908
      6          6           0        2.572240    1.630136    1.002014
      7          1           0        0.471066    1.139238    1.022205
      8          1           0        0.795772   -1.076726   -0.059230
      9          1           0        3.100363   -1.832263   -0.690190
     10          1           0        4.732858    1.831067    0.838286
     11          1           0        2.433592    2.598553    1.474232
     12          7           0        5.369783   -0.481329   -0.325841
     13          8           0        6.304662    0.277873   -0.080383
     14          8           0        5.474721   -1.584518   -0.857441
     15          6           0       -3.478076    2.411327   -0.609470
     16          6           0       -2.376970    1.548983   -0.630662
     17          6           0       -2.535964    0.187539   -0.355453
     18          6           0       -3.816038   -0.279758   -0.061628
     19          6           0       -4.932689    0.554236   -0.032715
     20          6           0       -4.750178    1.912082   -0.311091
     21          1           0       -3.345432    3.467532   -0.824489
     22          1           0       -1.387869    1.933918   -0.862067
     23          1           0       -1.700812   -0.502278   -0.364977
     24          1           0       -5.906348    0.141165    0.201332
     25          1           0       -5.607123    2.579460   -0.293911
     26          7           0       -3.996805   -1.719153    0.231400
     27          8           0       -5.134959   -2.106065    0.487416
     28          8           0       -2.996915   -2.433184    0.199511
 ---------------------------------------------------------------------

 SCF Done:  E(RHF) =  -868.337090933     A.U. after   16 cycles
 E2 =    -0.2600635235D+01 EUMP2 =    -0.87093772616821D+03

 The electronic state is 1-A.
 Alpha  occ. eigenvalues --  -20.61600 -20.61576 -20.61013 -20.61005 -15.86648
 Alpha  occ. eigenvalues --  -15.86068 -11.32122 -11.31555 -11.28817 -11.28638
 Alpha  occ. eigenvalues --  -11.28408 -11.28132 -11.28109 -11.27959 -11.27773
 Alpha  occ. eigenvalues --  -11.27650 -11.27217 -11.27207  -1.60660  -1.60084
 Alpha  occ. eigenvalues --   -1.40214  -1.39634  -1.20297  -1.19746  -1.09654
 Alpha  occ. eigenvalues --   -1.09144  -1.05731  -1.05157  -0.96481  -0.95950
 Alpha  occ. eigenvalues --   -0.87112  -0.86569  -0.83326  -0.82764  -0.78376
 Alpha  occ. eigenvalues --   -0.77775  -0.72864  -0.72286  -0.71983  -0.71414
 Alpha  occ. eigenvalues --   -0.71408  -0.70885  -0.65950  -0.65742  -0.65405
 Alpha  occ. eigenvalues --   -0.65187  -0.63092  -0.62453  -0.56182  -0.55741
 Alpha  occ. eigenvalues --   -0.54013  -0.53828  -0.53483  -0.53224  -0.49632
 Alpha  occ. eigenvalues --   -0.49610  -0.49055  -0.49031  -0.45596  -0.45011
 Alpha  occ. eigenvalues --   -0.38245  -0.37775  -0.37331  -0.36751
 Alpha virt. eigenvalues --    0.04159   0.04719   0.10313   0.10852   0.15488
 Alpha virt. eigenvalues --    0.16090   0.18395   0.22020   0.24487   0.26188
 Alpha virt. eigenvalues --    0.27724   0.29048   0.30091   0.31048   0.31720

 Mulliken charges:
               1
     1  C   -0.179511
     2  C   -0.225647
     3  C   -0.169839
     4  C    0.159439
     5  C   -0.170505
     6  C   -0.218595
     7  H    0.223888
     8  H    0.230323
     9  H    0.279678
    10  H    0.276722
    11  H    0.223270
    12  N    0.487807
    13  O   -0.459737
    14  O   -0.458079
    15  C   -0.170191
    16  C   -0.225983
    17  C   -0.177629
    18  C    0.160023
    19  C   -0.168761
    20  C   -0.218073
    21  H    0.228548
    22  H    0.224037
    23  H    0.274141
    24  H    0.278808
    25  H    0.227101
    26  N    0.487617
    27  O   -0.456019
    28  O   -0.462834
 Sum of Mulliken charges =  -0.00000

 Dipole moment (field-independent basis, Debye):
    X=             -4.2926    Y=              6.6339    Z=              0.2624  Tot=              7.9059
 Quadrupole moment (field-independent basis, Debye-Ang):
   XX=           -140.8399   YY=           -104.4866   ZZ=           -105.4255
   XY=            -12.5495   XZ=              9.0838   YZ=              1.8333

 Normal termination of Gaussian 16 at Thu May  6 19:39:56 2021.
