 Gaussian 16, Revision A.03,
 Gaussian 16:  EM64L-G16RevA.03 25-Dec-2016

 -------------
 #p 6-31g* mp2
 -------------

 ------------------------------------------------------
 Input file generated by CHIRIPA (05-May-2021 14:51:13)
 ------------------------------------------------------
 Symbolic Z-matrix:
 Charge =  0 Multiplicity = 1

                         Standard orientation:
 ---------------------------------------------------------------------
 Center     Atomic      Atomic             Coordinates (Angstroms)
 Number     Number       Type             X           Y           Z
 ---------------------------------------------------------------------
      1          6           0        3.890874   -0.581523   -0.295418
      2          6           0        5.376050   -0.687067    0.052571
      3          6           0        5.863373   -2.134171    0.131327
      4          1           0        3.304848   -1.126839    0.457011
      5          1           0        3.709997   -1.083113   -1.256192
      6          1           0        5.554314   -0.184226    1.011731
      7          1           0        5.958595   -0.141276   -0.700668
      8          1           0        5.714300   -2.643520   -0.826244
      9          1           0        5.307722   -2.686714    0.895885
     10          1           0        6.927638   -2.186350    0.381281
     11          6           0        3.388838    0.858928   -0.377814
     12          6           0        1.903661    0.964472   -0.725803
     13          6           0        1.416339    2.411575   -0.804559
     14          1           0        3.569715    1.360517    0.582960
     15          1           0        3.974864    1.404243   -1.130243
     16          1           0        1.321117    0.418680    0.027436
     17          1           0        1.725398    0.461630   -1.684964
     18          1           0        1.971990    2.964119   -1.569117
     19          1           0        1.565411    2.920924    0.153012
     20          1           0        0.352074    2.463754   -1.054513
     21          6           0       -4.204557   -0.046214   -0.169338
     22          6           0       -5.230140   -1.180093   -0.147359
     23          6           0       -6.353673   -0.980770   -1.165072
     24          1           0       -4.715746    0.905891    0.028468
     25          1           0       -3.776810    0.032423   -1.178419
     26          1           0       -5.654820   -1.257470    0.861737
     27          1           0       -4.716421   -2.129634   -0.345052
     28          1           0       -5.948276   -0.925406   -2.180547
     29          1           0       -6.892006   -0.048286   -0.966902
     30          1           0       -7.075529   -1.802786   -1.132305
     31          6           0       -3.075154   -0.231190    0.842570
     32          6           0       -2.049571    0.902690    0.820592
     33          6           0       -0.926039    0.703366    1.838304
     34          1           0       -3.502902   -0.309827    1.851651
     35          1           0       -2.563967   -1.183295    0.644765
     36          1           0       -2.563290    1.852230    1.018284
     37          1           0       -1.624891    0.980065   -0.188505
     38          1           0       -0.387706   -0.229119    1.640134
     39          1           0       -1.331436    0.648001    2.853780
     40          1           0       -0.204182    1.525382    1.805536
 ---------------------------------------------------------------------

 SCF Done:  E(RHF) =  -470.732336500     A.U. after   11 cycles
 E2 =    -0.1583930426D+01 EUMP2 =    -0.47231626692602D+03

 The electronic state is 1-A.
 Alpha  occ. eigenvalues --  -11.21617 -11.21609 -11.21584 -11.21483 -11.21416
 Alpha  occ. eigenvalues --  -11.21375 -11.21357 -11.21311 -11.21081 -11.21076
 Alpha  occ. eigenvalues --  -11.21060 -11.21038  -1.08460  -1.08381  -1.03615
 Alpha  occ. eigenvalues --   -1.03435  -0.96068  -0.95890  -0.87023  -0.86971
 Alpha  occ. eigenvalues --   -0.79662  -0.79518  -0.78257  -0.78212  -0.65179
 Alpha  occ. eigenvalues --   -0.64962  -0.61233  -0.60750  -0.59497  -0.59150
 Alpha  occ. eigenvalues --   -0.57731  -0.57410  -0.55391  -0.55121  -0.52695
 Alpha  occ. eigenvalues --   -0.52620  -0.52421  -0.52377  -0.50067  -0.49817
 Alpha  occ. eigenvalues --   -0.47948  -0.47858  -0.46750  -0.46459  -0.45818
 Alpha  occ. eigenvalues --   -0.45744  -0.45714  -0.45591  -0.43815  -0.43716
 Alpha virt. eigenvalues --    0.20900   0.23093   0.23464   0.25113   0.26079
 Alpha virt. eigenvalues --    0.26153   0.26769   0.27425   0.27997   0.29370
 Alpha virt. eigenvalues --    0.29657   0.31116   0.31596   0.32329   0.32640

 Mulliken charges:
               1
     1  C   -0.298242
     2  C   -0.299609
     3  C   -0.475706
     4  H    0.149265
     5  H    0.149291
     6  H    0.152001
     7  H    0.151930
     8  H    0.155067
     9  H    0.155143
    10  H    0.160219
    11  C   -0.297416
    12  C   -0.308084
    13  C   -0.478791
    14  H    0.149188
    15  H    0.149304
    16  H    0.162712
    17  H    0.150549
    18  H    0.155168
    19  H    0.154198
    20  H    0.163119
    21  C   -0.298364
    22  C   -0.299661
    23  C   -0.475724
    24  H    0.149679
    25  H    0.149491
    26  H    0.151947
    27  H    0.151997
    28  H    0.155201
    29  H    0.155192
    30  H    0.160284
    31  C   -0.298220
    32  C   -0.303348
    33  C   -0.480608
    34  H    0.149578
    35  H    0.149804
    36  H    0.152235
    37  H    0.155745
    38  H    0.154806
    39  H    0.155953
    40  H    0.164701
 Sum of Mulliken charges =  -0.00000

 Dipole moment (field-independent basis, Debye):
    X=             -0.0298    Y=              0.0017    Z=              0.0179  Tot=              0.0348
 Quadrupole moment (field-independent basis, Debye-Ang):
   XX=            -85.5768   YY=            -85.5485   ZZ=            -83.8084
   XY=              0.1894   XZ=             -1.2140   YZ=              0.4631

 Normal termination of Gaussian 16 at Wed May  5 16:50:56 2021.
