 Gaussian 16, Revision A.03,
 Gaussian 16:  EM64L-G16RevA.03 25-Dec-2016

 -------------
 #p 6-31g* mp2
 -------------

 ------------------------------------------------------
 Input file generated by CHIRIPA (05-May-2021 14:51:12)
 ------------------------------------------------------
 Symbolic Z-matrix:
 Charge =  0 Multiplicity = 1

                         Standard orientation:
 ---------------------------------------------------------------------
 Center     Atomic      Atomic             Coordinates (Angstroms)
 Number     Number       Type             X           Y           Z
 ---------------------------------------------------------------------
      1          6           0        2.741061    0.545512   -0.089739
      2          6           0        2.398342    2.029127    0.049594
      3          6           0        0.915137    2.269147    0.332944
      4          1           0        2.136875    0.110449   -0.897591
      5          1           0        2.453538    0.021750    0.832432
      6          1           0        2.687695    2.550177   -0.872034
      7          1           0        3.003553    2.460752    0.857080
      8          1           0        0.615710    1.775046    1.262895
      9          1           0        0.298057    1.864978   -0.476044
     10          1           0        0.692308    3.336391    0.428843
     11          6           0        4.220190    0.289449   -0.373175
     12          6           0        4.562909   -1.194167   -0.512508
     13          6           0        6.046114   -1.434186   -0.795859
     14          1           0        4.507713    0.813211   -1.295346
     15          1           0        4.824376    0.724511    0.434677
     16          1           0        3.957698   -1.625792   -1.319995
     17          1           0        4.273556   -1.715217    0.409120
     18          1           0        6.663194   -1.030018    0.013130
     19          1           0        6.345541   -0.940085   -1.725809
     20          1           0        6.268943   -2.501431   -0.891758
     21          6           0       -2.933818   -0.874547    0.506272
     22          6           0       -1.914758   -0.143048    1.380578
     23          6           0       -0.827133   -1.070793    1.922938
     24          1           0       -3.396308   -1.681798    1.090561
     25          1           0       -2.409756   -1.355575   -0.331205
     26          1           0       -2.440757    0.337612    2.215388
     27          1           0       -1.454779    0.662677    0.794198
     28          1           0       -0.276619   -1.540551    1.101438
     29          1           0       -1.268199   -1.867464    2.530703
     30          1           0       -0.109390   -0.527217    2.545217
     31          6           0       -4.027433    0.039587   -0.043358
     32          6           0       -5.046493   -0.691913   -0.917664
     33          6           0       -6.134118    0.235833   -1.460024
     34          1           0       -4.551494    0.520614    0.794119
     35          1           0       -3.564943    0.846837   -0.627647
     36          1           0       -5.506473   -1.497638   -0.331284
     37          1           0       -4.520495   -1.172573   -1.752474
     38          1           0       -5.693052    1.032503   -2.067788
     39          1           0       -6.684632    0.705591   -0.638523
     40          1           0       -6.851860   -0.307744   -2.082303
 ---------------------------------------------------------------------

 SCF Done:  E(RHF) =  -470.732285425     A.U. after   11 cycles
 E2 =    -0.1583785579D+01 EUMP2 =    -0.47231607100401D+03

 The electronic state is 1-A.
 Alpha  occ. eigenvalues --  -11.21619 -11.21604 -11.21565 -11.21409 -11.21409
 Alpha  occ. eigenvalues --  -11.21349 -11.21340 -11.21274 -11.21085 -11.21073
 Alpha  occ. eigenvalues --  -11.21044 -11.21020  -1.08448  -1.08355  -1.03581
 Alpha  occ. eigenvalues --   -1.03435  -0.96027  -0.95907  -0.87037  -0.86935
 Alpha  occ. eigenvalues --   -0.79695  -0.79465  -0.78277  -0.78146  -0.65078
 Alpha  occ. eigenvalues --   -0.65000  -0.60984  -0.60880  -0.59428  -0.59248
 Alpha  occ. eigenvalues --   -0.57758  -0.57394  -0.55290  -0.55209  -0.52697
 Alpha  occ. eigenvalues --   -0.52638  -0.52459  -0.52347  -0.49937  -0.49852
 Alpha  occ. eigenvalues --   -0.48114  -0.47729  -0.46637  -0.46484  -0.45904
 Alpha  occ. eigenvalues --   -0.45716  -0.45662  -0.45444  -0.43798  -0.43718
 Alpha virt. eigenvalues --    0.21294   0.23025   0.23498   0.25287   0.25476
 Alpha virt. eigenvalues --    0.26409   0.26779   0.27397   0.28288   0.29508
 Alpha virt. eigenvalues --    0.30051   0.31220   0.31707   0.31826   0.32476

 Mulliken charges:
               1
     1  C   -0.300185
     2  C   -0.299834
     3  C   -0.480520
     4  H    0.148768
     5  H    0.152628
     6  H    0.151740
     7  H    0.151905
     8  H    0.162022
     9  H    0.154729
    10  H    0.160412
    11  C   -0.298251
    12  C   -0.299696
    13  C   -0.475703
    14  H    0.149444
    15  H    0.149656
    16  H    0.151703
    17  H    0.152293
    18  H    0.155210
    19  H    0.155126
    20  H    0.160300
    21  C   -0.297734
    22  C   -0.308290
    23  C   -0.477225
    24  H    0.148986
    25  H    0.148703
    26  H    0.150628
    27  H    0.163519
    28  H    0.156771
    29  H    0.154937
    30  H    0.158622
    31  C   -0.298124
    32  C   -0.299551
    33  C   -0.475654
    34  H    0.149515
    35  H    0.149280
    36  H    0.151906
    37  H    0.151655
    38  H    0.155060
    39  H    0.155164
    40  H    0.160086
 Sum of Mulliken charges =  -0.00000

 Dipole moment (field-independent basis, Debye):
    X=              0.0352    Y=              0.0308    Z=              0.0028  Tot=              0.0468
 Quadrupole moment (field-independent basis, Debye-Ang):
   XX=            -86.4078   YY=            -85.1803   ZZ=            -83.4003
   XY=              0.8507   XZ=             -0.4213   YZ=              0.0254

 Normal termination of Gaussian 16 at Wed May  5 16:47:37 2021.
