 Gaussian 16, Revision A.03,
 Gaussian 16:  EM64L-G16RevA.03 25-Dec-2016

 -------------
 #p 6-31g* mp2
 -------------

 ------------------------------------------------------
 Input file generated by CHIRIPA (05-May-2021 14:51:10)
 ------------------------------------------------------
 Symbolic Z-matrix:
 Charge =  0 Multiplicity = 1

                         Standard orientation:
 ---------------------------------------------------------------------
 Center     Atomic      Atomic             Coordinates (Angstroms)
 Number     Number       Type             X           Y           Z
 ---------------------------------------------------------------------
      1          6           0        3.187526   -0.087393   -0.546484
      2          6           0        2.585009   -1.448890   -0.894742
      3          6           0        3.638874   -2.468227   -1.328461
      4          1           0        3.735476    0.297563   -1.417405
      5          1           0        3.926871   -0.215902    0.256167
      6          1           0        1.846017   -1.317650   -1.695544
      7          1           0        2.038267   -1.830561   -0.022952
      8          1           0        4.371144   -2.628511   -0.530532
      9          1           0        4.177802   -2.112686   -2.212626
     10          1           0        3.186335   -3.434357   -1.572715
     11          6           0        2.146450    0.942312   -0.111055
     12          6           0        2.748967    2.303809    0.237202
     13          6           0        1.695101    3.323147    0.670922
     14          1           0        1.407104    1.070821   -0.913706
     15          1           0        1.598499    0.557357    0.759866
     16          1           0        3.295708    2.685481   -0.634587
     17          1           0        3.487958    2.172570    1.038004
     18          1           0        1.156174    2.967605    1.555087
     19          1           0        0.962831    3.483431   -0.127008
     20          1           0        2.147641    4.289277    0.915176
     21          6           0       -2.433533   -0.933100    0.851511
     22          6           0       -0.986409   -0.720303    1.297083
     23          6           0       -0.533959   -1.739628    2.343056
     24          1           0       -3.092536   -0.877558    1.728766
     25          1           0       -2.539151   -1.948484    0.445020
     26          1           0       -0.883232    0.294855    1.701340
     27          1           0       -0.330795   -0.776168    0.418639
     28          1           0       -0.608317   -2.757387    1.946522
     29          1           0       -1.163892   -1.680278    3.236512
     30          1           0        0.503410   -1.569055    2.647409
     31          6           0       -2.900442    0.078181   -0.193972
     32          6           0       -4.347566   -0.134616   -0.639544
     33          6           0       -4.800017    0.884709   -1.685517
     34          1           0       -2.794825    1.093564    0.212520
     35          1           0       -2.241440    0.022638   -1.071227
     36          1           0       -5.003182   -0.078751    0.238900
     37          1           0       -4.450744   -1.149775   -1.043800
     38          1           0       -4.170083    0.825358   -2.578973
     39          1           0       -4.725660    1.902467   -1.288983
     40          1           0       -5.837386    0.714136   -1.989870
 ---------------------------------------------------------------------

 SCF Done:  E(RHF) =  -470.732105414     A.U. after   11 cycles
 E2 =    -0.1584631441D+01 EUMP2 =    -0.47231673685430D+03

 The electronic state is 1-A.
 Alpha  occ. eigenvalues --  -11.21626 -11.21584 -11.21564 -11.21490 -11.21373
 Alpha  occ. eigenvalues --  -11.21370 -11.21308 -11.21259 -11.21107 -11.21092
 Alpha  occ. eigenvalues --  -11.21062 -11.21058  -1.08468  -1.08355  -1.03526
 Alpha  occ. eigenvalues --   -1.03519  -0.95998  -0.95951  -0.87009  -0.86969
 Alpha  occ. eigenvalues --   -0.79676  -0.79572  -0.78484  -0.77929  -0.65101
 Alpha  occ. eigenvalues --   -0.64997  -0.61010  -0.60839  -0.59364  -0.59334
 Alpha  occ. eigenvalues --   -0.57702  -0.57486  -0.55263  -0.55252  -0.52703
 Alpha  occ. eigenvalues --   -0.52648  -0.52432  -0.52370  -0.49941  -0.49889
 Alpha  occ. eigenvalues --   -0.48070  -0.47868  -0.46735  -0.46588  -0.46169
 Alpha  occ. eigenvalues --   -0.45751  -0.45618  -0.45026  -0.43779  -0.43738
 Alpha virt. eigenvalues --    0.20981   0.23091   0.23392   0.24019   0.25082
 Alpha virt. eigenvalues --    0.26280   0.26708   0.28117   0.28537   0.29917
 Alpha virt. eigenvalues --    0.30379   0.31034   0.31768   0.31824   0.32045

 Mulliken charges:
               1
     1  C   -0.297277
     2  C   -0.304533
     3  C   -0.475378
     4  H    0.149328
     5  H    0.149022
     6  H    0.150953
     7  H    0.156495
     8  H    0.155362
     9  H    0.155289
    10  H    0.160123
    11  C   -0.305892
    12  C   -0.299109
    13  C   -0.475956
    14  H    0.148533
    15  H    0.160948
    16  H    0.151508
    17  H    0.151415
    18  H    0.154848
    19  H    0.155433
    20  H    0.160104
    21  C   -0.297393
    22  C   -0.308187
    23  C   -0.477716
    24  H    0.149018
    25  H    0.149171
    26  H    0.151286
    27  H    0.162687
    28  H    0.155505
    29  H    0.155554
    30  H    0.159213
    31  C   -0.298259
    32  C   -0.299607
    33  C   -0.475672
    34  H    0.149787
    35  H    0.149238
    36  H    0.151961
    37  H    0.151831
    38  H    0.154929
    39  H    0.155229
    40  H    0.160207
 Sum of Mulliken charges =  -0.00000

 Dipole moment (field-independent basis, Debye):
    X=              0.0049    Y=             -0.0063    Z=             -0.0011  Tot=              0.0080
 Quadrupole moment (field-independent basis, Debye-Ang):
   XX=            -85.4600   YY=            -85.5365   ZZ=            -84.0360
   XY=              0.5643   XZ=             -0.2454   YZ=              0.4157

 Normal termination of Gaussian 16 at Wed May  5 16:40:38 2021.
