 Gaussian 16, Revision A.03,
 Gaussian 16:  EM64L-G16RevA.03 25-Dec-2016

 -------------
 #p 6-31g* mp2
 -------------

 ------------------------------------------------------
 Input file generated by CHIRIPA (05-May-2021 14:55:23)
 ------------------------------------------------------
 Symbolic Z-matrix:
 Charge =  0 Multiplicity = 1

                         Standard orientation:
 ---------------------------------------------------------------------
 Center     Atomic      Atomic             Coordinates (Angstroms)
 Number     Number       Type             X           Y           Z
 ---------------------------------------------------------------------
      1          6           0       -3.047147    2.118673    0.737667
      2          6           0       -4.130842    1.237504    0.812952
      3          6           0       -3.989666   -0.096751    0.420038
      4          6           0       -2.744971   -0.517958   -0.045374
      5          6           0       -1.646395    0.335794   -0.132141
      6          6           0       -1.810563    1.665804    0.266191
      7          1           0       -3.165747    3.153506    1.044997
      8          1           0       -5.092360    1.586433    1.178706
      9          1           0       -4.811980   -0.800257    0.467946
     10          1           0       -0.700239   -0.041271   -0.500963
     11          1           0       -0.967207    2.347896    0.206636
     12          7           0       -2.583344   -1.928227   -0.464203
     13          8           0       -1.476353   -2.274630   -0.870668
     14          8           0       -3.566712   -2.660490   -0.378086
     15          6           0        3.499726    1.074094   -0.311341
     16          6           0        2.072300    1.621700   -0.335158
     17          6           0        1.992694    3.040260   -0.900085
     18          1           0        4.132847    1.744291    0.286102
     19          1           0        3.906940    1.086748   -1.331836
     20          1           0        1.667409    1.606724    0.684869
     21          1           0        1.442460    0.950019   -0.932454
     22          1           0        2.371269    3.067777   -1.926985
     23          1           0        2.597496    3.728214   -0.300472
     24          1           0        0.963356    3.412099   -0.907901
     25          6           0        3.595592   -0.343140    0.250786
     26          6           0        5.023019   -0.890745    0.274602
     27          6           0        5.102625   -2.309306    0.839530
     28          1           0        3.188379   -0.355794    1.271282
     29          1           0        2.962470   -1.013337   -0.346656
     30          1           0        5.652857   -0.219065    0.871900
     31          1           0        5.427910   -0.875771   -0.745424
     32          1           0        4.497823   -2.997260    0.239917
     33          1           0        4.724048   -2.336822    1.866430
     34          1           0        6.131961   -2.681146    0.847347
 ---------------------------------------------------------------------

 SCF Done:  E(RHF) =  -669.535101220     A.U. after   15 cycles
 E2 =    -0.2092429361D+01 EUMP2 =    -0.67162753058111D+03

 The electronic state is 1-A.
 Alpha  occ. eigenvalues --  -20.60715 -20.60709 -15.85764 -11.31089 -11.27675
 Alpha  occ. eigenvalues --  -11.27615 -11.27410 -11.26688 -11.26623 -11.22527
 Alpha  occ. eigenvalues --  -11.22036 -11.21892 -11.21703 -11.21578 -11.21015
 Alpha  occ. eigenvalues --   -1.59789  -1.39343  -1.19266  -1.08880  -1.08671
 Alpha  occ. eigenvalues --   -1.04673  -1.03995  -0.96422  -0.95511  -0.87440
 Alpha  occ. eigenvalues --   -0.86066  -0.82354  -0.80147  -0.78622  -0.77374
 Alpha  occ. eigenvalues --   -0.71986  -0.71110  -0.70388  -0.65515  -0.64919
 Alpha  occ. eigenvalues --   -0.64691  -0.62139  -0.61371  -0.59792  -0.58009
 Alpha  occ. eigenvalues --   -0.55667  -0.55168  -0.53184  -0.53049  -0.52987
 Alpha  occ. eigenvalues --   -0.52540  -0.50338  -0.48751  -0.48738  -0.48398
 Alpha  occ. eigenvalues --   -0.47143  -0.46149  -0.46019  -0.44757  -0.44229
 Alpha  occ. eigenvalues --   -0.37256  -0.36260
 Alpha virt. eigenvalues --    0.05127   0.11369   0.16589   0.19593   0.22850
 Alpha virt. eigenvalues --    0.23815   0.24753   0.26139   0.26629   0.28479
 Alpha virt. eigenvalues --    0.29586   0.30077   0.31204   0.31551   0.32418

 Mulliken charges:
               1
     1  C   -0.172067
     2  C   -0.218825
     3  C   -0.170666
     4  C    0.160003
     5  C   -0.179270
     6  C   -0.227819
     7  H    0.225535
     8  H    0.222990
     9  H    0.275201
    10  H    0.282339
    11  H    0.234242
    12  N    0.488043
    13  O   -0.460975
    14  O   -0.460730
    15  C   -0.297511
    16  C   -0.310697
    17  C   -0.478776
    18  H    0.151080
    19  H    0.152678
    20  H    0.150663
    21  H    0.153187
    22  H    0.162170
    23  H    0.159572
    24  H    0.152156
    25  C   -0.301278
    26  C   -0.300152
    27  C   -0.476530
    28  H    0.149865
    29  H    0.156188
    30  H    0.151025
    31  H    0.152746
    32  H    0.159626
    33  H    0.155523
    34  H    0.160462
 Sum of Mulliken charges =  -0.00000

 Dipole moment (field-independent basis, Debye):
    X=             -0.3303    Y=              4.9113    Z=              1.4488  Tot=              5.1311
 Quadrupole moment (field-independent basis, Debye-Ang):
   XX=            -86.4961   YY=           -101.2358   ZZ=            -94.6856
   XY=            -12.2627   XZ=             -5.4712   YZ=             -0.4837

 Normal termination of Gaussian 16 at Wed May  5 22:20:23 2021.
