 Gaussian 16, Revision A.03,
 Gaussian 16:  EM64L-G16RevA.03 25-Dec-2016

 -------------
 #p 6-31g* mp2
 -------------

 ------------------------------------------------------
 Input file generated by CHIRIPA (05-May-2021 14:55:25)
 ------------------------------------------------------
 Symbolic Z-matrix:
 Charge =  0 Multiplicity = 1

                         Standard orientation:
 ---------------------------------------------------------------------
 Center     Atomic      Atomic             Coordinates (Angstroms)
 Number     Number       Type             X           Y           Z
 ---------------------------------------------------------------------
      1          6           0        2.184559    2.717170   -0.812274
      2          6           0        1.942845    2.504030    0.548853
      3          6           0        2.028186    1.218794    1.092391
      4          6           0        2.359077    0.164876    0.242063
      5          6           0        2.605580    0.345136   -1.118096
      6          6           0        2.514573    1.638944   -1.639945
      7          1           0        2.116064    3.718902   -1.226083
      8          1           0        1.686358    3.339513    1.194010
      9          1           0        1.846067    1.025466    2.142570
     10          1           0        2.859221   -0.507543   -1.736175
     11          1           0        2.702817    1.801503   -2.697387
     12          7           0        2.452423   -1.200283    0.806002
     13          8           0        2.745659   -2.112046    0.035718
     14          8           0        2.230584   -1.332683    2.007624
     15          6           0       -3.733816   -0.287433   -0.198892
     16          6           0       -3.987335    1.048609    0.500181
     17          6           0       -5.460176    1.458419    0.475834
     18          1           0       -4.080299   -0.221165   -1.239325
     19          1           0       -4.340183   -1.066568    0.283460
     20          1           0       -3.379622    1.824727    0.017539
     21          1           0       -3.640033    0.979214    1.539017
     22          1           0       -6.077977    0.705033    0.975164
     23          1           0       -5.816087    1.555350   -0.554957
     24          1           0       -5.618771    2.416292    0.980997
     25          6           0       -2.266038   -0.710636   -0.182854
     26          6           0       -2.012518   -2.046679   -0.881927
     27          6           0       -0.539679   -2.456489   -0.857580
     28          1           0       -1.659672    0.068499   -0.665206
     29          1           0       -1.919554   -0.776905    0.857580
     30          1           0       -2.359821   -1.977283   -1.920763
     31          1           0       -2.620231   -2.822796   -0.399285
     32          1           0       -0.183767   -2.553420    0.173212
     33          1           0        0.078123   -1.703102   -1.356910
     34          1           0       -0.381082   -3.414361   -1.362743
 ---------------------------------------------------------------------

 SCF Done:  E(RHF) =  -669.535648805     A.U. after   15 cycles
 E2 =    -0.2093109216D+01 EUMP2 =    -0.67162875802123D+03

 The electronic state is 1-A.
 Alpha  occ. eigenvalues --  -20.60826 -20.60818 -15.85832 -11.31221 -11.27788
 Alpha  occ. eigenvalues --  -11.27783 -11.27534 -11.26813 -11.26801 -11.21593
 Alpha  occ. eigenvalues --  -11.21248 -11.21156 -11.21094 -11.21089 -11.20337
 Alpha  occ. eigenvalues --   -1.59878  -1.39433  -1.19393  -1.08786  -1.08216
 Alpha  occ. eigenvalues --   -1.04799  -1.03266  -0.95703  -0.95614  -0.86712
 Alpha  occ. eigenvalues --   -0.86194  -0.82458  -0.79356  -0.78033  -0.77499
 Alpha  occ. eigenvalues --   -0.72074  -0.71191  -0.70502  -0.65050  -0.64855
 Alpha  occ. eigenvalues --   -0.64797  -0.62148  -0.60664  -0.59094  -0.57310
 Alpha  occ. eigenvalues --   -0.55302  -0.54992  -0.53126  -0.52890  -0.52360
 Alpha  occ. eigenvalues --   -0.52128  -0.49662  -0.48845  -0.48814  -0.47670
 Alpha  occ. eigenvalues --   -0.46391  -0.45600  -0.45479  -0.44724  -0.43503
 Alpha  occ. eigenvalues --   -0.37357  -0.36392
 Alpha virt. eigenvalues --    0.04998   0.11162   0.16500   0.21350   0.23038
 Alpha virt. eigenvalues --    0.24493   0.26733   0.27196   0.27524   0.27966
 Alpha virt. eigenvalues --    0.28599   0.30802   0.31363   0.31987   0.32363

 Mulliken charges:
               1
     1  C   -0.170953
     2  C   -0.218273
     3  C   -0.170463
     4  C    0.160961
     5  C   -0.172430
     6  C   -0.219182
     7  H    0.225713
     8  H    0.223733
     9  H    0.275602
    10  H    0.276190
    11  H    0.223608
    12  N    0.488811
    13  O   -0.456691
    14  O   -0.460980
    15  C   -0.297615
    16  C   -0.299060
    17  C   -0.475425
    18  H    0.148384
    19  H    0.150669
    20  H    0.148579
    21  H    0.151823
    22  H    0.156280
    23  H    0.154674
    24  H    0.158618
    25  C   -0.299560
    26  C   -0.300738
    27  C   -0.477602
    28  H    0.146332
    29  H    0.151603
    30  H    0.147990
    31  H    0.152322
    32  H    0.166892
    33  H    0.147165
    34  H    0.163023
 Sum of Mulliken charges =  -0.00000

 Dipole moment (field-independent basis, Debye):
    X=             -0.1848    Y=              4.7227    Z=             -1.9237  Tot=              5.1029
 Quadrupole moment (field-independent basis, Debye-Ang):
   XX=            -98.1406   YY=            -92.7121   ZZ=            -91.0746
   XY=             11.4635   XZ=             -6.2631   YZ=              2.1165

 Normal termination of Gaussian 16 at Thu May  6 03:13:49 2021.
