 Gaussian 16, Revision A.03,
 Gaussian 16:  EM64L-G16RevA.03 25-Dec-2016

 -------------
 #p 6-31g* mp2
 -------------

 ------------------------------------------------------
 Input file generated by CHIRIPA (05-May-2021 14:57:26)
 ------------------------------------------------------
 Symbolic Z-matrix:
 Charge =  0 Multiplicity = 1

                         Standard orientation:
 ---------------------------------------------------------------------
 Center     Atomic      Atomic             Coordinates (Angstroms)
 Number     Number       Type             X           Y           Z
 ---------------------------------------------------------------------
      1          6           0        3.909845    1.920522   -0.507752
      2          6           0        2.531620    1.819780   -0.291257
      3          6           0        1.937249    0.574344   -0.067293
      4          6           0        2.754730   -0.554821   -0.066526
      5          6           0        4.130775   -0.487018   -0.279116
      6          6           0        4.703624    0.768831   -0.501002
      7          1           0        4.363207    2.892051   -0.680926
      8          1           0        1.912699    2.712505   -0.295948
      9          1           0        0.872820    0.467615    0.103053
     10          1           0        4.721803   -1.394759   -0.268634
     11          1           0        5.774238    0.844057   -0.668847
     12          7           0        2.136889   -1.878820    0.169475
     13          8           0        2.878994   -2.858565    0.165249
     14          8           0        0.922218   -1.911757    0.354210
     15          6           0       -1.456990    2.256088    0.955560
     16          6           0       -2.276635    2.429684   -0.164514
     17          6           0       -3.056390    1.373127   -0.644325
     18          6           0       -2.991863    0.151042    0.023234
     19          6           0       -2.185140   -0.053136    1.141624
     20          6           0       -1.413934    1.017416    1.603911
     21          1           0       -0.854579    3.082283    1.321483
     22          1           0       -2.312075    3.390540   -0.670029
     23          1           0       -3.699676    1.479973   -1.509302
     24          1           0       -2.170891   -1.022692    1.624506
     25          1           0       -0.778303    0.879712    2.474001
     26          7           0       -3.812829   -0.974896   -0.475446
     27          8           0       -3.738185   -2.041653    0.130439
     28          8           0       -4.515401   -0.769328   -1.462751
 ---------------------------------------------------------------------

 SCF Done:  E(RHF) =  -868.337082216     A.U. after   16 cycles
 E2 =    -0.2602568524D+01 EUMP2 =    -0.87093965073976D+03

 The electronic state is 1-A.
 Alpha  occ. eigenvalues --  -20.61054 -20.61027 -20.60566 -20.60520 -15.86097
 Alpha  occ. eigenvalues --  -15.85608 -11.31462 -11.31231 -11.28064 -11.27940
 Alpha  occ. eigenvalues --  -11.27899 -11.27858 -11.27797 -11.27763 -11.27134
 Alpha  occ. eigenvalues --  -11.27077 -11.27018 -11.26900  -1.60114  -1.59613
 Alpha  occ. eigenvalues --   -1.39669  -1.39157  -1.19670  -1.19488  -1.09069
 Alpha  occ. eigenvalues --   -1.08868  -1.05088  -1.04892  -0.95890  -0.95625
 Alpha  occ. eigenvalues --   -0.86501  -0.86277  -0.82734  -0.82424  -0.77785
 Alpha  occ. eigenvalues --   -0.77383  -0.72321  -0.71828  -0.71441  -0.70934
 Alpha  occ. eigenvalues --   -0.70784  -0.70612  -0.65328  -0.65138  -0.65103
 Alpha  occ. eigenvalues --   -0.64889  -0.62465  -0.62183  -0.55622  -0.55484
 Alpha  occ. eigenvalues --   -0.53544  -0.53412  -0.52971  -0.52822  -0.49066
 Alpha  occ. eigenvalues --   -0.49065  -0.48613  -0.48553  -0.45074  -0.44503
 Alpha  occ. eigenvalues --   -0.37677  -0.37568  -0.36733  -0.36416
 Alpha virt. eigenvalues --    0.04751   0.05082   0.10763   0.11279   0.16193
 Alpha virt. eigenvalues --    0.16422   0.20304   0.21821   0.26100   0.27179
 Alpha virt. eigenvalues --    0.28185   0.28799   0.30412   0.31560   0.32533

 Mulliken charges:
               1
     1  C   -0.169966
     2  C   -0.224398
     3  C   -0.181250
     4  C    0.156180
     5  C   -0.169269
     6  C   -0.219375
     7  H    0.225172
     8  H    0.216433
     9  H    0.291335
    10  H    0.276764
    11  H    0.224368
    12  N    0.488170
    13  O   -0.457698
    14  O   -0.463526
    15  C   -0.180323
    16  C   -0.219624
    17  C   -0.170145
    18  C    0.157985
    19  C   -0.154479
    20  C   -0.235543
    21  H    0.221612
    22  H    0.221826
    23  H    0.276728
    24  H    0.287363
    25  H    0.228342
    26  N    0.488355
    27  O   -0.452726
    28  O   -0.462311
 Sum of Mulliken charges =  -0.00000

 Dipole moment (field-independent basis, Debye):
    X=              4.8742    Y=              8.2406    Z=              0.9752  Tot=              9.6238
 Quadrupole moment (field-independent basis, Debye-Ang):
   XX=           -105.5833   YY=           -107.4853   ZZ=           -103.0167
   XY=             -2.8321   XZ=             -6.9391   YZ=             -1.9263

 Normal termination of Gaussian 16 at Thu May  6 13:09:25 2021.
