 Gaussian 16, Revision A.03,
 Gaussian 16:  EM64L-G16RevA.03 25-Dec-2016

 -------------
 #p 6-31g* mp2
 -------------

 ------------------------------------------------------
 Input file generated by CHIRIPA (05-May-2021 14:51:13)
 ------------------------------------------------------
 Symbolic Z-matrix:
 Charge =  0 Multiplicity = 1

                         Standard orientation:
 ---------------------------------------------------------------------
 Center     Atomic      Atomic             Coordinates (Angstroms)
 Number     Number       Type             X           Y           Z
 ---------------------------------------------------------------------
      1          6           0        3.105157   -0.370089    0.207213
      2          6           0        1.863884    0.370871   -0.290989
      3          6           0        0.560615   -0.299471    0.144814
      4          1           0        3.080916   -1.403824   -0.163932
      5          1           0        3.071860   -0.430849    1.303842
      6          1           0        1.900203    0.431428   -1.386265
      7          1           0        1.891180    1.403017    0.081227
      8          1           0        0.497892   -0.346277    1.236820
      9          1           0        0.506966   -1.323386   -0.239011
     10          1           0       -0.313994    0.246661   -0.222144
     11          6           0        4.415841    0.287934   -0.220388
     12          6           0        5.657114   -0.453025    0.277814
     13          6           0        6.960383    0.217317   -0.157990
     14          1           0        4.449138    0.348695   -1.317017
     15          1           0        4.440082    1.321669    0.150757
     16          1           0        5.629818   -1.485171   -0.094403
     17          1           0        5.620795   -0.513582    1.373090
     18          1           0        7.014032    1.241232    0.225835
     19          1           0        7.023106    0.264122   -1.249995
     20          1           0        7.834992   -0.328816    0.208968
     21          6           0       -3.532268   -0.639028    0.268885
     22          6           0       -4.203829   -1.817572   -0.436825
     23          6           0       -3.736969   -3.171377    0.098941
     24          1           0       -2.442890   -0.724124    0.155051
     25          1           0       -3.739614   -0.699311    1.346274
     26          1           0       -3.996432   -1.754317   -1.512744
     27          1           0       -5.291745   -1.729557   -0.321462
     28          1           0       -3.958470   -3.259991    1.167438
     29          1           0       -2.655798   -3.284892   -0.030612
     30          1           0       -4.229614   -3.999855   -0.419505
     31          6           0       -3.988730    0.721183   -0.255709
     32          6           0       -3.317169    1.899726    0.450001
     33          6           0       -3.784029    3.253532   -0.085766
     34          1           0       -3.781384    0.781466   -1.333098
     35          1           0       -5.078108    0.806279   -0.141876
     36          1           0       -2.229253    1.811711    0.334638
     37          1           0       -3.524566    1.836471    1.525920
     38          1           0       -4.865200    3.367045    0.043787
     39          1           0       -3.562528    3.342145   -1.154264
     40          1           0       -3.291384    4.082009    0.432680
 ---------------------------------------------------------------------

 SCF Done:  E(RHF) =  -470.732765483     A.U. after   11 cycles
 E2 =    -0.1583246897D+01 EUMP2 =    -0.47231601238021D+03

 The electronic state is 1-A.
 Alpha  occ. eigenvalues --  -11.21661 -11.21624 -11.21570 -11.21526 -11.21442
 Alpha  occ. eigenvalues --  -11.21381 -11.21333 -11.21218 -11.21147 -11.21089
 Alpha  occ. eigenvalues --  -11.21052 -11.21011  -1.08473  -1.08366  -1.03579
 Alpha  occ. eigenvalues --   -1.03478  -0.96044  -0.95917  -0.87063  -0.86939
 Alpha  occ. eigenvalues --   -0.79660  -0.79541  -0.78294  -0.78155  -0.65099
 Alpha  occ. eigenvalues --   -0.65035  -0.60984  -0.60874  -0.59431  -0.59281
 Alpha  occ. eigenvalues --   -0.57653  -0.57525  -0.55315  -0.55222  -0.52825
 Alpha  occ. eigenvalues --   -0.52595  -0.52456  -0.52330  -0.49974  -0.49865
 Alpha  occ. eigenvalues --   -0.47996  -0.47833  -0.46683  -0.46563  -0.45847
 Alpha  occ. eigenvalues --   -0.45747  -0.45711  -0.45651  -0.43756  -0.43655
 Alpha virt. eigenvalues --    0.21301   0.23023   0.23924   0.24412   0.25924
 Alpha virt. eigenvalues --    0.26583   0.27171   0.27304   0.27832   0.29295
 Alpha virt. eigenvalues --    0.30023   0.31339   0.31754   0.31909   0.32199

 Mulliken charges:
               1
     1  C   -0.298794
     2  C   -0.299938
     3  C   -0.481962
     4  H    0.149732
     5  H    0.149763
     6  H    0.151903
     7  H    0.152283
     8  H    0.156740
     9  H    0.154841
    10  H    0.165671
    11  C   -0.298310
    12  C   -0.299647
    13  C   -0.475724
    14  H    0.149544
    15  H    0.149750
    16  H    0.151988
    17  H    0.152017
    18  H    0.155225
    19  H    0.155200
    20  H    0.160349
    21  C   -0.308092
    22  C   -0.298869
    23  C   -0.475711
    24  H    0.161892
    25  H    0.148788
    26  H    0.151322
    27  H    0.151448
    28  H    0.155060
    29  H    0.155296
    30  H    0.159807
    31  C   -0.297815
    32  C   -0.304509
    33  C   -0.475368
    34  H    0.148637
    35  H    0.149512
    36  H    0.155641
    37  H    0.152085
    38  H    0.155248
    39  H    0.154953
    40  H    0.160041
 Sum of Mulliken charges =  -0.00000

 Dipole moment (field-independent basis, Debye):
    X=              0.0526    Y=             -0.0011    Z=              0.0139  Tot=              0.0544
 Quadrupole moment (field-independent basis, Debye-Ang):
   XX=            -85.5297   YY=            -85.7890   ZZ=            -83.7033
   XY=             -0.1566   XZ=             -0.3769   YZ=              0.8887

 Normal termination of Gaussian 16 at Wed May  5 15:20:38 2021.
