 Gaussian 16, Revision A.03,
 Gaussian 16:  EM64L-G16RevA.03 25-Dec-2016

 -------------
 #p 6-31g* mp2
 -------------

 ------------------------------------------------------
 Input file generated by CHIRIPA (05-May-2021 14:55:25)
 ------------------------------------------------------
 Symbolic Z-matrix:
 Charge =  0 Multiplicity = 1

                         Standard orientation:
 ---------------------------------------------------------------------
 Center     Atomic      Atomic             Coordinates (Angstroms)
 Number     Number       Type             X           Y           Z
 ---------------------------------------------------------------------
      1          6           0        1.029503   -0.966266    2.327461
      2          6           0        1.225621    0.380813    2.005844
      3          6           0        1.889489    0.740489    0.829213
      4          6           0        2.346155   -0.277377   -0.006667
      5          6           0        2.166146   -1.628359    0.286135
      6          6           0        1.499563   -1.964792    1.468095
      7          1           0        0.512740   -1.236643    3.243565
      8          1           0        0.861646    1.158410    2.671359
      9          1           0        2.054894    1.775540    0.555846
     10          1           0        2.540344   -2.381082   -0.397094
     11          1           0        1.348679   -3.011770    1.715311
     12          7           0        3.050399    0.091093   -1.255134
     13          8           0        3.443123   -0.824580   -1.974820
     14          8           0        3.196327    1.288596   -1.490357
     15          6           0       -2.885679    1.195340   -0.223943
     16          6           0       -1.565515    1.839462    0.200626
     17          6           0       -1.643715    3.365375    0.257772
     18          1           0       -3.177044    1.586109   -1.208498
     19          1           0       -3.675268    1.496909    0.478196
     20          1           0       -0.778364    1.535654   -0.501308
     21          1           0       -1.277160    1.446969    1.184201
     22          1           0       -2.409034    3.685408    0.972242
     23          1           0       -1.907404    3.774596   -0.722844
     24          1           0       -0.689206    3.805120    0.563379
     25          6           0       -2.823344   -0.329791   -0.285742
     26          6           0       -4.143508   -0.973913   -0.710312
     27          6           0       -4.065307   -2.499826   -0.767457
     28          1           0       -2.033754   -0.631361   -0.987881
     29          1           0       -2.531977   -0.720560    0.698814
     30          1           0       -4.431862   -0.581421   -1.693885
     31          1           0       -4.930657   -0.670106   -0.008377
     32          1           0       -3.801618   -2.909048    0.213158
     33          1           0       -3.299988   -2.819860   -1.481927
     34          1           0       -5.019817   -2.939572   -1.073065
 ---------------------------------------------------------------------

 SCF Done:  E(RHF) =  -669.534159328     A.U. after   15 cycles
 E2 =    -0.2093794834D+01 EUMP2 =    -0.67162795416211D+03

 The electronic state is 1-A.
 Alpha  occ. eigenvalues --  -20.60794 -20.60788 -15.85846 -11.31202 -11.27748
 Alpha  occ. eigenvalues --  -11.27742 -11.27501 -11.26781 -11.26756 -11.21833
 Alpha  occ. eigenvalues --  -11.21831 -11.21647 -11.21588 -11.21414 -11.21336
 Alpha  occ. eigenvalues --   -1.59870  -1.39423  -1.19372  -1.08781  -1.08681
 Alpha  occ. eigenvalues --   -1.04784  -1.03803  -0.96264  -0.95606  -0.87275
 Alpha  occ. eigenvalues --   -0.86179  -0.82447  -0.79881  -0.78516  -0.77473
 Alpha  occ. eigenvalues --   -0.72063  -0.71194  -0.70480  -0.65350  -0.65025
 Alpha  occ. eigenvalues --   -0.64768  -0.62140  -0.61198  -0.59649  -0.57885
 Alpha  occ. eigenvalues --   -0.55546  -0.55275  -0.53231  -0.52909  -0.52872
 Alpha  occ. eigenvalues --   -0.52662  -0.50194  -0.48823  -0.48819  -0.48183
 Alpha  occ. eigenvalues --   -0.46902  -0.46033  -0.45965  -0.44827  -0.44058
 Alpha  occ. eigenvalues --   -0.37330  -0.36241
 Alpha virt. eigenvalues --    0.05035   0.11142   0.16479   0.20530   0.22780
 Alpha virt. eigenvalues --    0.23855   0.26215   0.26411   0.27100   0.28161
 Alpha virt. eigenvalues --    0.28899   0.30069   0.31266   0.31455   0.31913

 Mulliken charges:
               1
     1  C   -0.172122
     2  C   -0.214960
     3  C   -0.167552
     4  C    0.157458
     5  C   -0.171440
     6  C   -0.217538
     7  H    0.225256
     8  H    0.223597
     9  H    0.275738
    10  H    0.275456
    11  H    0.223536
    12  N    0.487961
    13  O   -0.460354
    14  O   -0.460657
    15  C   -0.298582
    16  C   -0.302139
    17  C   -0.475776
    18  H    0.152190
    19  H    0.147865
    20  H    0.156708
    21  H    0.146606
    22  H    0.154233
    23  H    0.160302
    24  H    0.154765
    25  C   -0.297329
    26  C   -0.299910
    27  C   -0.475476
    28  H    0.152365
    29  H    0.145031
    30  H    0.154041
    31  H    0.151151
    32  H    0.151832
    33  H    0.156477
    34  H    0.161268
 Sum of Mulliken charges =  -0.00000

 Dipole moment (field-independent basis, Debye):
    X=             -2.4787    Y=             -1.3104    Z=              4.3304  Tot=              5.1588
 Quadrupole moment (field-independent basis, Debye-Ang):
   XX=           -107.2286   YY=            -90.7227   ZZ=            -94.2416
   XY=             -3.1234   XZ=             10.1927   YZ=             -0.2730

 Normal termination of Gaussian 16 at Thu May  6 11:08:17 2021.
