 Gaussian 16, Revision A.03,
 Gaussian 16:  EM64L-G16RevA.03 25-Dec-2016

 -------------
 #p 6-31g* mp2
 -------------

 ------------------------------------------------------
 Input file generated by CHIRIPA (05-May-2021 14:57:21)
 ------------------------------------------------------
 Symbolic Z-matrix:
 Charge =  0 Multiplicity = 1

                         Standard orientation:
 ---------------------------------------------------------------------
 Center     Atomic      Atomic             Coordinates (Angstroms)
 Number     Number       Type             X           Y           Z
 ---------------------------------------------------------------------
      1          6           0       -5.841858   -1.485013   -0.611516
      2          6           0       -6.120684   -0.240028   -0.038113
      3          6           0       -5.089215    0.664100    0.232390
      4          6           0       -3.784641    0.288873   -0.084754
      5          6           0       -3.474846   -0.944128   -0.656617
      6          6           0       -4.522156   -1.832476   -0.918397
      7          1           0       -6.649280   -2.181232   -0.818261
      8          1           0       -7.144632    0.032503    0.201268
      9          1           0       -5.276844    1.634462    0.675798
     10          1           0       -2.444108   -1.187498   -0.884143
     11          1           0       -4.302656   -2.798662   -1.363762
     12          7           0       -2.684286    1.237680    0.196998
     13          8           0       -1.543411    0.883210   -0.091779
     14          8           0       -2.983539    2.317860    0.701276
     15          6           0        6.086899    0.191789   -1.196407
     16          6           0        5.000887    1.051572   -1.391014
     17          6           0        3.820794    0.881301   -0.660990
     18          6           0        3.760951   -0.163848    0.259537
     19          6           0        4.825835   -1.037028    0.476035
     20          6           0        5.996067   -0.847934   -0.265146
     21          1           0        6.999794    0.331370   -1.767841
     22          1           0        5.068594    1.859890   -2.113568
     23          1           0        2.964919    1.532309   -0.791702
     24          1           0        4.728466   -1.833785    1.203436
     25          1           0        6.837893   -1.517183   -0.111921
     26          7           0        2.516859   -0.354070    1.038287
     27          8           0        2.489360   -1.282457    1.843258
     28          8           0        1.592794    0.428824    0.828954
 ---------------------------------------------------------------------

 SCF Done:  E(RHF) =  -868.335715618     A.U. after   16 cycles
 E2 =    -0.2599996164D+01 EUMP2 =    -0.87093571178171D+03

 The electronic state is 1-A.
 Alpha  occ. eigenvalues --  -20.59897 -20.59813 -20.59767 -20.59705 -15.84875
 Alpha  occ. eigenvalues --  -15.84810 -11.30521 -11.30454 -11.27160 -11.27078
 Alpha  occ. eigenvalues --  -11.27076 -11.27037 -11.26943 -11.26875 -11.26231
 Alpha  occ. eigenvalues --  -11.26186 -11.26156 -11.26135  -1.58919  -1.58834
 Alpha  occ. eigenvalues --   -1.38458  -1.38375  -1.18729  -1.18659  -1.08080
 Alpha  occ. eigenvalues --   -1.08007  -1.04168  -1.04104  -0.94871  -0.94780
 Alpha  occ. eigenvalues --   -0.85554  -0.85490  -0.81712  -0.81584  -0.76695
 Alpha  occ. eigenvalues --   -0.76606  -0.71234  -0.70848  -0.70263  -0.70164
 Alpha  occ. eigenvalues --   -0.69833  -0.69771  -0.64376  -0.64297  -0.64176
 Alpha  occ. eigenvalues --   -0.64116  -0.61504  -0.61448  -0.54674  -0.54611
 Alpha  occ. eigenvalues --   -0.52493  -0.52420  -0.52261  -0.52204  -0.47957
 Alpha  occ. eigenvalues --   -0.47840  -0.47781  -0.47722  -0.43828  -0.43676
 Alpha  occ. eigenvalues --   -0.36738  -0.36662  -0.35787  -0.35720
 Alpha virt. eigenvalues --    0.05825   0.05943   0.11862   0.11930   0.17260
 Alpha virt. eigenvalues --    0.17376   0.21964   0.22017   0.27865   0.27902
 Alpha virt. eigenvalues --    0.28888   0.28957   0.31493   0.31542   0.33184

 Mulliken charges:
               1
     1  C   -0.171756
     2  C   -0.218673
     3  C   -0.171486
     4  C    0.159064
     5  C   -0.170336
     6  C   -0.218668
     7  H    0.222988
     8  H    0.221009
     9  H    0.274377
    10  H    0.277941
    11  H    0.221455
    12  N    0.487827
    13  O   -0.447862
    14  O   -0.465872
    15  C   -0.171838
    16  C   -0.219046
    17  C   -0.171904
    18  C    0.157786
    19  C   -0.172028
    20  C   -0.218866
    21  H    0.223143
    22  H    0.222359
    23  H    0.281809
    24  H    0.273735
    25  H    0.220808
    26  N    0.486362
    27  O   -0.468497
    28  O   -0.443830
 Sum of Mulliken charges =  -0.00000

 Dipole moment (field-independent basis, Debye):
    X=              0.5047    Y=             -2.5380    Z=             -3.7371  Tot=              4.5455
 Quadrupole moment (field-independent basis, Debye-Ang):
   XX=            -43.1841   YY=           -102.7722   ZZ=           -105.9713
   XY=              9.5148   XZ=             -5.6387   YZ=             -0.0326

 Normal termination of Gaussian 16 at Thu May  6 04:52:34 2021.
