 Gaussian 16, Revision A.03,
 Gaussian 16:  EM64L-G16RevA.03 25-Dec-2016

 -------------
 #p 6-31g* mp2
 -------------

 ------------------------------------------------------
 Input file generated by CHIRIPA (05-May-2021 14:57:24)
 ------------------------------------------------------
 Symbolic Z-matrix:
 Charge =  0 Multiplicity = 1

                         Standard orientation:
 ---------------------------------------------------------------------
 Center     Atomic      Atomic             Coordinates (Angstroms)
 Number     Number       Type             X           Y           Z
 ---------------------------------------------------------------------
      1          6           0       -5.438472    0.695431   -0.241527
      2          6           0       -4.707941    1.147257    0.862420
      3          6           0       -3.420954    0.660347    1.109665
      4          6           0       -2.892892   -0.282000    0.228517
      5          6           0       -3.595762   -0.751704   -0.879925
      6          6           0       -4.881034   -0.250939   -1.107649
      7          1           0       -6.437569    1.079056   -0.426011
      8          1           0       -5.138327    1.882170    1.536745
      9          1           0       -2.833362    0.992896    1.956758
     10          1           0       -3.140098   -1.484833   -1.534379
     11          1           0       -5.446064   -0.603641   -1.965779
     12          7           0       -1.531324   -0.804804    0.479931
     13          8           0       -1.088587   -1.634564   -0.311345
     14          8           0       -0.932646   -0.374917    1.463506
     15          6           0        2.853056    2.687570   -0.482647
     16          6           0        2.008068    1.807942   -1.167317
     17          6           0        2.145379    0.425443   -1.011144
     18          6           0        3.142840   -0.045056   -0.158506
     19          6           0        4.000175    0.805823    0.537392
     20          6           0        3.844664    2.184590    0.366025
     21          1           0        2.739320    3.760079   -0.609867
     22          1           0        1.237094    2.195730   -1.827062
     23          1           0        1.504853   -0.278050   -1.529064
     24          1           0        4.759464    0.389404    1.188154
     25          1           0        4.502322    2.865361    0.899019
     26          7           0        3.297840   -1.506670    0.014869
     27          8           0        4.184419   -1.895976    0.771873
     28          8           0        2.529814   -2.235301   -0.609527
 ---------------------------------------------------------------------

 SCF Done:  E(RHF) =  -868.337045638     A.U. after   16 cycles
 E2 =    -0.2600343121D+01 EUMP2 =    -0.87093738875925D+03

 The electronic state is 1-A.
 Alpha  occ. eigenvalues --  -20.60874 -20.60868 -20.59443 -20.59347 -15.85910
 Alpha  occ. eigenvalues --  -15.84455 -11.31360 -11.30005 -11.27938 -11.27926
 Alpha  occ. eigenvalues --  -11.27686 -11.26965 -11.26951 -11.26685 -11.26565
 Alpha  occ. eigenvalues --  -11.26524 -11.25764 -11.25740  -1.59944  -1.58464
 Alpha  occ. eigenvalues --   -1.39492  -1.38009  -1.19540  -1.18230  -1.08918
 Alpha  occ. eigenvalues --   -1.07611  -1.04949  -1.03687  -0.95734  -0.94407
 Alpha  occ. eigenvalues --   -0.86342  -0.85079  -0.82558  -0.81251  -0.77601
 Alpha  occ. eigenvalues --   -0.76235  -0.72100  -0.71294  -0.70687  -0.70637
 Alpha  occ. eigenvalues --   -0.69768  -0.69383  -0.65184  -0.64945  -0.63908
 Alpha  occ. eigenvalues --   -0.63734  -0.62290  -0.61031  -0.55441  -0.54242
 Alpha  occ. eigenvalues --   -0.53284  -0.53035  -0.51983  -0.51810  -0.48889
 Alpha  occ. eigenvalues --   -0.48854  -0.47478  -0.47404  -0.44872  -0.43367
 Alpha  occ. eigenvalues --   -0.37530  -0.36561  -0.36243  -0.35281
 Alpha virt. eigenvalues --    0.04896   0.06332   0.11092   0.12365   0.16375
 Alpha virt. eigenvalues --    0.17742   0.21250   0.22335   0.27160   0.28076
 Alpha virt. eigenvalues --    0.28251   0.29300   0.30812   0.31828   0.32388

 Mulliken charges:
               1
     1  C   -0.171123
     2  C   -0.218765
     3  C   -0.171699
     4  C    0.157215
     5  C   -0.172423
     6  C   -0.218688
     7  H    0.225909
     8  H    0.223473
     9  H    0.275730
    10  H    0.277000
    11  H    0.224131
    12  N    0.485821
    13  O   -0.454936
    14  O   -0.459356
    15  C   -0.171039
    16  C   -0.220576
    17  C   -0.165288
    18  C    0.161718
    19  C   -0.170325
    20  C   -0.219177
    21  H    0.219813
    22  H    0.216693
    23  H    0.283731
    24  H    0.273112
    25  H    0.218795
    26  N    0.488456
    27  O   -0.467743
    28  O   -0.450458
 Sum of Mulliken charges =  -0.00000

 Dipole moment (field-independent basis, Debye):
    X=             -5.5866    Y=              6.6892    Z=             -1.4918  Tot=              8.8420
 Quadrupole moment (field-independent basis, Debye-Ang):
   XX=            -79.5124   YY=           -106.0949   ZZ=           -100.5947
   XY=             12.7041   XZ=              2.7978   YZ=              3.4452

 Normal termination of Gaussian 16 at Wed May  5 16:24:13 2021.
