 Gaussian 16, Revision A.03,
 Gaussian 16:  EM64L-G16RevA.03 25-Dec-2016

 -------------
 #p 6-31g* mp2
 -------------

 ------------------------------------------------------
 Input file generated by CHIRIPA (05-May-2021 14:53:15)
 ------------------------------------------------------
 Symbolic Z-matrix:
 Charge =  0 Multiplicity = 1

                         Standard orientation:
 ---------------------------------------------------------------------
 Center     Atomic      Atomic             Coordinates (Angstroms)
 Number     Number       Type             X           Y           Z
 ---------------------------------------------------------------------
      1          6           0       -3.139957    0.570681   -0.121390
      2          6           0       -2.775393    1.953192   -0.663370
      3          6           0       -1.304046    2.305575   -0.442562
      4          1           0       -2.909314    0.532155    0.952046
      5          1           0       -2.504600   -0.184259   -0.604900
      6          1           0       -3.412199    2.705152   -0.179996
      7          1           0       -3.007109    1.988495   -1.735600
      8          1           0       -0.654768    1.577351   -0.939280
      9          1           0       -1.062159    2.298080    0.625163
     10          1           0       -1.065247    3.297952   -0.837559
     11          6           0       -4.607549    0.204050   -0.334656
     12          6           0       -4.972112   -1.178461    0.207324
     13          6           0       -6.443460   -1.530844   -0.013484
     14          1           0       -5.242906    0.958990    0.148854
     15          1           0       -4.838192    0.242577   -1.408092
     16          1           0       -4.740396   -1.213763    1.279554
     17          1           0       -4.335306   -1.930421   -0.276051
     18          1           0       -6.685346   -1.523349   -1.081209
     19          1           0       -7.092737   -0.802620    0.483234
     20          1           0       -6.682258   -2.523221    0.381513
     21          6           0        0.654626   -0.369051    1.036248
     22          6           0        1.151011   -1.427384    0.268097
     23          6           0        2.463557   -1.401251   -0.212618
     24          6           0        3.255661   -0.296208    0.095185
     25          6           0        2.790018    0.773610    0.858045
     26          6           0        1.474268    0.726138    1.328255
     27          1           0       -0.366236   -0.397641    1.405599
     28          1           0        0.516733   -2.279206    0.039760
     29          1           0        2.873357   -2.207009   -0.809472
     30          1           0        3.446200    1.609223    1.069223
     31          1           0        1.091444    1.549474    1.924583
     32          7           0        4.646890   -0.257246   -0.408166
     33          8           0        5.324554    0.727717   -0.123112
     34          8           0        5.033328   -1.212408   -1.078217
 ---------------------------------------------------------------------

 SCF Done:  E(RHF) =  -669.534215336     A.U. after   15 cycles
 E2 =    -0.2093215466D+01 EUMP2 =    -0.67162743080225D+03

 The electronic state is 1-A.
 Alpha  occ. eigenvalues --  -20.60707 -20.60700 -15.85761 -11.31104 -11.27695
 Alpha  occ. eigenvalues --  -11.27670 -11.27366 -11.26690 -11.26650 -11.22454
 Alpha  occ. eigenvalues --  -11.22393 -11.22382 -11.22185 -11.21816 -11.21700
 Alpha  occ. eigenvalues --   -1.59783  -1.39337  -1.19287  -1.09303  -1.08678
 Alpha  occ. eigenvalues --   -1.04694  -1.04313  -0.96774  -0.95514  -0.87794
 Alpha  occ. eigenvalues --   -0.86082  -0.82353  -0.80393  -0.79156  -0.77401
 Alpha  occ. eigenvalues --   -0.71979  -0.71107  -0.70378  -0.65926  -0.64936
 Alpha  occ. eigenvalues --   -0.64709  -0.62068  -0.61682  -0.60143  -0.58408
 Alpha  occ. eigenvalues --   -0.56063  -0.55183  -0.53494  -0.53413  -0.52824
 Alpha  occ. eigenvalues --   -0.52718  -0.50701  -0.48742  -0.48735  -0.48667
 Alpha  occ. eigenvalues --   -0.47420  -0.46659  -0.46594  -0.44748  -0.44595
 Alpha  occ. eigenvalues --   -0.37169  -0.36282
 Alpha virt. eigenvalues --    0.05119   0.11285   0.16538   0.19853   0.22448
 Alpha virt. eigenvalues --    0.23930   0.24928   0.25497   0.26577   0.28176
 Alpha virt. eigenvalues --    0.29161   0.29758   0.30880   0.31343   0.31542

 Mulliken charges:
               1
     1  C   -0.301442
     2  C   -0.299994
     3  C   -0.477266
     4  H    0.142177
     5  H    0.147606
     6  H    0.153724
     7  H    0.156007
     8  H    0.164057
     9  H    0.143134
    10  H    0.164034
    11  C   -0.298083
    12  C   -0.300169
    13  C   -0.476098
    14  H    0.152081
    15  H    0.153060
    16  H    0.150202
    17  H    0.150119
    18  H    0.157031
    19  H    0.156763
    20  H    0.161754
    21  C   -0.170103
    22  C   -0.222440
    23  C   -0.170874
    24  C    0.157847
    25  C   -0.172119
    26  C   -0.215879
    27  H    0.231496
    28  H    0.223135
    29  H    0.275193
    30  H    0.275319
    31  H    0.223127
    32  N    0.488128
    33  O   -0.460646
    34  O   -0.460880
 Sum of Mulliken charges =  -0.00000

 Dipole moment (field-independent basis, Debye):
    X=             -5.0787    Y=             -0.0833    Z=              1.6742  Tot=              5.3482
 Quadrupole moment (field-independent basis, Debye-Ang):
   XX=           -127.7551   YY=            -90.8130   ZZ=            -93.2832
   XY=              1.2167   XZ=              5.6527   YZ=              1.9221

 Normal termination of Gaussian 16 at Thu May  6 01:07:52 2021.
