 Gaussian 16, Revision A.03,
 Gaussian 16:  EM64L-G16RevA.03 25-Dec-2016

 -------------
 #p 6-31g* mp2
 -------------

 ------------------------------------------------------
 Input file generated by CHIRIPA (05-May-2021 14:51:11)
 ------------------------------------------------------
 Symbolic Z-matrix:
 Charge =  0 Multiplicity = 1

                         Standard orientation:
 ---------------------------------------------------------------------
 Center     Atomic      Atomic             Coordinates (Angstroms)
 Number     Number       Type             X           Y           Z
 ---------------------------------------------------------------------
      1          6           0       -4.383233    0.083524   -0.082788
      2          6           0       -5.789636   -0.261251    0.408279
      3          6           0       -6.770730    0.901459    0.255465
      4          1           0       -4.010920    0.954806    0.473264
      5          1           0       -4.434543    0.384903   -1.138219
      6          1           0       -5.735497   -0.563220    1.462081
      7          1           0       -6.158568   -1.131933   -0.148874
      8          1           0       -6.854332    1.199490   -0.794672
      9          1           0       -6.428856    1.771434    0.825436
     10          1           0       -7.769919    0.633212    0.612573
     11          6           0       -3.391037   -1.068818    0.063449
     12          6           0       -1.984635   -0.724043   -0.427618
     13          6           0       -1.003540   -1.886753   -0.274805
     14          1           0       -3.339728   -1.370197    1.118879
     15          1           0       -3.763351   -1.940101   -0.492603
     16          1           0       -1.615702    0.146639    0.129534
     17          1           0       -2.038773   -0.422074   -1.481421
     18          1           0       -1.345414   -2.756729   -0.844775
     19          1           0       -0.919938   -2.184784    0.775333
     20          1           0       -0.004351   -1.618506   -0.631912
     21          6           0        4.333153   -0.105060   -0.155395
     22          6           0        5.702214   -0.045666    0.522934
     23          6           0        6.583040   -1.248329    0.183019
     24          1           0        3.822959   -1.031074    0.143173
     25          1           0        4.473126   -0.162264   -1.243756
     26          1           0        5.559676    0.012805    1.609617
     27          1           0        6.209130    0.880408    0.222867
     28          1           0        6.754690   -1.307226   -0.896643
     29          1           0        6.101545   -2.179757    0.497987
     30          1           0        7.556931   -1.185475    0.678443
     31          6           0        3.441117    1.090354    0.174735
     32          6           0        2.072056    1.030960   -0.503594
     33          6           0        1.191230    2.233623   -0.163680
     34          1           0        3.301144    1.147558    1.263096
     35          1           0        3.951311    2.016368   -0.123834
     36          1           0        1.565140    0.104887   -0.203528
     37          1           0        2.214594    0.972490   -1.590277
     38          1           0        1.672725    3.165052   -0.478648
     39          1           0        1.019580    2.292520    0.915982
     40          1           0        0.217339    2.170769   -0.659104
 ---------------------------------------------------------------------

 SCF Done:  E(RHF) =  -470.733164565     A.U. after   11 cycles
 E2 =    -0.1582972548D+01 EUMP2 =    -0.47231613711273D+03

 The electronic state is 1-A.
 Alpha  occ. eigenvalues --  -11.21601 -11.21596 -11.21595 -11.21573 -11.21405
 Alpha  occ. eigenvalues --  -11.21397 -11.21346 -11.21338 -11.21069 -11.21063
 Alpha  occ. eigenvalues --  -11.21059 -11.21055  -1.08442  -1.08411  -1.03566
 Alpha  occ. eigenvalues --   -1.03486  -0.96006  -0.95946  -0.87027  -0.86960
 Alpha  occ. eigenvalues --   -0.79639  -0.79544  -0.78251  -0.78232  -0.65101
 Alpha  occ. eigenvalues --   -0.65023  -0.61035  -0.60855  -0.59537  -0.59170
 Alpha  occ. eigenvalues --   -0.57732  -0.57412  -0.55300  -0.55217  -0.52735
 Alpha  occ. eigenvalues --   -0.52629  -0.52452  -0.52358  -0.49954  -0.49879
 Alpha  occ. eigenvalues --   -0.48072  -0.47752  -0.46633  -0.46584  -0.45797
 Alpha  occ. eigenvalues --   -0.45753  -0.45709  -0.45689  -0.43809  -0.43712
 Alpha virt. eigenvalues --    0.21117   0.23122   0.23466   0.24884   0.26247
 Alpha virt. eigenvalues --    0.26534   0.26902   0.27024   0.28338   0.28959
 Alpha virt. eigenvalues --    0.30751   0.31122   0.31455   0.31642   0.32574

 Mulliken charges:
               1
     1  C   -0.298379
     2  C   -0.299640
     3  C   -0.475723
     4  H    0.149774
     5  H    0.149463
     6  H    0.151908
     7  H    0.151940
     8  H    0.155182
     9  H    0.155246
    10  H    0.160243
    11  C   -0.298156
    12  C   -0.302823
    13  C   -0.480963
    14  H    0.149421
    15  H    0.149714
    16  H    0.155778
    17  H    0.151744
    18  H    0.155372
    19  H    0.154427
    20  H    0.165380
    21  C   -0.298481
    22  C   -0.299614
    23  C   -0.475735
    24  H    0.149595
    25  H    0.149460
    26  H    0.151919
    27  H    0.151945
    28  H    0.155164
    29  H    0.155288
    30  H    0.160220
    31  C   -0.297537
    32  C   -0.307491
    33  C   -0.477327
    34  H    0.149353
    35  H    0.149616
    36  H    0.159816
    37  H    0.151531
    38  H    0.154999
    39  H    0.154340
    40  H    0.163027
 Sum of Mulliken charges =  -0.00000

 Dipole moment (field-independent basis, Debye):
    X=             -0.0049    Y=              0.0003    Z=             -0.0030  Tot=              0.0058
 Quadrupole moment (field-independent basis, Debye-Ang):
   XX=            -85.9027   YY=            -85.6693   ZZ=            -83.2638
   XY=              1.4578   XZ=              0.0016   YZ=             -0.1852

 Normal termination of Gaussian 16 at Wed May  5 18:15:21 2021.
