 Gaussian 16, Revision A.03,
 Gaussian 16:  EM64L-G16RevA.03 25-Dec-2016

 -------------
 #p 6-31g* mp2
 -------------

 ------------------------------------------------------
 Input file generated by CHIRIPA (05-May-2021 14:51:09)
 ------------------------------------------------------
 Symbolic Z-matrix:
 Charge =  0 Multiplicity = 1

                         Standard orientation:
 ---------------------------------------------------------------------
 Center     Atomic      Atomic             Coordinates (Angstroms)
 Number     Number       Type             X           Y           Z
 ---------------------------------------------------------------------
      1          6           0       -3.232821   -0.185160    0.320108
      2          6           0       -2.653720   -1.530286   -0.119510
      3          6           0       -1.237911   -1.765099    0.407880
      4          1           0       -2.572549    0.621809   -0.025992
      5          1           0       -3.236718   -0.136696    1.417847
      6          1           0       -2.652199   -1.576756   -1.216075
      7          1           0       -3.315549   -2.334137    0.227512
      8          1           0       -1.226359   -1.745501    1.502450
      9          1           0       -0.559240   -0.983817    0.050662
     10          1           0       -0.843286   -2.732435    0.081702
     11          6           0       -4.647687    0.064105   -0.199267
     12          6           0       -5.226788    1.409230    0.240351
     13          6           0       -6.642597    1.644043   -0.287039
     14          1           0       -4.643790    0.015640   -1.297006
     15          1           0       -5.307959   -0.742865    0.146833
     16          1           0       -4.564960    2.213081   -0.106671
     17          1           0       -5.228309    1.455700    1.336916
     18          1           0       -7.321268    0.862761    0.070180
     19          1           0       -6.654150    1.624445   -1.381609
     20          1           0       -7.037222    2.611379    0.039139
     21          6           0        4.534147    0.516420    0.090858
     22          6           0        4.249448    1.993755   -0.181932
     23          6           0        5.447091    2.893164    0.125493
     24          1           0        4.825976    0.393976    1.142898
     25          1           0        5.396463    0.199023   -0.511689
     26          1           0        3.387063    2.307911    0.419911
     27          1           0        3.958077    2.112669   -1.233396
     28          1           0        6.309960    2.607708   -0.484894
     29          1           0        5.735703    2.804061    1.177807
     30          1           0        5.221641    3.944925   -0.076577
     31          6           0        3.346361   -0.395365   -0.211700
     32          6           0        3.631060   -1.872699    0.061090
     33          6           0        2.433417   -2.772108   -0.246334
     34          1           0        2.484044   -0.077968    0.390848
     35          1           0        3.054532   -0.272921   -1.263740
     36          1           0        3.922431   -1.991613    1.112555
     37          1           0        4.493444   -2.186856   -0.540752
     38          1           0        2.144806   -2.683005   -1.298648
     39          1           0        1.570548   -2.486653    0.364053
     40          1           0        2.658867   -3.823869   -0.044264
 ---------------------------------------------------------------------

 SCF Done:  E(RHF) =  -470.732765382     A.U. after   11 cycles
 E2 =    -0.1582720267D+01 EUMP2 =    -0.47231548564814D+03

 The electronic state is 1-A.
 Alpha  occ. eigenvalues --  -11.21599 -11.21587 -11.21584 -11.21524 -11.21399
 Alpha  occ. eigenvalues --  -11.21374 -11.21340 -11.21314 -11.21069 -11.21060
 Alpha  occ. eigenvalues --  -11.21040 -11.20888  -1.08426  -1.08387  -1.03542
 Alpha  occ. eigenvalues --   -1.03459  -0.96027  -0.95880  -0.87089  -0.86861
 Alpha  occ. eigenvalues --   -0.79687  -0.79457  -0.78255  -0.78184  -0.65061
 Alpha  occ. eigenvalues --   -0.65014  -0.60951  -0.60858  -0.59380  -0.59284
 Alpha  occ. eigenvalues --   -0.57612  -0.57511  -0.55297  -0.55196  -0.52881
 Alpha  occ. eigenvalues --   -0.52614  -0.52398  -0.52161  -0.49950  -0.49816
 Alpha  occ. eigenvalues --   -0.47927  -0.47828  -0.46661  -0.46537  -0.45836
 Alpha  occ. eigenvalues --   -0.45730  -0.45698  -0.45600  -0.43743  -0.43714
 Alpha virt. eigenvalues --    0.22299   0.22966   0.23656   0.24669   0.26072
 Alpha virt. eigenvalues --    0.26665   0.27022   0.27362   0.27814   0.29139
 Alpha virt. eigenvalues --    0.30340   0.30847   0.31363   0.31868   0.32086

 Mulliken charges:
               1
     1  C   -0.298583
     2  C   -0.300255
     3  C   -0.479794
     4  H    0.149691
     5  H    0.149286
     6  H    0.152151
     7  H    0.151847
     8  H    0.154192
     9  H    0.157152
    10  H    0.163936
    11  C   -0.298292
    12  C   -0.299613
    13  C   -0.475696
    14  H    0.149554
    15  H    0.149645
    16  H    0.151939
    17  H    0.151855
    18  H    0.155173
    19  H    0.155194
    20  H    0.160231
    21  C   -0.298185
    22  C   -0.299644
    23  C   -0.475671
    24  H    0.149668
    25  H    0.149563
    26  H    0.151823
    27  H    0.151727
    28  H    0.155174
    29  H    0.155204
    30  H    0.160137
    31  C   -0.299357
    32  C   -0.299376
    33  C   -0.483435
    34  H    0.150278
    35  H    0.149177
    36  H    0.151515
    37  H    0.151259
    38  H    0.153812
    39  H    0.167932
    40  H    0.158785
 Sum of Mulliken charges =  -0.00000

 Dipole moment (field-independent basis, Debye):
    X=             -0.0295    Y=             -0.0099    Z=              0.0092  Tot=              0.0325
 Quadrupole moment (field-independent basis, Debye-Ang):
   XX=            -86.4003   YY=            -85.3338   ZZ=            -83.2728
   XY=             -0.0603   XZ=             -1.0469   YZ=             -0.3397

 Normal termination of Gaussian 16 at Thu May  6 03:43:11 2021.
