 Gaussian 16, Revision A.03,
 Gaussian 16:  EM64L-G16RevA.03 25-Dec-2016

 -------------
 #p 6-31g* mp2
 -------------

 ------------------------------------------------------
 Input file generated by CHIRIPA (05-May-2021 14:55:20)
 ------------------------------------------------------
 Symbolic Z-matrix:
 Charge =  0 Multiplicity = 1

                         Standard orientation:
 ---------------------------------------------------------------------
 Center     Atomic      Atomic             Coordinates (Angstroms)
 Number     Number       Type             X           Y           Z
 ---------------------------------------------------------------------
      1          6           0        5.002331    0.337141   -1.535918
      2          6           0        4.794972   -1.005122   -1.201473
      3          6           0        3.808788   -1.362357   -0.277151
      4          6           0        3.044774   -0.346988    0.296084
      5          6           0        3.227349    0.999197   -0.016557
      6          6           0        4.219238    1.333260   -0.943437
      7          1           0        5.770638    0.605650   -2.254947
      8          1           0        5.401634   -1.780840   -1.660023
      9          1           0        3.627062   -2.393680   -0.000081
     10          1           0        2.606809    1.750142    0.457182
     11          1           0        4.378054    2.376498   -1.201268
     12          7           0        1.997725   -0.712911    1.275976
     13          8           0        1.337958    0.200482    1.766952
     14          8           0        1.856642   -1.906186    1.534485
     15          6           0       -3.370043    0.505053   -0.104249
     16          6           0       -3.053324    1.947106    0.293439
     17          6           0       -1.552543    2.207869    0.425548
     18          1           0       -2.942309   -0.177086    0.643196
     19          1           0       -2.872060    0.276954   -1.056814
     20          1           0       -3.552887    2.172856    1.244275
     21          1           0       -3.482026    2.625900   -0.454939
     22          1           0       -1.042212    2.009939   -0.522601
     23          1           0       -1.113476    1.554319    1.186269
     24          1           0       -1.348778    3.244760    0.710502
     25          6           0       -4.866349    0.228846   -0.240290
     26          6           0       -5.183067   -1.213208   -0.637978
     27          6           0       -6.683849   -1.473971   -0.770089
     28          1           0       -5.364331    0.456944    0.712275
     29          1           0       -5.294082    0.910985   -0.987735
     30          1           0       -4.754365   -1.892002    0.110399
     31          1           0       -4.683504   -1.438957   -1.588815
     32          1           0       -7.122915   -0.820421   -1.530808
     33          1           0       -7.194178   -1.276040    0.178061
     34          1           0       -6.887613   -2.510861   -1.055041
 ---------------------------------------------------------------------

 SCF Done:  E(RHF) =  -669.536153647     A.U. after   15 cycles
 E2 =    -0.2090842302D+01 EUMP2 =    -0.67162699594913D+03

 The electronic state is 1-A.
 Alpha  occ. eigenvalues --  -20.60880 -20.60874 -15.85914 -11.31233 -11.27802
 Alpha  occ. eigenvalues --  -11.27787 -11.27543 -11.26810 -11.26798 -11.21073
 Alpha  occ. eigenvalues --  -11.20856 -11.20796 -11.20639 -11.20630 -11.20087
 Alpha  occ. eigenvalues --   -1.59941  -1.39497  -1.19404  -1.08810  -1.07775
 Alpha  occ. eigenvalues --   -1.04800  -1.02866  -0.95655  -0.95304  -0.86324
 Alpha  occ. eigenvalues --   -0.86200  -0.82487  -0.78941  -0.77597  -0.77513
 Alpha  occ. eigenvalues --   -0.72144  -0.71254  -0.70514  -0.65061  -0.64805
 Alpha  occ. eigenvalues --   -0.64404  -0.62146  -0.60258  -0.58701  -0.56919
 Alpha  occ. eigenvalues --   -0.55308  -0.54579  -0.53133  -0.52892  -0.52024
 Alpha  occ. eigenvalues --   -0.51721  -0.49248  -0.48899  -0.48875  -0.47255
 Alpha  occ. eigenvalues --   -0.45979  -0.45174  -0.45064  -0.44766  -0.43134
 Alpha  occ. eigenvalues --   -0.37385  -0.36402
 Alpha virt. eigenvalues --    0.04969   0.11247   0.16442   0.21335   0.23516
 Alpha virt. eigenvalues --    0.24976   0.27111   0.27338   0.27807   0.28224
 Alpha virt. eigenvalues --    0.28973   0.30887   0.32000   0.32122   0.32636

 Mulliken charges:
               1
     1  C   -0.170638
     2  C   -0.218662
     3  C   -0.170822
     4  C    0.158048
     5  C   -0.170942
     6  C   -0.218729
     7  H    0.225755
     8  H    0.223559
     9  H    0.275636
    10  H    0.277248
    11  H    0.223786
    12  N    0.490426
    13  O   -0.461887
    14  O   -0.459705
    15  C   -0.299082
    16  C   -0.298723
    17  C   -0.484771
    18  H    0.157519
    19  H    0.146283
    20  H    0.151360
    21  H    0.146736
    22  H    0.146086
    23  H    0.182748
    24  H    0.152892
    25  C   -0.297864
    26  C   -0.299503
    27  C   -0.475367
    28  H    0.149266
    29  H    0.146996
    30  H    0.154346
    31  H    0.150367
    32  H    0.153596
    33  H    0.154996
    34  H    0.159047
 Sum of Mulliken charges =  -0.00000

 Dipole moment (field-independent basis, Debye):
    X=              3.8828    Y=              1.1879    Z=             -3.3231  Tot=              5.2470
 Quadrupole moment (field-independent basis, Debye-Ang):
   XX=            -74.4371   YY=            -91.4987   ZZ=            -96.5383
   XY=              1.2822   XZ=            -10.3891   YZ=              1.9348

 Normal termination of Gaussian 16 at Thu May  6 15:45:21 2021.
