 Gaussian 16, Revision A.03,
 Gaussian 16:  EM64L-G16RevA.03 25-Dec-2016

 -------------
 #p 6-31g* mp2
 -------------

 ------------------------------------------------------
 Input file generated by CHIRIPA (05-May-2021 14:51:11)
 ------------------------------------------------------
 Symbolic Z-matrix:
 Charge =  0 Multiplicity = 1

                         Standard orientation:
 ---------------------------------------------------------------------
 Center     Atomic      Atomic             Coordinates (Angstroms)
 Number     Number       Type             X           Y           Z
 ---------------------------------------------------------------------
      1          6           0        3.148731   -0.174660    0.144669
      2          6           0        2.711803   -1.603060   -0.182062
      3          6           0        1.233210   -1.852039    0.117211
      4          1           0        2.948363    0.029732    1.205339
      5          1           0        2.533337    0.530372   -0.431192
      6          1           0        3.328767   -2.305231    0.393200
      7          1           0        2.913411   -1.804139   -1.242032
      8          1           0        0.602433   -1.174693   -0.467531
      9          1           0        1.020149   -1.678633    1.176992
     10          1           0        0.942282   -2.879267   -0.123671
     11          6           0        4.624376    0.089669   -0.149152
     12          6           0        5.061303    1.518069    0.177579
     13          6           0        6.539897    1.767048   -0.121694
     14          1           0        5.239770   -0.615363    0.426709
     15          1           0        4.824744   -0.114723   -1.209822
     16          1           0        4.859695    1.719147    1.237549
     17          1           0        4.444339    2.220240   -0.397683
     18          1           0        6.752958    1.593642   -1.181475
     19          1           0        7.170674    1.089702    0.463048
     20          1           0        6.830825    2.794276    0.119188
     21          6           0       -3.848204   -0.694068   -0.196342
     22          6           0       -2.599620   -1.400520    0.332760
     23          6           0       -2.537184   -2.873412   -0.072804
     24          1           0       -4.741440   -1.215879    0.173507
     25          1           0       -3.870189   -0.774909   -1.291959
     26          1           0       -2.579278   -1.317176    1.426953
     27          1           0       -1.709253   -0.876852   -0.038234
     28          1           0       -2.532617   -2.972918   -1.163069
     29          1           0       -3.407586   -3.415743    0.310442
     30          1           0       -1.636692   -3.359042    0.315963
     31          6           0       -3.924903    0.779059    0.200825
     32          6           0       -5.173487    1.485510   -0.328277
     33          6           0       -5.235923    2.958404    0.077287
     34          1           0       -3.902917    0.859900    1.296442
     35          1           0       -3.031666    1.300870   -0.169024
     36          1           0       -6.063853    0.961844    0.042717
     37          1           0       -5.193828    1.402167   -1.422470
     38          1           0       -4.365521    3.500734   -0.305959
     39          1           0       -5.240490    3.057910    1.167552
     40          1           0       -6.136414    3.444033   -0.311480
 ---------------------------------------------------------------------

 SCF Done:  E(RHF) =  -470.732648297     A.U. after   11 cycles
 E2 =    -0.1583060503D+01 EUMP2 =    -0.47231570880089D+03

 The electronic state is 1-A.
 Alpha  occ. eigenvalues --  -11.21610 -11.21602 -11.21568 -11.21452 -11.21417
 Alpha  occ. eigenvalues --  -11.21357 -11.21346 -11.21276 -11.21078 -11.21065
 Alpha  occ. eigenvalues --  -11.21047 -11.20942  -1.08444  -1.08359  -1.03563
 Alpha  occ. eigenvalues --   -1.03434  -0.96036  -0.95868  -0.87029  -0.86913
 Alpha  occ. eigenvalues --   -0.79655  -0.79484  -0.78274  -0.78150  -0.65092
 Alpha  occ. eigenvalues --   -0.64983  -0.61024  -0.60788  -0.59489  -0.59175
 Alpha  occ. eigenvalues --   -0.57622  -0.57510  -0.55342  -0.55145  -0.52865
 Alpha  occ. eigenvalues --   -0.52484  -0.52431  -0.52239  -0.49977  -0.49828
 Alpha  occ. eigenvalues --   -0.48087  -0.47708  -0.46732  -0.46447  -0.45867
 Alpha  occ. eigenvalues --   -0.45735  -0.45681  -0.45490  -0.43854  -0.43634
 Alpha virt. eigenvalues --    0.21960   0.23011   0.23504   0.24883   0.25981
 Alpha virt. eigenvalues --    0.26681   0.27011   0.27200   0.27814   0.29168
 Alpha virt. eigenvalues --    0.29807   0.30790   0.31452   0.31764   0.32460

 Mulliken charges:
               1
     1  C   -0.298365
     2  C   -0.300682
     3  C   -0.477459
     4  H    0.149788
     5  H    0.149105
     6  H    0.151811
     7  H    0.151824
     8  H    0.157377
     9  H    0.155807
    10  H    0.161547
    11  C   -0.298242
    12  C   -0.299623
    13  C   -0.475708
    14  H    0.149595
    15  H    0.149622
    16  H    0.151996
    17  H    0.151858
    18  H    0.155168
    19  H    0.155212
    20  H    0.160284
    21  C   -0.297992
    22  C   -0.303290
    23  C   -0.477772
    24  H    0.149216
    25  H    0.148885
    26  H    0.150981
    27  H    0.157647
    28  H    0.154042
    29  H    0.154134
    30  H    0.163988
    31  C   -0.298064
    32  C   -0.299548
    33  C   -0.475650
    34  H    0.149453
    35  H    0.149098
    36  H    0.151927
    37  H    0.151749
    38  H    0.155020
    39  H    0.155142
    40  H    0.160118
 Sum of Mulliken charges =  -0.00000

 Dipole moment (field-independent basis, Debye):
    X=              0.0413    Y=             -0.0104    Z=              0.0081  Tot=              0.0434
 Quadrupole moment (field-independent basis, Debye-Ang):
   XX=            -85.8708   YY=            -85.9519   ZZ=            -83.2085
   XY=             -0.1207   XZ=             -0.0028   YZ=             -0.6963

 Normal termination of Gaussian 16 at Wed May  5 16:45:03 2021.
