 Gaussian 16, Revision A.03,
 Gaussian 16:  EM64L-G16RevA.03 25-Dec-2016

 -------------
 #p 6-31g* mp2
 -------------

 ------------------------------------------------------
 Input file generated by CHIRIPA (05-May-2021 14:57:23)
 ------------------------------------------------------
 Symbolic Z-matrix:
 Charge =  0 Multiplicity = 1

                         Standard orientation:
 ---------------------------------------------------------------------
 Center     Atomic      Atomic             Coordinates (Angstroms)
 Number     Number       Type             X           Y           Z
 ---------------------------------------------------------------------
      1          6           0       -1.501234    1.174997    1.361625
      2          6           0       -2.017202   -0.032852    1.842664
      3          6           0       -3.113546   -0.635333    1.218488
      4          6           0       -3.671828    0.000395    0.110579
      5          6           0       -3.180507    1.204108   -0.392378
      6          6           0       -2.083506    1.788541    0.247603
      7          1           0       -0.649313    1.636009    1.852639
      8          1           0       -1.567023   -0.511598    2.707641
      9          1           0       -3.533066   -1.570141    1.569991
     10          1           0       -3.650562    1.657529   -1.256598
     11          1           0       -1.684902    2.726600   -0.128168
     12          7           0       -4.832826   -0.627871   -0.558575
     13          8           0       -5.306696   -0.047687   -1.532982
     14          8           0       -5.246962   -1.688594   -0.095979
     15          6           0        5.951241   -0.527429    0.065367
     16          6           0        5.055708   -1.601526    0.036107
     17          6           0        3.684616   -1.378686   -0.121992
     18          6           0        3.241618   -0.062999   -0.248536
     19          6           0        4.108876    1.028109   -0.223288
     20          6           0        5.475806    0.781652   -0.064195
     21          1           0        7.014722   -0.709710    0.188569
     22          1           0        5.422099   -2.619232    0.136492
     23          1           0        2.969278   -2.191723   -0.148091
     24          1           0        3.713728    2.031484   -0.325837
     25          1           0        6.168977    1.617749   -0.041833
     26          7           0        1.792308    0.185413   -0.416434
     27          8           0        1.427279    1.353927   -0.525826
     28          8           0        1.048809   -0.793098   -0.435462
 ---------------------------------------------------------------------

 SCF Done:  E(RHF) =  -868.338803352     A.U. after   16 cycles
 E2 =    -0.2600191754D+01 EUMP2 =    -0.87093899510553D+03

 The electronic state is 1-A.
 Alpha  occ. eigenvalues --  -20.61652 -20.61586 -20.59599 -20.59590 -15.86642
 Alpha  occ. eigenvalues --  -15.84641 -11.31852 -11.29685 -11.28412 -11.28378
 Alpha  occ. eigenvalues --  -11.28091 -11.27371 -11.27348 -11.26277 -11.26198
 Alpha  occ. eigenvalues --  -11.25878 -11.25237 -11.25089  -1.60681  -1.58679
 Alpha  occ. eigenvalues --   -1.40241  -1.38243  -1.20005  -1.17814  -1.09427
 Alpha  occ. eigenvalues --   -1.07259  -1.05379  -1.03197  -0.96290  -0.94163
 Alpha  occ. eigenvalues --   -0.86784  -0.84614  -0.83126  -0.81032  -0.78197
 Alpha  occ. eigenvalues --   -0.76124  -0.72871  -0.72020  -0.71101  -0.70876
 Alpha  occ. eigenvalues --   -0.69993  -0.68949  -0.65656  -0.65372  -0.63491
 Alpha  occ. eigenvalues --   -0.63230  -0.62726  -0.60593  -0.55878  -0.53766
 Alpha  occ. eigenvalues --   -0.53672  -0.53463  -0.51581  -0.51326  -0.49625
 Alpha  occ. eigenvalues --   -0.49506  -0.47642  -0.47600  -0.45680  -0.43723
 Alpha  occ. eigenvalues --   -0.37978  -0.36977  -0.35649  -0.34751
 Alpha virt. eigenvalues --    0.04291   0.06437   0.10680   0.12912   0.15834
 Alpha virt. eigenvalues --    0.18027   0.20863   0.22845   0.26783   0.27736
 Alpha virt. eigenvalues --    0.28701   0.29650   0.30477   0.31934   0.32355

 Mulliken charges:
               1
     1  C   -0.155923
     2  C   -0.214117
     3  C   -0.170965
     4  C    0.158340
     5  C   -0.173210
     6  C   -0.205318
     7  H    0.221063
     8  H    0.215199
     9  H    0.269533
    10  H    0.270525
    11  H    0.223276
    12  N    0.488314
    13  O   -0.464284
    14  O   -0.465278
    15  C   -0.170132
    16  C   -0.218464
    17  C   -0.171099
    18  C    0.157623
    19  C   -0.171588
    20  C   -0.218389
    21  H    0.227819
    22  H    0.225778
    23  H    0.277009
    24  H    0.274029
    25  H    0.224943
    26  N    0.487207
    27  O   -0.468504
    28  O   -0.453385
 Sum of Mulliken charges =  -0.00000

 Dipole moment (field-independent basis, Debye):
    X=              9.7373    Y=              1.3486    Z=              2.8805  Tot=             10.2436
 Quadrupole moment (field-independent basis, Debye-Ang):
   XX=           -103.7952   YY=            -97.3186   ZZ=           -104.0811
   XY=            -11.0178   XZ=             -7.3883   YZ=             -2.5995

 Normal termination of Gaussian 16 at Fri May  7 11:01:21 2021.
