 Gaussian 16, Revision A.03,
 Gaussian 16:  EM64L-G16RevA.03 25-Dec-2016

 -------------
 #p 6-31g* mp2
 -------------

 ------------------------------------------------------
 Input file generated by CHIRIPA (05-May-2021 14:51:09)
 ------------------------------------------------------
 Symbolic Z-matrix:
 Charge =  0 Multiplicity = 1

                         Standard orientation:
 ---------------------------------------------------------------------
 Center     Atomic      Atomic             Coordinates (Angstroms)
 Number     Number       Type             X           Y           Z
 ---------------------------------------------------------------------
      1          6           0        2.536956    0.755597   -0.240538
      2          6           0        3.150832    1.462201    0.968534
      3          6           0        3.173866    2.983329    0.815462
      4          1           0        3.103469    1.026289   -1.142055
      5          1           0        1.513347    1.125360   -0.391844
      6          1           0        4.172492    1.090206    1.118350
      7          1           0        2.582909    1.189645    1.867307
      8          1           0        2.158694    3.373181    0.688797
      9          1           0        3.757310    3.273177   -0.064415
     10          1           0        3.616726    3.468268    1.691001
     11          6           0        2.506869   -0.765505   -0.102440
     12          6           0        1.892993   -1.472108   -1.311511
     13          6           0        1.869959   -2.993237   -1.158439
     14          1           0        3.530478   -1.135268    0.048867
     15          1           0        1.940356   -1.036196    0.799078
     16          1           0        2.460916   -1.199552   -2.210284
     17          1           0        0.871333   -1.100113   -1.461328
     18          1           0        1.286515   -3.283085   -0.278562
     19          1           0        2.885131   -3.383088   -1.031775
     20          1           0        1.427099   -3.478175   -2.033978
     21          6           0       -2.669992    0.746465    0.279496
     22          6           0       -2.915960    1.511443   -1.021385
     23          6           0       -3.210849    2.993597   -0.788889
     24          1           0       -3.549528    0.849193    0.929733
     25          1           0       -1.829451    1.208857    0.815293
     26          1           0       -3.754898    1.046898   -1.555234
     27          1           0       -2.035812    1.406723   -1.668680
     28          1           0       -2.372375    3.477651   -0.277760
     29          1           0       -4.101228    3.115781   -0.163670
     30          1           0       -3.383552    3.521332   -1.732037
     31          6           0       -2.373833   -0.736558    0.063481
     32          6           0       -2.127865   -1.501536    1.364362
     33          6           0       -1.832975   -2.983690    1.131866
     34          1           0       -3.214374   -1.198950   -0.472315
     35          1           0       -1.494297   -0.839286   -0.586756
     36          1           0       -3.008013   -1.396817    2.011657
     37          1           0       -1.288927   -1.036990    1.898212
     38          1           0       -0.942597   -3.105873    0.506647
     39          1           0       -2.671451   -3.467744    0.620738
     40          1           0       -1.660274   -3.511426    2.075014
 ---------------------------------------------------------------------

 SCF Done:  E(RHF) =  -470.733093530     A.U. after   11 cycles
 E2 =    -0.1584195344D+01 EUMP2 =    -0.47231728887457D+03

 The electronic state is 1-A.
 Alpha  occ. eigenvalues --  -11.21672 -11.21658 -11.21655 -11.21646 -11.21476
 Alpha  occ. eigenvalues --  -11.21458 -11.21417 -11.21398 -11.21118 -11.21115
 Alpha  occ. eigenvalues --  -11.21105 -11.21082  -1.08519  -1.08463  -1.03616
 Alpha  occ. eigenvalues --   -1.03551  -0.96063  -0.96000  -0.87098  -0.86998
 Alpha  occ. eigenvalues --   -0.79665  -0.79628  -0.78345  -0.78265  -0.65383
 Alpha  occ. eigenvalues --   -0.64890  -0.61229  -0.60750  -0.59409  -0.59382
 Alpha  occ. eigenvalues --   -0.57696  -0.57596  -0.55539  -0.55137  -0.52730
 Alpha  occ. eigenvalues --   -0.52711  -0.52516  -0.52405  -0.50256  -0.49694
 Alpha  occ. eigenvalues --   -0.48077  -0.47868  -0.46717  -0.46625  -0.46055
 Alpha  occ. eigenvalues --   -0.45834  -0.45756  -0.45488  -0.43847  -0.43828
 Alpha virt. eigenvalues --    0.18651   0.22370   0.23872   0.24720   0.25524
 Alpha virt. eigenvalues --    0.26189   0.26707   0.28029   0.28852   0.30303
 Alpha virt. eigenvalues --    0.30744   0.30939   0.31638   0.31768   0.31775

 Mulliken charges:
               1
     1  C   -0.298845
     2  C   -0.299711
     3  C   -0.475635
     4  H    0.150074
     5  H    0.149018
     6  H    0.152274
     7  H    0.151831
     8  H    0.154870
     9  H    0.155395
    10  H    0.160551
    11  C   -0.298794
    12  C   -0.305814
    13  C   -0.480772
    14  H    0.150128
    15  H    0.150000
    16  H    0.152722
    17  H    0.156253
    18  H    0.159847
    19  H    0.155922
    20  H    0.160758
    21  C   -0.298241
    22  C   -0.300021
    23  C   -0.475603
    24  H    0.150058
    25  H    0.149019
    26  H    0.152260
    27  H    0.151817
    28  H    0.154941
    29  H    0.155340
    30  H    0.160571
    31  C   -0.305305
    32  C   -0.299327
    33  C   -0.483165
    34  H    0.150056
    35  H    0.155764
    36  H    0.152366
    37  H    0.151258
    38  H    0.162214
    39  H    0.155668
    40  H    0.160254
 Sum of Mulliken charges =  -0.00000

 Dipole moment (field-independent basis, Debye):
    X=              0.0106    Y=             -0.0113    Z=             -0.0135  Tot=              0.0205
 Quadrupole moment (field-independent basis, Debye-Ang):
   XX=            -82.8226   YY=            -87.1033   ZZ=            -84.6039
   XY=              0.2974   XZ=             -0.4623   YZ=             -0.0165

 Normal termination of Gaussian 16 at Thu May  6 00:33:09 2021.
