 Gaussian 16, Revision A.03,
 Gaussian 16:  EM64L-G16RevA.03 25-Dec-2016

 -------------
 #p 6-31g* mp2
 -------------

 ------------------------------------------------------
 Input file generated by CHIRIPA (05-May-2021 14:53:17)
 ------------------------------------------------------
 Symbolic Z-matrix:
 Charge =  0 Multiplicity = 1

                         Standard orientation:
 ---------------------------------------------------------------------
 Center     Atomic      Atomic             Coordinates (Angstroms)
 Number     Number       Type             X           Y           Z
 ---------------------------------------------------------------------
      1          6           0        3.257060    0.122904   -0.406227
      2          6           0        4.662554   -0.189293    0.108657
      3          6           0        5.240916   -1.471017   -0.491739
      4          1           0        2.593638   -0.722495   -0.177933
      5          1           0        3.286282    0.210483   -1.501157
      6          1           0        4.630950   -0.274888    1.202407
      7          1           0        5.322663    0.657028   -0.120720
      8          1           0        5.301408   -1.392540   -1.582053
      9          1           0        4.605765   -2.329751   -0.251408
     10          1           0        6.246135   -1.675153   -0.110004
     11          6           0        2.665413    1.401293    0.184875
     12          6           0        1.259919    1.713490   -0.330009
     13          6           0        0.681558    2.995214    0.270387
     14          1           0        2.636192    1.313715    1.279804
     15          1           0        3.328835    2.246692   -0.043419
     16          1           0        0.599811    0.867169   -0.100633
     17          1           0        1.291523    1.799085   -1.423760
     18          1           0        1.316708    3.853948    0.030055
     19          1           0        0.621066    2.916737    1.360700
     20          1           0       -0.323662    3.199350   -0.111349
     21          6           0       -0.150583   -1.645971    0.850754
     22          6           0       -1.003006   -1.042766    1.781365
     23          6           0       -2.203928   -0.457564    1.369208
     24          6           0       -2.522566   -0.493823    0.012577
     25          6           0       -1.694216   -1.087210   -0.938747
     26          6           0       -0.498295   -1.666232   -0.503944
     27          1           0        0.780380   -2.098170    1.179724
     28          1           0       -0.735540   -1.025544    2.834082
     29          1           0       -2.882324    0.016124    2.068361
     30          1           0       -1.987930   -1.088715   -1.981410
     31          1           0        0.161772   -2.133987   -1.228901
     32          7           0       -3.791280    0.122432   -0.435743
     33          8           0       -4.049129    0.077265   -1.636622
     34          8           0       -4.503828    0.638952    0.422233
 ---------------------------------------------------------------------

 SCF Done:  E(RHF) =  -669.533605519     A.U. after   15 cycles
 E2 =    -0.2095458655D+01 EUMP2 =    -0.67162906417445D+03

 The electronic state is 1-A.
 Alpha  occ. eigenvalues --  -20.60858 -20.60853 -15.85912 -11.31334 -11.27904
 Alpha  occ. eigenvalues --  -11.27861 -11.27594 -11.26910 -11.26850 -11.22256
 Alpha  occ. eigenvalues --  -11.22070 -11.21795 -11.21774 -11.21578 -11.21146
 Alpha  occ. eigenvalues --   -1.59933  -1.39484  -1.19513  -1.08995  -1.08825
 Alpha  occ. eigenvalues --   -1.04899  -1.03931  -0.96418  -0.95714  -0.87427
 Alpha  occ. eigenvalues --   -0.86293  -0.82535  -0.80032  -0.78736  -0.77575
 Alpha  occ. eigenvalues --   -0.72128  -0.71256  -0.70611  -0.65615  -0.65135
 Alpha  occ. eigenvalues --   -0.64879  -0.62234  -0.61378  -0.59805  -0.58020
 Alpha  occ. eigenvalues --   -0.55783  -0.55354  -0.53450  -0.53011  -0.52969
 Alpha  occ. eigenvalues --   -0.52807  -0.50363  -0.48892  -0.48881  -0.48312
 Alpha  occ. eigenvalues --   -0.47065  -0.46234  -0.46108  -0.44878  -0.44206
 Alpha  occ. eigenvalues --   -0.37380  -0.36468
 Alpha virt. eigenvalues --    0.04913   0.11054   0.16318   0.20059   0.22936
 Alpha virt. eigenvalues --    0.23824   0.25831   0.26370   0.27392   0.27701
 Alpha virt. eigenvalues --    0.29700   0.30620   0.31174   0.31669   0.31919

 Mulliken charges:
               1
     1  C   -0.299412
     2  C   -0.299811
     3  C   -0.474961
     4  H    0.138988
     5  H    0.150972
     6  H    0.150297
     7  H    0.155626
     8  H    0.156905
     9  H    0.148958
    10  H    0.162978
    11  C   -0.296821
    12  C   -0.310898
    13  C   -0.474844
    14  H    0.145668
    15  H    0.151507
    16  H    0.168543
    17  H    0.149452
    18  H    0.154695
    19  H    0.151897
    20  H    0.163615
    21  C   -0.174286
    22  C   -0.217199
    23  C   -0.171026
    24  C    0.159907
    25  C   -0.169965
    26  C   -0.218081
    27  H    0.226428
    28  H    0.224252
    29  H    0.276461
    30  H    0.276380
    31  H    0.225548
    32  N    0.487972
    33  O   -0.459835
    34  O   -0.459913
 Sum of Mulliken charges =  -0.00000

 Dipole moment (field-independent basis, Debye):
    X=              4.3728    Y=             -2.1697    Z=              1.5543  Tot=              5.1230
 Quadrupole moment (field-independent basis, Debye-Ang):
   XX=           -117.8130   YY=            -93.6734   ZZ=            -89.8248
   XY=              3.7612   XZ=             -5.3026   YZ=             -0.1791

 Normal termination of Gaussian 16 at Thu May  6 09:07:02 2021.
