 Gaussian 16, Revision A.03,
 Gaussian 16:  EM64L-G16RevA.03 25-Dec-2016

 -------------
 #p 6-31g* mp2
 -------------

 ------------------------------------------------------
 Input file generated by CHIRIPA (05-May-2021 14:55:20)
 ------------------------------------------------------
 Symbolic Z-matrix:
 Charge =  0 Multiplicity = 1

                         Standard orientation:
 ---------------------------------------------------------------------
 Center     Atomic      Atomic             Coordinates (Angstroms)
 Number     Number       Type             X           Y           Z
 ---------------------------------------------------------------------
      1          6           0        3.916068    1.501008    1.018601
      2          6           0        4.454514    0.271055    0.626413
      3          6           0        3.652656   -0.687708    0.000039
      4          6           0        2.310458   -0.381849   -0.219606
      5          6           0        1.744662    0.834477    0.159492
      6          6           0        2.565241    1.778305    0.784302
      7          1           0        4.546242    2.239997    1.504576
      8          1           0        5.503245    0.052966    0.807097
      9          1           0        4.043626   -1.647932   -0.313858
     10          1           0        0.695665    1.023049   -0.034065
     11          1           0        2.144364    2.732660    1.087803
     12          7           0        1.451657   -1.388943   -0.881892
     13          8           0        0.272193   -1.095141   -1.064050
     14          8           0        1.974254   -2.453035   -1.206294
     15          6           0       -3.590834   -0.287297    0.388815
     16          6           0       -2.848482   -1.604311    0.617667
     17          6           0       -3.766720   -2.722217    1.112559
     18          1           0       -4.074434    0.021264    1.325760
     19          1           0       -4.396851   -0.450613   -0.339923
     20          1           0       -2.043226   -1.438244    1.344717
     21          1           0       -2.366434   -1.909675   -0.319881
     22          1           0       -4.562690   -2.916742    0.386479
     23          1           0       -4.237647   -2.442633    2.060536
     24          1           0       -3.215465   -3.654592    1.269582
     25          6           0       -2.686283    0.839919   -0.106056
     26          6           0       -3.428635    2.156933   -0.334908
     27          6           0       -2.510397    3.274839   -0.829799
     28          1           0       -1.880266    1.003234    0.622683
     29          1           0       -2.202683    0.531358   -1.043000
     30          1           0       -3.910683    2.462297    0.602641
     31          1           0       -4.233890    1.990867   -1.061957
     32          1           0       -2.039470    2.995255   -1.777776
     33          1           0       -1.714426    3.469363   -0.103720
     34          1           0       -3.061652    4.207214   -0.986822
 ---------------------------------------------------------------------

 SCF Done:  E(RHF) =  -669.535853471     A.U. after   15 cycles
 E2 =    -0.2092867789D+01 EUMP2 =    -0.67162872126024D+03

 The electronic state is 1-A.
 Alpha  occ. eigenvalues --  -20.60897 -20.60886 -15.85922 -11.31222 -11.27796
 Alpha  occ. eigenvalues --  -11.27750 -11.27532 -11.26799 -11.26782 -11.21338
 Alpha  occ. eigenvalues --  -11.21123 -11.20836 -11.20669 -11.20414 -11.20191
 Alpha  occ. eigenvalues --   -1.59956  -1.39512  -1.19394  -1.08806  -1.07822
 Alpha  occ. eigenvalues --   -1.04786  -1.02947  -0.95653  -0.95457  -0.86487
 Alpha  occ. eigenvalues --   -0.86187  -0.82493  -0.79031  -0.77792  -0.77294
 Alpha  occ. eigenvalues --   -0.72147  -0.71264  -0.70505  -0.65056  -0.64801
 Alpha  occ. eigenvalues --   -0.64444  -0.62133  -0.60348  -0.58859  -0.57028
 Alpha  occ. eigenvalues --   -0.55300  -0.54774  -0.53123  -0.52886  -0.52169
 Alpha  occ. eigenvalues --   -0.51875  -0.49449  -0.48928  -0.48911  -0.47330
 Alpha  occ. eigenvalues --   -0.46057  -0.45279  -0.44962  -0.44658  -0.43187
 Alpha  occ. eigenvalues --   -0.37378  -0.36387
 Alpha virt. eigenvalues --    0.04966   0.11247   0.16460   0.20464   0.23295
 Alpha virt. eigenvalues --    0.24440   0.26084   0.27403   0.27762   0.28479
 Alpha virt. eigenvalues --    0.29531   0.30908   0.31809   0.32086   0.32477

 Mulliken charges:
               1
     1  C   -0.170301
     2  C   -0.218996
     3  C   -0.170133
     4  C    0.155982
     5  C   -0.176206
     6  C   -0.220696
     7  H    0.225750
     8  H    0.223509
     9  H    0.275514
    10  H    0.285734
    11  H    0.223924
    12  N    0.492723
    13  O   -0.464497
    14  O   -0.459713
    15  C   -0.298539
    16  C   -0.301940
    17  C   -0.476073
    18  H    0.144044
    19  H    0.148316
    20  H    0.145919
    21  H    0.177207
    22  H    0.152963
    23  H    0.149367
    24  H    0.160749
    25  C   -0.302470
    26  C   -0.298847
    27  C   -0.475622
    28  H    0.138287
    29  H    0.168422
    30  H    0.149683
    31  H    0.153508
    32  H    0.157395
    33  H    0.144413
    34  H    0.160626
 Sum of Mulliken charges =  -0.00000

 Dipole moment (field-independent basis, Debye):
    X=              3.1485    Y=              3.3834    Z=              2.1243  Tot=              5.0866
 Quadrupole moment (field-independent basis, Debye-Ang):
   XX=            -78.6921   YY=            -97.1070   ZZ=            -95.9255
   XY=              4.0842   XZ=              5.6054   YZ=             -0.6162

 Normal termination of Gaussian 16 at Thu May  6 19:08:18 2021.
