 Gaussian 16, Revision A.03,
 Gaussian 16:  EM64L-G16RevA.03 25-Dec-2016

 -------------
 #p 6-31g* mp2
 -------------

 ------------------------------------------------------
 Input file generated by CHIRIPA (05-May-2021 14:55:21)
 ------------------------------------------------------
 Symbolic Z-matrix:
 Charge =  0 Multiplicity = 1

                         Standard orientation:
 ---------------------------------------------------------------------
 Center     Atomic      Atomic             Coordinates (Angstroms)
 Number     Number       Type             X           Y           Z
 ---------------------------------------------------------------------
      1          6           0        0.559423   -1.691718    1.416583
      2          6           0        0.584813   -1.744601    0.019057
      3          6           0        1.546019   -1.029146   -0.701189
      4          6           0        2.470883   -0.267545    0.011469
      5          6           0        2.471448   -0.194612    1.403579
      6          6           0        1.501162   -0.918256    2.103174
      7          1           0       -0.190792   -2.250681    1.968067
      8          1           0       -0.145313   -2.344448   -0.516802
      9          1           0        1.588494   -1.052224   -1.783354
     10          1           0        3.212347    0.412134    1.909886
     11          1           0        1.483836   -0.875313    3.188485
     12          7           0        3.493275    0.494209   -0.740092
     13          8           0        4.297044    1.157759   -0.088714
     14          8           0        3.471498    0.413298   -1.966312
     15          6           0       -2.898874   -0.118535   -0.614376
     16          6           0       -3.578520   -1.346603   -0.007817
     17          6           0       -3.473655   -2.582359   -0.902078
     18          1           0       -3.349433    0.096054   -1.593096
     19          1           0       -1.840725   -0.348463   -0.801057
     20          1           0       -4.634749   -1.113971    0.178945
     21          1           0       -3.126421   -1.558179    0.969659
     22          1           0       -2.424897   -2.842174   -1.078731
     23          1           0       -3.941796   -2.395443   -1.873936
     24          1           0       -3.966128   -3.448555   -0.449270
     25          6           0       -2.995219    1.124850    0.267917
     26          6           0       -2.315573    2.352918   -0.338642
     27          6           0       -2.420438    3.588674    0.555620
     28          1           0       -4.053368    1.354778    0.454598
     29          1           0       -2.544660    0.910261    1.246637
     30          1           0       -2.767672    2.564494   -1.316117
     31          1           0       -1.259344    2.120287   -0.525404
     32          1           0       -1.952297    3.401758    1.527477
     33          1           0       -3.469196    3.848489    0.732272
     34          1           0       -1.927965    4.454870    0.102811
 ---------------------------------------------------------------------

 SCF Done:  E(RHF) =  -669.534952772     A.U. after   15 cycles
 E2 =    -0.2093514558D+01 EUMP2 =    -0.67162846733017D+03

 The electronic state is 1-A.
 Alpha  occ. eigenvalues --  -20.60831 -20.60826 -15.85885 -11.31288 -11.27855
 Alpha  occ. eigenvalues --  -11.27848 -11.27598 -11.26875 -11.26857 -11.22429
 Alpha  occ. eigenvalues --  -11.22086 -11.21893 -11.21831 -11.21761 -11.21241
 Alpha  occ. eigenvalues --   -1.59906  -1.39458  -1.19465  -1.08973  -1.08830
 Alpha  occ. eigenvalues --   -1.04875  -1.04075  -0.96523  -0.95676  -0.87545
 Alpha  occ. eigenvalues --   -0.86270  -0.82514  -0.80152  -0.78724  -0.77550
 Alpha  occ. eigenvalues --   -0.72102  -0.71230  -0.70559  -0.65732  -0.65111
 Alpha  occ. eigenvalues --   -0.64798  -0.62275  -0.61404  -0.59911  -0.58115
 Alpha  occ. eigenvalues --   -0.55859  -0.55361  -0.53247  -0.53188  -0.53029
 Alpha  occ. eigenvalues --   -0.52871  -0.50495  -0.48870  -0.48855  -0.48448
 Alpha  occ. eigenvalues --   -0.47178  -0.46264  -0.46154  -0.44855  -0.44291
 Alpha  occ. eigenvalues --   -0.37425  -0.36422
 Alpha virt. eigenvalues --    0.04958   0.11096   0.16350   0.19132   0.22918
 Alpha virt. eigenvalues --    0.23903   0.25229   0.25835   0.27269   0.28440
 Alpha virt. eigenvalues --    0.28713   0.29777   0.31091   0.31627   0.32032

 Mulliken charges:
               1
     1  C   -0.174442
     2  C   -0.222172
     3  C   -0.173907
     4  C    0.158963
     5  C   -0.170781
     6  C   -0.218707
     7  H    0.227153
     8  H    0.233562
     9  H    0.276937
    10  H    0.276043
    11  H    0.223980
    12  N    0.488011
    13  O   -0.460149
    14  O   -0.459913
    15  C   -0.303607
    16  C   -0.300755
    17  C   -0.478085
    18  H    0.151517
    19  H    0.151965
    20  H    0.156593
    21  H    0.144782
    22  H    0.144719
    23  H    0.161454
    24  H    0.163012
    25  C   -0.297211
    26  C   -0.300728
    27  C   -0.475952
    28  H    0.149870
    29  H    0.147465
    30  H    0.152979
    31  H    0.155105
    32  H    0.154219
    33  H    0.154759
    34  H    0.163320
 Sum of Mulliken charges =  -0.00000

 Dipole moment (field-independent basis, Debye):
    X=             -3.6180    Y=             -2.6042    Z=              2.6270  Tot=              5.1743
 Quadrupole moment (field-independent basis, Debye-Ang):
   XX=           -111.4216   YY=            -94.2489   ZZ=            -91.1737
   XY=             -5.2192   XZ=              9.0122   YZ=              0.2443

 Normal termination of Gaussian 16 at Wed May  5 22:13:24 2021.
