 Gaussian 16, Revision A.03,
 Gaussian 16:  EM64L-G16RevA.03 25-Dec-2016

 -------------
 #p 6-31g* mp2
 -------------

 ------------------------------------------------------
 Input file generated by CHIRIPA (05-May-2021 14:55:19)
 ------------------------------------------------------
 Symbolic Z-matrix:
 Charge =  0 Multiplicity = 1

                         Standard orientation:
 ---------------------------------------------------------------------
 Center     Atomic      Atomic             Coordinates (Angstroms)
 Number     Number       Type             X           Y           Z
 ---------------------------------------------------------------------
      1          6           0       -1.225545    2.218814    0.588072
      2          6           0       -1.031716    0.912501    1.049045
      3          6           0       -1.969978   -0.085570    0.769641
      4          6           0       -3.095687    0.259275    0.023215
      5          6           0       -3.317077    1.551667   -0.450071
      6          6           0       -2.365597    2.533673   -0.158698
      7          1           0       -0.491546    2.987900    0.809768
      8          1           0       -0.147275    0.665097    1.629219
      9          1           0       -1.844870   -1.104921    1.114152
     10          1           0       -4.208626    1.767941   -1.026078
     11          1           0       -2.518742    3.547330   -0.517992
     12          7           0       -4.095980   -0.788834   -0.278913
     13          8           0       -5.079377   -0.459401   -0.938490
     14          8           0       -3.877672   -1.919929    0.149577
     15          6           0        3.159755   -0.918339   -0.409413
     16          6           0        2.181145   -1.489178    0.617453
     17          6           0        1.002760   -2.217187   -0.030008
     18          1           0        2.622240   -0.229280   -1.075162
     19          1           0        3.534756   -1.735041   -1.041685
     20          1           0        1.809158   -0.671847    1.248491
     21          1           0        2.721092   -2.176812    1.280954
     22          1           0        1.356047   -3.051348   -0.644797
     23          1           0        0.438930   -1.537831   -0.677444
     24          1           0        0.315732   -2.617267    0.722181
     25          6           0        4.343162   -0.187622    0.222509
     26          6           0        5.321771    0.383217   -0.804357
     27          6           0        6.500156    1.111225   -0.156896
     28          1           0        3.968160    0.629079    0.854781
     29          1           0        4.880676   -0.876681    0.888258
     30          1           0        4.781824    1.070851   -1.467858
     31          1           0        5.693758   -0.434115   -1.435395
     32          1           0        7.063986    0.431870    0.490540
     33          1           0        6.146870    1.945386    0.457893
     34          1           0        7.187185    1.511306   -0.909085
 ---------------------------------------------------------------------

 SCF Done:  E(RHF) =  -669.534779741     A.U. after   15 cycles
 E2 =    -0.2092673854D+01 EUMP2 =    -0.67162745359527D+03

 The electronic state is 1-A.
 Alpha  occ. eigenvalues --  -20.60742 -20.60737 -15.85796 -11.31163 -11.27749
 Alpha  occ. eigenvalues --  -11.27715 -11.27496 -11.26762 -11.26727 -11.22349
 Alpha  occ. eigenvalues --  -11.22091 -11.21990 -11.21930 -11.21590 -11.21515
 Alpha  occ. eigenvalues --   -1.59818  -1.39371  -1.19350  -1.09024  -1.08742
 Alpha  occ. eigenvalues --   -1.04765  -1.04092  -0.96529  -0.95573  -0.87542
 Alpha  occ. eigenvalues --   -0.86149  -0.82406  -0.80173  -0.78833  -0.77454
 Alpha  occ. eigenvalues --   -0.72015  -0.71142  -0.70462  -0.65709  -0.64998
 Alpha  occ. eigenvalues --   -0.64746  -0.62263  -0.61367  -0.59882  -0.58139
 Alpha  occ. eigenvalues --   -0.55824  -0.55242  -0.53282  -0.53081  -0.52941
 Alpha  occ. eigenvalues --   -0.52794  -0.50432  -0.48781  -0.48768  -0.48465
 Alpha  occ. eigenvalues --   -0.47199  -0.46363  -0.46293  -0.44775  -0.44352
 Alpha  occ. eigenvalues --   -0.37338  -0.36315
 Alpha virt. eigenvalues --    0.05066   0.11255   0.16460   0.19708   0.22686
 Alpha virt. eigenvalues --    0.23876   0.25254   0.26186   0.26609   0.28392
 Alpha virt. eigenvalues --    0.28846   0.29424   0.31086   0.31479   0.32102

 Mulliken charges:
               1
     1  C   -0.172126
     2  C   -0.222520
     3  C   -0.171363
     4  C    0.157325
     5  C   -0.170823
     6  C   -0.218847
     7  H    0.225430
     8  H    0.229046
     9  H    0.279016
    10  H    0.275572
    11  H    0.223278
    12  N    0.488146
    13  O   -0.460658
    14  O   -0.460193
    15  C   -0.298943
    16  C   -0.301850
    17  C   -0.481398
    18  H    0.150439
    19  H    0.153449
    20  H    0.140333
    21  H    0.155801
    22  H    0.161392
    23  H    0.160869
    24  H    0.158332
    25  C   -0.297770
    26  C   -0.300014
    27  C   -0.475816
    28  H    0.144780
    29  H    0.151508
    30  H    0.151557
    31  H    0.154095
    32  H    0.156356
    33  H    0.153804
    34  H    0.161793
 Sum of Mulliken charges =  -0.00000

 Dipole moment (field-independent basis, Debye):
    X=              3.6274    Y=              3.6033    Z=              0.9677  Tot=              5.2037
 Quadrupole moment (field-independent basis, Debye-Ang):
   XX=           -115.7305   YY=            -90.2573   ZZ=            -94.2717
   XY=            -13.8703   XZ=             -2.1379   YZ=             -1.6668

 Normal termination of Gaussian 16 at Thu May  6 04:30:04 2021.
