 Gaussian 16, Revision A.03,
 Gaussian 16:  EM64L-G16RevA.03 25-Dec-2016

 -------------
 #p 6-31g* mp2
 -------------

 ------------------------------------------------------
 Input file generated by CHIRIPA (05-May-2021 14:57:23)
 ------------------------------------------------------
 Symbolic Z-matrix:
 Charge =  0 Multiplicity = 1

                         Standard orientation:
 ---------------------------------------------------------------------
 Center     Atomic      Atomic             Coordinates (Angstroms)
 Number     Number       Type             X           Y           Z
 ---------------------------------------------------------------------
      1          6           0        2.716989    2.342998   -0.691986
      2          6           0        3.862270    1.621299   -1.044126
      3          6           0        3.972822    0.264741   -0.724630
      4          6           0        2.914315   -0.341141   -0.049529
      5          6           0        1.760391    0.350909    0.314908
      6          6           0        1.671547    1.706621   -0.014787
      7          1           0        2.639541    3.396476   -0.944139
      8          1           0        4.675737    2.112913   -1.570083
      9          1           0        4.848120   -0.317795   -0.985252
     10          1           0        0.965963   -0.166596    0.838827
     11          1           0        0.780918    2.264605    0.259946
     12          7           0        3.019861   -1.776821    0.294105
     13          8           0        2.073404   -2.287437    0.889191
     14          8           0        4.047045   -2.364305   -0.038148
     15          6           0       -1.738096    1.926840    1.410853
     16          6           0       -1.715536    0.608679    1.878252
     17          6           0       -2.354214   -0.409092    1.163562
     18          6           0       -3.008951   -0.071651   -0.019968
     19          6           0       -3.049158    1.232173   -0.511616
     20          6           0       -2.403661    2.233839    0.219511
     21          1           0       -1.239307    2.711214    1.972425
     22          1           0       -1.199424    0.367340    2.803146
     23          1           0       -2.352394   -1.437945    1.502495
     24          1           0       -3.571814    1.441984   -1.436942
     25          1           0       -2.422821    3.256663   -0.145880
     26          7           0       -3.688700   -1.140595   -0.785278
     27          8           0       -4.258627   -0.817333   -1.825145
     28          8           0       -3.638690   -2.281454   -0.330772
 ---------------------------------------------------------------------

 SCF Done:  E(RHF) =  -868.336497327     A.U. after   16 cycles
 E2 =    -0.2602997394D+01 EUMP2 =    -0.87093949472193D+03

 The electronic state is 1-A.
 Alpha  occ. eigenvalues --  -20.61140 -20.61114 -20.60948 -20.60935 -15.86193
 Alpha  occ. eigenvalues --  -15.85996 -11.31868 -11.31373 -11.28494 -11.28434
 Alpha  occ. eigenvalues --  -11.28362 -11.27946 -11.27896 -11.27729 -11.27617
 Alpha  occ. eigenvalues --  -11.27551 -11.26979 -11.26922  -1.60198  -1.60015
 Alpha  occ. eigenvalues --   -1.39741  -1.39570  -1.20116  -1.19552  -1.09482
 Alpha  occ. eigenvalues --   -1.08956  -1.05539  -1.04954  -0.96238  -0.95786
 Alpha  occ. eigenvalues --   -0.86926  -0.86367  -0.83044  -0.82615  -0.78008
 Alpha  occ. eigenvalues --   -0.77663  -0.72407  -0.72217  -0.71525  -0.71336
 Alpha  occ. eigenvalues --   -0.71237  -0.70694  -0.65751  -0.65516  -0.65209
 Alpha  occ. eigenvalues --   -0.64993  -0.62831  -0.62365  -0.56092  -0.55535
 Alpha  occ. eigenvalues --   -0.53802  -0.53596  -0.53286  -0.53042  -0.49193
 Alpha  occ. eigenvalues --   -0.49138  -0.48975  -0.48966  -0.45077  -0.44971
 Alpha  occ. eigenvalues --   -0.38133  -0.37564  -0.37129  -0.36556
 Alpha virt. eigenvalues --    0.04444   0.04876   0.10402   0.11070   0.15736
 Alpha virt. eigenvalues --    0.16353   0.19968   0.21910   0.26157   0.26565
 Alpha virt. eigenvalues --    0.28278   0.28575   0.30060   0.31496   0.31897

 Mulliken charges:
               1
     1  C   -0.171901
     2  C   -0.218521
     3  C   -0.170197
     4  C    0.159880
     5  C   -0.177424
     6  C   -0.222168
     7  H    0.223550
     8  H    0.223746
     9  H    0.276365
    10  H    0.276015
    11  H    0.221017
    12  N    0.488373
    13  O   -0.461833
    14  O   -0.458878
    15  C   -0.183679
    16  C   -0.228287
    17  C   -0.169048
    18  C    0.160588
    19  C   -0.168080
    20  C   -0.219706
    21  H    0.226337
    22  H    0.231098
    23  H    0.285476
    24  H    0.278650
    25  H    0.224064
    26  N    0.487950
    27  O   -0.459313
    28  O   -0.454075
 Sum of Mulliken charges =  -0.00000

 Dipole moment (field-independent basis, Debye):
    X=              1.7060    Y=              8.5662    Z=              1.4494  Tot=              8.8538
 Quadrupole moment (field-independent basis, Debye-Ang):
   XX=           -116.8134   YY=           -107.7131   ZZ=           -102.4490
   XY=              2.3051   XZ=            -12.9978   YZ=             -2.8231

 Normal termination of Gaussian 16 at Fri May  7 04:56:32 2021.
