 Gaussian 16, Revision A.03,
 Gaussian 16:  EM64L-G16RevA.03 25-Dec-2016

 -------------
 #p 6-31g* mp2
 -------------

 ------------------------------------------------------
 Input file generated by CHIRIPA (05-May-2021 14:57:22)
 ------------------------------------------------------
 Symbolic Z-matrix:
 Charge =  0 Multiplicity = 1

                         Standard orientation:
 ---------------------------------------------------------------------
 Center     Atomic      Atomic             Coordinates (Angstroms)
 Number     Number       Type             X           Y           Z
 ---------------------------------------------------------------------
      1          6           0        3.044512    2.273128    0.830243
      2          6           0        4.251408    2.235940    0.124170
      3          6           0        4.743041    1.027520   -0.378389
      4          6           0        3.998642   -0.129839   -0.155493
      5          6           0        2.792868   -0.125227    0.544062
      6          6           0        2.320370    1.094504    1.037570
      7          1           0        2.670032    3.216251    1.217128
      8          1           0        4.815906    3.149709   -0.038353
      9          1           0        5.674456    0.970105   -0.928469
     10          1           0        2.252484   -1.052621    0.690157
     11          1           0        1.382772    1.120384    1.585553
     12          7           0        4.508983   -1.415126   -0.682739
     13          8           0        3.834310   -2.420826   -0.472930
     14          8           0        5.573998   -1.392497   -1.295819
     15          6           0       -5.787240    0.496154   -1.520314
     16          6           0       -4.593074    1.223836   -1.551442
     17          6           0       -3.548750    0.912294   -0.675728
     18          6           0       -3.733485   -0.137886    0.222206
     19          6           0       -4.911326   -0.881471    0.277535
     20          6           0       -5.942281   -0.552328   -0.607533
     21          1           0       -6.593304    0.745004   -2.204222
     22          1           0       -4.469869    2.038616   -2.259257
     23          1           0       -2.613736    1.459248   -0.678374
     24          1           0       -5.004650   -1.688274    0.994317
     25          1           0       -6.868582   -1.119174   -0.581109
     26          7           0       -2.634983   -0.477017    1.154237
     27          8           0       -2.822635   -1.406794    1.935864
     28          8           0       -1.607124    0.193368    1.085488
 ---------------------------------------------------------------------

 SCF Done:  E(RHF) =  -868.339910314     A.U. after   16 cycles
 E2 =    -0.2598259110D+01 EUMP2 =    -0.87093816942370D+03

 The electronic state is 1-A.
 Alpha  occ. eigenvalues --  -20.61514 -20.61462 -20.60084 -20.60068 -15.86531
 Alpha  occ. eigenvalues --  -15.85122 -11.31666 -11.30348 -11.28225 -11.28190
 Alpha  occ. eigenvalues --  -11.27906 -11.27179 -11.27156 -11.26949 -11.26761
 Alpha  occ. eigenvalues --  -11.26612 -11.25982 -11.25670  -1.60551  -1.59158
 Alpha  occ. eigenvalues --   -1.40114  -1.38713  -1.19816  -1.18496  -1.09252
 Alpha  occ. eigenvalues --   -1.07929  -1.05187  -1.03842  -0.96127  -0.94788
 Alpha  occ. eigenvalues --   -0.86595  -0.85259  -0.82973  -0.81596  -0.78043
 Alpha  occ. eigenvalues --   -0.76655  -0.72771  -0.71851  -0.71345  -0.70923
 Alpha  occ. eigenvalues --   -0.70479  -0.69623  -0.65476  -0.65188  -0.64135
 Alpha  occ. eigenvalues --   -0.63809  -0.62539  -0.61160  -0.55694  -0.54396
 Alpha  occ. eigenvalues --   -0.53524  -0.53277  -0.52230  -0.51897  -0.49531
 Alpha  occ. eigenvalues --   -0.49481  -0.48107  -0.48088  -0.45568  -0.44149
 Alpha  occ. eigenvalues --   -0.37779  -0.36778  -0.36512  -0.35446
 Alpha virt. eigenvalues --    0.04484   0.05825   0.10880   0.12189   0.16024
 Alpha virt. eigenvalues --    0.17352   0.21015   0.22381   0.26955   0.27737
 Alpha virt. eigenvalues --    0.28511   0.29152   0.30613   0.31790   0.32237

 Mulliken charges:
               1
     1  C   -0.173423
     2  C   -0.218933
     3  C   -0.173412
     4  C    0.157651
     5  C   -0.173212
     6  C   -0.224288
     7  H    0.222631
     8  H    0.219278
     9  H    0.272197
    10  H    0.280924
    11  H    0.244936
    12  N    0.487918
    13  O   -0.460022
    14  O   -0.463970
    15  C   -0.169881
    16  C   -0.218322
    17  C   -0.170258
    18  C    0.158092
    19  C   -0.170020
    20  C   -0.218442
    21  H    0.227405
    22  H    0.224479
    23  H    0.273488
    24  H    0.276874
    25  H    0.225345
    26  N    0.492409
    27  O   -0.455799
    28  O   -0.473645
 Sum of Mulliken charges =  -0.00000

 Dipole moment (field-independent basis, Debye):
    X=             -6.1859    Y=              5.6228    Z=             -1.3508  Tot=              8.4679
 Quadrupole moment (field-independent basis, Debye-Ang):
   XX=            -86.6587   YY=           -103.6092   ZZ=           -106.5899
   XY=             18.8777   XZ=             16.8262   YZ=             -3.0592

 Normal termination of Gaussian 16 at Wed May  5 20:56:48 2021.
