 Gaussian 16, Revision A.03,
 Gaussian 16:  EM64L-G16RevA.03 25-Dec-2016

 -------------
 #p 6-31g* mp2
 -------------

 ------------------------------------------------------
 Input file generated by CHIRIPA (05-May-2021 14:51:08)
 ------------------------------------------------------
 Symbolic Z-matrix:
 Charge =  0 Multiplicity = 1

                         Standard orientation:
 ---------------------------------------------------------------------
 Center     Atomic      Atomic             Coordinates (Angstroms)
 Number     Number       Type             X           Y           Z
 ---------------------------------------------------------------------
      1          6           0       -4.907292   -0.068328   -0.300225
      2          6           0       -5.404663   -1.324226    0.416243
      3          6           0       -6.615369   -1.956500   -0.270938
      4          1           0       -5.724586    0.663921   -0.353023
      5          1           0       -4.649328   -0.324131   -1.337246
      6          1           0       -5.660304   -1.066420    1.452003
      7          1           0       -4.586034   -2.053496    0.467511
      8          1           0       -6.369506   -2.241546   -1.298994
      9          1           0       -7.449880   -1.248862   -0.308908
     10          1           0       -6.954388   -2.852810    0.257790
     11          6           0       -3.697368    0.575188    0.374831
     12          6           0       -3.199997    1.831087   -0.341636
     13          6           0       -1.989292    2.463360    0.345544
     14          1           0       -3.955332    0.830991    1.411853
     15          1           0       -2.880075   -0.157061    0.427629
     16          1           0       -4.018627    2.560356   -0.392904
     17          1           0       -2.944356    1.573280   -1.377396
     18          1           0       -1.154781    1.755723    0.383515
     19          1           0       -2.235155    2.748407    1.373601
     20          1           0       -1.650273    3.359671   -0.183184
     21          6           0        3.659353    0.012288   -0.352592
     22          6           0        2.393004   -0.462380    0.360876
     23          6           0        1.114894    0.077549   -0.281546
     24          1           0        3.682878    1.110646   -0.352332
     25          1           0        3.617247   -0.299202   -1.405491
     26          1           0        2.438124   -0.151288    1.412447
     27          1           0        2.372588   -1.559739    0.359085
     28          1           0        1.042846   -0.244224   -1.325516
     29          1           0        1.108754    1.172230   -0.266169
     30          1           0        0.221762   -0.274145    0.244272
     31          6           0        4.945307   -0.519148    0.277985
     32          6           0        6.211657   -0.044480   -0.435482
     33          6           0        7.489766   -0.584409    0.206939
     34          1           0        4.987414   -0.207658    1.330884
     35          1           0        4.921784   -1.617506    0.277725
     36          1           0        6.232074    1.052879   -0.433692
     37          1           0        6.166537   -0.355573   -1.487054
     38          1           0        7.495906   -1.679091    0.191564
     39          1           0        7.561815   -0.262636    1.250909
     40          1           0        8.382899   -0.232715   -0.318879
 ---------------------------------------------------------------------

 SCF Done:  E(RHF) =  -470.732680382     A.U. after   11 cycles
 E2 =    -0.1582843198D+01 EUMP2 =    -0.47231552357969D+03

 The electronic state is 1-A.
 Alpha  occ. eigenvalues --  -11.21650 -11.21619 -11.21574 -11.21503 -11.21436
 Alpha  occ. eigenvalues --  -11.21375 -11.21360 -11.21300 -11.21146 -11.21085
 Alpha  occ. eigenvalues --  -11.21049 -11.20854  -1.08466  -1.08372  -1.03583
 Alpha  occ. eigenvalues --   -1.03449  -0.96059  -0.95882  -0.87104  -0.86879
 Alpha  occ. eigenvalues --   -0.79689  -0.79480  -0.78278  -0.78185  -0.65104
 Alpha  occ. eigenvalues --   -0.65000  -0.61053  -0.60813  -0.59433  -0.59245
 Alpha  occ. eigenvalues --   -0.57640  -0.57516  -0.55493  -0.55060  -0.52799
 Alpha  occ. eigenvalues --   -0.52608  -0.52447  -0.52268  -0.50141  -0.49651
 Alpha  occ. eigenvalues --   -0.47951  -0.47831  -0.46744  -0.46451  -0.45821
 Alpha  occ. eigenvalues --   -0.45755  -0.45702  -0.45638  -0.43784  -0.43713
 Alpha virt. eigenvalues --    0.21772   0.22958   0.23675   0.24828   0.26110
 Alpha virt. eigenvalues --    0.26560   0.27206   0.27298   0.27815   0.29058
 Alpha virt. eigenvalues --    0.30446   0.31134   0.31578   0.31830   0.32023

 Mulliken charges:
               1
     1  C   -0.298217
     2  C   -0.299611
     3  C   -0.475671
     4  H    0.149677
     5  H    0.149554
     6  H    0.151838
     7  H    0.151753
     8  H    0.155145
     9  H    0.155158
    10  H    0.160119
    11  C   -0.299620
    12  C   -0.298603
    13  C   -0.485491
    14  H    0.149352
    15  H    0.149904
    16  H    0.151284
    17  H    0.151797
    18  H    0.167801
    19  H    0.153611
    20  H    0.158582
    21  C   -0.298854
    22  C   -0.299379
    23  C   -0.481322
    24  H    0.150149
    25  H    0.149547
    26  H    0.152576
    27  H    0.151990
    28  H    0.155564
    29  H    0.159156
    30  H    0.161845
    31  C   -0.298351
    32  C   -0.299681
    33  C   -0.475730
    34  H    0.149693
    35  H    0.149688
    36  H    0.152048
    37  H    0.151933
    38  H    0.155187
    39  H    0.155251
    40  H    0.160327
 Sum of Mulliken charges =  -0.00000

 Dipole moment (field-independent basis, Debye):
    X=              0.0697    Y=             -0.0203    Z=             -0.0077  Tot=              0.0730
 Quadrupole moment (field-independent basis, Debye-Ang):
   XX=            -86.3041   YY=            -84.3410   ZZ=            -84.3651
   XY=             -0.4115   XZ=             -0.9993   YZ=              0.7236

 Normal termination of Gaussian 16 at Thu May  6 16:31:58 2021.
