 Gaussian 16, Revision A.03,
 Gaussian 16:  EM64L-G16RevA.03 25-Dec-2016

 -------------
 #p 6-31g* mp2
 -------------

 ------------------------------------------------------
 Input file generated by CHIRIPA (05-May-2021 14:53:12)
 ------------------------------------------------------
 Symbolic Z-matrix:
 Charge =  0 Multiplicity = 1

                         Standard orientation:
 ---------------------------------------------------------------------
 Center     Atomic      Atomic             Coordinates (Angstroms)
 Number     Number       Type             X           Y           Z
 ---------------------------------------------------------------------
      1          6           0        4.244400   -0.594191    0.078605
      2          6           0        3.622642   -1.990800    0.048885
      3          6           0        4.668879   -3.104787    0.095951
      4          1           0        4.933278   -0.488303   -0.770618
      5          1           0        4.851577   -0.490028    0.988485
      6          1           0        3.015702   -2.091814   -0.859980
      7          1           0        2.935019   -2.093308    0.898169
      8          1           0        5.267955   -3.032300    1.009437
      9          1           0        5.349096   -3.030798   -0.758702
     10          1           0        4.202573   -4.094698    0.073711
     11          6           0        3.211136    0.530058    0.032143
     12          6           0        3.832894    1.926668    0.061863
     13          6           0        2.786657    3.040654    0.014797
     14          1           0        2.603960    0.425896   -0.877737
     15          1           0        2.522259    0.424171    0.881367
     16          1           0        4.520517    2.029176   -0.787421
     17          1           0        4.439834    2.027682    0.970729
     18          1           0        2.106440    2.966665    0.869450
     19          1           0        2.187582    2.968168   -0.898688
     20          1           0        3.252963    4.030565    0.037038
     21          6           0       -0.850577    1.468626   -0.220001
     22          6           0       -0.752495    0.083990   -0.392290
     23          6           0       -1.888235   -0.725625   -0.296554
     24          6           0       -3.111640   -0.114507   -0.026175
     25          6           0       -3.241694    1.262144    0.150479
     26          6           0       -2.092674    2.052255    0.050357
     27          1           0        0.036851    2.089979   -0.296074
     28          1           0        0.210828   -0.372004   -0.602348
     29          1           0       -1.840832   -1.800119   -0.425524
     30          1           0       -4.215749    1.687822    0.358885
     31          1           0       -2.171837    3.127314    0.184621
     32          7           0       -4.321027   -0.961287    0.077498
     33          8           0       -5.387226   -0.398510    0.316538
     34          8           0       -4.179847   -2.171736   -0.082246
 ---------------------------------------------------------------------

 SCF Done:  E(RHF) =  -669.535117906     A.U. after   15 cycles
 E2 =    -0.2092890699D+01 EUMP2 =    -0.67162800860456D+03

 The electronic state is 1-A.
 Alpha  occ. eigenvalues --  -20.60645 -20.60640 -15.85697 -11.31019 -11.27589
 Alpha  occ. eigenvalues --  -11.27571 -11.27198 -11.26578 -11.26507 -11.22819
 Alpha  occ. eigenvalues --  -11.22689 -11.22525 -11.22524 -11.22365 -11.21752
 Alpha  occ. eigenvalues --   -1.59722  -1.39277  -1.19178  -1.09568  -1.08569
 Alpha  occ. eigenvalues --   -1.04619  -1.04574  -0.97091  -0.95419  -0.88107
 Alpha  occ. eigenvalues --   -0.85974  -0.82261  -0.80716  -0.79405  -0.77310
 Alpha  occ. eigenvalues --   -0.71914  -0.71045  -0.70285  -0.66180  -0.64821
 Alpha  occ. eigenvalues --   -0.64579  -0.61997  -0.61935  -0.60467  -0.58743
 Alpha  occ. eigenvalues --   -0.56383  -0.55141  -0.53735  -0.53399  -0.52912
 Alpha  occ. eigenvalues --   -0.52649  -0.51018  -0.48976  -0.48674  -0.48665
 Alpha  occ. eigenvalues --   -0.47728  -0.46871  -0.46804  -0.44866  -0.44692
 Alpha  occ. eigenvalues --   -0.37140  -0.36189
 Alpha virt. eigenvalues --    0.05200   0.11413   0.16662   0.19905   0.22356
 Alpha virt. eigenvalues --    0.22859   0.24727   0.25738   0.26091   0.28742
 Alpha virt. eigenvalues --    0.29869   0.30193   0.30603   0.31443   0.32047

 Mulliken charges:
               1
     1  C   -0.297945
     2  C   -0.302798
     3  C   -0.476221
     4  H    0.152867
     5  H    0.153701
     6  H    0.148880
     7  H    0.153270
     8  H    0.157594
     9  H    0.157009
    10  H    0.163506
    11  C   -0.307415
    12  C   -0.298331
    13  C   -0.486500
    14  H    0.144445
    15  H    0.152280
    16  H    0.156741
    17  H    0.157640
    18  H    0.155548
    19  H    0.151822
    20  H    0.169102
    21  C   -0.180434
    22  C   -0.227924
    23  C   -0.171894
    24  C    0.158308
    25  C   -0.171096
    26  C   -0.221827
    27  H    0.239939
    28  H    0.230819
    29  H    0.275059
    30  H    0.274773
    31  H    0.223079
    32  N    0.487970
    33  O   -0.461000
    34  O   -0.460970
 Sum of Mulliken charges =  -0.00000

 Dipole moment (field-independent basis, Debye):
    X=              4.6879    Y=              2.9861    Z=             -0.3017  Tot=              5.5664
 Quadrupole moment (field-independent basis, Debye-Ang):
   XX=           -119.2954   YY=            -92.6748   ZZ=            -94.3899
   XY=            -11.7790   XZ=              0.5660   YZ=              0.8725

 Normal termination of Gaussian 16 at Wed May  5 17:00:45 2021.
