 Gaussian 16, Revision A.03,
 Gaussian 16:  EM64L-G16RevA.03 25-Dec-2016

 -------------
 #p 6-31g* mp2
 -------------

 ------------------------------------------------------
 Input file generated by CHIRIPA (05-May-2021 14:51:12)
 ------------------------------------------------------
 Symbolic Z-matrix:
 Charge =  0 Multiplicity = 1

                         Standard orientation:
 ---------------------------------------------------------------------
 Center     Atomic      Atomic             Coordinates (Angstroms)
 Number     Number       Type             X           Y           Z
 ---------------------------------------------------------------------
      1          6           0        2.569408    0.971323   -0.673260
      2          6           0        2.459822    2.054387    0.400494
      3          6           0        2.052935    3.413358   -0.169975
      4          1           0        3.300748    1.286792   -1.429941
      5          1           0        1.604457    0.878792   -1.190661
      6          1           0        3.424288    2.143885    0.916644
      7          1           0        1.728799    1.736217    1.154807
      8          1           0        1.080365    3.346447   -0.668203
      9          1           0        2.785488    3.756431   -0.907720
     10          1           0        1.980566    4.172809    0.614791
     11          6           0        2.975359   -0.392908   -0.118459
     12          6           0        3.084945   -1.475973   -1.192213
     13          6           0        3.491833   -2.834944   -0.621744
     14          1           0        3.940310   -0.300377    0.398942
     15          1           0        2.244019   -0.708378    0.638222
     16          1           0        3.815969   -1.157802   -1.946526
     17          1           0        2.120479   -1.565470   -1.708363
     18          1           0        2.759279   -3.178017    0.116001
     19          1           0        4.464402   -2.768033   -0.123516
     20          1           0        3.564202   -3.594395   -1.406510
     21          6           0       -2.303511   -0.749965    0.784823
     22          6           0       -1.120732   -0.016731    1.418373
     23          6           0       -0.191756   -0.951919    2.193114
     24          1           0       -2.871870   -1.264470    1.571715
     25          1           0       -1.923774   -1.531220    0.111892
     26          1           0       -1.502587    0.763821    2.088851
     27          1           0       -0.555232    0.496245    0.629905
     28          1           0        0.216899   -1.723247    1.532315
     29          1           0       -0.735838   -1.454151    2.999549
     30          1           0        0.646833   -0.406968    2.637698
     31          6           0       -3.241256    0.171550    0.006896
     32          6           0       -4.424036   -0.561683   -0.626654
     33          6           0       -5.353012    0.373505   -1.401394
     34          1           0       -3.620993    0.952805    0.679827
     35          1           0       -2.672897    0.686055   -0.779995
     36          1           0       -4.989536   -1.074659    0.161814
     37          1           0       -4.042181   -1.342235   -1.297132
     38          1           0       -4.808930    0.875736   -2.207831
     39          1           0       -5.761666    1.144833   -0.740595
     40          1           0       -6.191601   -0.171447   -1.845980
 ---------------------------------------------------------------------

 SCF Done:  E(RHF) =  -470.732437876     A.U. after   11 cycles
 E2 =    -0.1584662290D+01 EUMP2 =    -0.47231710016536D+03

 The electronic state is 1-A.
 Alpha  occ. eigenvalues --  -11.21709 -11.21651 -11.21577 -11.21566 -11.21484
 Alpha  occ. eigenvalues --  -11.21421 -11.21361 -11.21235 -11.21190 -11.21107
 Alpha  occ. eigenvalues --  -11.21067 -11.21056  -1.08531  -1.08381  -1.03621
 Alpha  occ. eigenvalues --   -1.03507  -0.96087  -0.95940  -0.87104  -0.86959
 Alpha  occ. eigenvalues --   -0.79710  -0.79548  -0.78323  -0.78210  -0.65409
 Alpha  occ. eigenvalues --   -0.64848  -0.60995  -0.60935  -0.59442  -0.59310
 Alpha  occ. eigenvalues --   -0.57678  -0.57559  -0.55495  -0.55114  -0.52793
 Alpha  occ. eigenvalues --   -0.52644  -0.52486  -0.52372  -0.50173  -0.49788
 Alpha  occ. eigenvalues --   -0.47997  -0.47897  -0.46808  -0.46510  -0.45923
 Alpha  occ. eigenvalues --   -0.45816  -0.45653  -0.45524  -0.43852  -0.43746
 Alpha virt. eigenvalues --    0.19652   0.22930   0.23221   0.24293   0.25913
 Alpha virt. eigenvalues --    0.26232   0.27229   0.27639   0.28489   0.29473
 Alpha virt. eigenvalues --    0.30396   0.31274   0.31734   0.32013   0.32242

 Mulliken charges:
               1
     1  C   -0.298442
     2  C   -0.305221
     3  C   -0.475536
     4  H    0.149728
     5  H    0.148442
     6  H    0.151938
     7  H    0.157355
     8  H    0.154866
     9  H    0.155184
    10  H    0.160215
    11  C   -0.309048
    12  C   -0.299113
    13  C   -0.476284
    14  H    0.148819
    15  H    0.163419
    16  H    0.151816
    17  H    0.150546
    18  H    0.155069
    19  H    0.155494
    20  H    0.160123
    21  C   -0.298330
    22  C   -0.305300
    23  C   -0.481759
    24  H    0.150149
    25  H    0.149584
    26  H    0.152780
    27  H    0.156821
    28  H    0.156109
    29  H    0.157357
    30  H    0.162738
    31  C   -0.298322
    32  C   -0.299731
    33  C   -0.475773
    34  H    0.149861
    35  H    0.149272
    36  H    0.152122
    37  H    0.152017
    38  H    0.155269
    39  H    0.155306
    40  H    0.160459
 Sum of Mulliken charges =  -0.00000

 Dipole moment (field-independent basis, Debye):
    X=             -0.0428    Y=             -0.0078    Z=              0.0496  Tot=              0.0660
 Quadrupole moment (field-independent basis, Debye-Ang):
   XX=            -84.1991   YY=            -86.1560   ZZ=            -84.4367
   XY=              0.8509   XZ=             -1.0772   YZ=              0.6808

 Normal termination of Gaussian 16 at Wed May  5 23:09:43 2021.
