 Gaussian 16, Revision A.03,
 Gaussian 16:  EM64L-G16RevA.03 25-Dec-2016

 -------------
 #p 6-31g* mp2
 -------------

 ------------------------------------------------------
 Input file generated by CHIRIPA (05-May-2021 14:53:11)
 ------------------------------------------------------
 Symbolic Z-matrix:
 Charge =  0 Multiplicity = 1

                         Standard orientation:
 ---------------------------------------------------------------------
 Center     Atomic      Atomic             Coordinates (Angstroms)
 Number     Number       Type             X           Y           Z
 ---------------------------------------------------------------------
      1          6           0        4.022074    0.821059   -0.170899
      2          6           0        2.871846    1.550593    0.523897
      3          6           0        2.721139    2.998200    0.055373
      4          1           0        4.957858    1.366612    0.012472
      5          1           0        3.856576    0.840561   -1.257004
      6          1           0        3.038757    1.528518    1.608457
      7          1           0        1.938721    1.003135    0.339010
      8          1           0        2.530129    3.036524   -1.021960
      9          1           0        3.636415    3.564893    0.254699
     10          1           0        1.893131    3.500917    0.564823
     11          6           0        4.185412   -0.627191    0.286946
     12          6           0        5.335640   -1.356725   -0.407850
     13          6           0        5.486348   -2.804333    0.060673
     14          1           0        4.350911   -0.646694    1.373051
     15          1           0        3.249628   -1.172744    0.103575
     16          1           0        6.268765   -0.809267   -0.222963
     17          1           0        5.168730   -1.334650   -1.492410
     18          1           0        4.571072   -3.371025   -0.138652
     19          1           0        5.677357   -2.842656    1.138007
     20          1           0        6.314356   -3.307049   -0.448776
     21          6           0       -4.912632   -1.926741    0.119765
     22          6           0       -3.552033   -2.235830    0.020988
     23          6           0       -2.597651   -1.218364   -0.071014
     24          6           0       -3.041063    0.103220   -0.061292
     25          6           0       -4.389484    0.443202    0.035982
     26          6           0       -5.326286   -0.590567    0.126933
     27          1           0       -5.647191   -2.723466    0.190825
     28          1           0       -3.227891   -3.272624    0.015181
     29          1           0       -1.537988   -1.429387   -0.148491
     30          1           0       -4.682122    1.486164    0.039255
     31          1           0       -6.382281   -0.347563    0.203539
     32          7           0       -2.040008    1.188995   -0.158134
     33          8           0       -2.456391    2.345346   -0.147446
     34          8           0       -0.857952    0.863116   -0.242893
 ---------------------------------------------------------------------

 SCF Done:  E(RHF) =  -669.536086196     A.U. after   15 cycles
 E2 =    -0.2090893313D+01 EUMP2 =    -0.67162697950879D+03

 The electronic state is 1-A.
 Alpha  occ. eigenvalues --  -20.60956 -20.60949 -15.85999 -11.31311 -11.27875
 Alpha  occ. eigenvalues --  -11.27869 -11.27609 -11.26879 -11.26870 -11.21070
 Alpha  occ. eigenvalues --  -11.20708 -11.20666 -11.20372 -11.20113 -11.19613
 Alpha  occ. eigenvalues --   -1.60018  -1.39575  -1.19478  -1.08883  -1.07542
 Alpha  occ. eigenvalues --   -1.04874  -1.02568  -0.95727  -0.95057  -0.86275
 Alpha  occ. eigenvalues --   -0.86084  -0.82564  -0.78699  -0.77622  -0.77273
 Alpha  occ. eigenvalues --   -0.72224  -0.71333  -0.70588  -0.65137  -0.64877
 Alpha  occ. eigenvalues --   -0.64174  -0.62222  -0.59954  -0.58483  -0.56627
 Alpha  occ. eigenvalues --   -0.55378  -0.54362  -0.53206  -0.52966  -0.51744
 Alpha  occ. eigenvalues --   -0.51486  -0.49044  -0.48976  -0.48961  -0.46996
 Alpha  occ. eigenvalues --   -0.45745  -0.45027  -0.44830  -0.44632  -0.42837
 Alpha  occ. eigenvalues --   -0.37456  -0.36475
 Alpha virt. eigenvalues --    0.04913   0.11180   0.16409   0.21281   0.23655
 Alpha virt. eigenvalues --    0.25293   0.27150   0.27426   0.28003   0.28624
 Alpha virt. eigenvalues --    0.28907   0.30873   0.32145   0.32374   0.32761

 Mulliken charges:
               1
     1  C   -0.297521
     2  C   -0.308752
     3  C   -0.472124
     4  H    0.145493
     5  H    0.148591
     6  H    0.144481
     7  H    0.176527
     8  H    0.155507
     9  H    0.146009
    10  H    0.166537
    11  C   -0.296838
    12  C   -0.298887
    13  C   -0.474811
    14  H    0.147435
    15  H    0.147744
    16  H    0.151253
    17  H    0.151124
    18  H    0.152440
    19  H    0.154249
    20  H    0.158419
    21  C   -0.170597
    22  C   -0.218499
    23  C   -0.170508
    24  C    0.157433
    25  C   -0.170520
    26  C   -0.218573
    27  H    0.226069
    28  H    0.223906
    29  H    0.275217
    30  H    0.275928
    31  H    0.223878
    32  N    0.494786
    33  O   -0.458856
    34  O   -0.466541
 Sum of Mulliken charges =  -0.00000

 Dipole moment (field-independent basis, Debye):
    X=             -3.8849    Y=             -3.7806    Z=              0.3155  Tot=              5.4301
 Quadrupole moment (field-independent basis, Debye-Ang):
   XX=            -71.7543   YY=            -94.8635   ZZ=            -95.3458
   XY=              9.0501   XZ=             -0.7377   YZ=              0.8601

 Normal termination of Gaussian 16 at Thu May  6 05:41:03 2021.
