 Gaussian 16, Revision A.03,
 Gaussian 16:  EM64L-G16RevA.03 25-Dec-2016

 -------------
 #p 6-31g* mp2
 -------------

 ------------------------------------------------------
 Input file generated by CHIRIPA (05-May-2021 14:53:15)
 ------------------------------------------------------
 Symbolic Z-matrix:
 Charge =  0 Multiplicity = 1

                         Standard orientation:
 ---------------------------------------------------------------------
 Center     Atomic      Atomic             Coordinates (Angstroms)
 Number     Number       Type             X           Y           Z
 ---------------------------------------------------------------------
      1          6           0        3.970275   -0.627117    0.149091
      2          6           0        2.899937   -1.716380    0.072504
      3          6           0        3.436362   -3.099372    0.443149
      4          1           0        4.801283   -0.890879   -0.519340
      5          1           0        4.384062   -0.600303    1.166665
      6          1           0        2.487319   -1.740200   -0.944253
      7          1           0        2.071294   -1.449899    0.741050
      8          1           0        3.830502   -3.098661    1.464547
      9          1           0        4.248891   -3.390611   -0.230333
     10          1           0        2.654628   -3.862900    0.381695
     11          6           0        3.449292    0.761076   -0.218638
     12          6           0        4.519630    1.850340   -0.142051
     13          6           0        3.983206    3.233331   -0.512696
     14          1           0        3.035506    0.734262   -1.236212
     15          1           0        2.618284    1.024838    0.449793
     16          1           0        5.348273    1.583859   -0.810597
     17          1           0        4.932249    1.874159    0.874706
     18          1           0        3.170677    3.524570    0.160786
     19          1           0        3.589065    3.232620   -1.534094
     20          1           0        4.764940    3.996859   -0.451242
     21          6           0       -5.241538    0.883048    0.018000
     22          6           0       -4.927990   -0.227388   -0.772658
     23          6           0       -3.632954   -0.754098   -0.775439
     24          6           0       -2.671730   -0.142757    0.028053
     25          6           0       -2.953152    0.964619    0.826684
     26          6           0       -4.254857    1.474465    0.813745
     27          1           0       -6.250144    1.285659    0.014054
     28          1           0       -5.692240   -0.688734   -1.391631
     29          1           0       -3.362886   -1.612859   -1.377941
     30          1           0       -2.170036    1.402975    1.433306
     31          1           0       -4.495499    2.336938    1.428786
     32          7           0       -1.297203   -0.691434    0.033430
     33          8           0       -0.468325   -0.134660    0.750088
     34          8           0       -1.074754   -1.667873   -0.679115
 ---------------------------------------------------------------------

 SCF Done:  E(RHF) =  -669.536474527     A.U. after   15 cycles
 E2 =    -0.2091772306D+01 EUMP2 =    -0.67162824683294D+03

 The electronic state is 1-A.
 Alpha  occ. eigenvalues --  -20.61061 -20.61049 -15.86067 -11.31360 -11.27916
 Alpha  occ. eigenvalues --  -11.27912 -11.27646 -11.26914 -11.26904 -11.20588
 Alpha  occ. eigenvalues --  -11.20295 -11.19972 -11.19878 -11.19554 -11.19493
 Alpha  occ. eigenvalues --   -1.60095  -1.39655  -1.19521  -1.08931  -1.07006
 Alpha  occ. eigenvalues --   -1.04912  -1.02152  -0.95777  -0.94678  -0.86314
 Alpha  occ. eigenvalues --   -0.85709  -0.82615  -0.78226  -0.77670  -0.76707
 Alpha  occ. eigenvalues --   -0.72281  -0.71403  -0.70629  -0.65177  -0.64914
 Alpha  occ. eigenvalues --   -0.63651  -0.62259  -0.59564  -0.58072  -0.56237
 Alpha  occ. eigenvalues --   -0.55416  -0.53998  -0.53245  -0.53003  -0.51417
 Alpha  occ. eigenvalues --   -0.51093  -0.49144  -0.49036  -0.48648  -0.46508
 Alpha  occ. eigenvalues --   -0.45260  -0.45058  -0.44267  -0.44043  -0.42396
 Alpha  occ. eigenvalues --   -0.37498  -0.36511
 Alpha virt. eigenvalues --    0.04852   0.11145   0.16355   0.21277   0.24166
 Alpha virt. eigenvalues --    0.25604   0.27203   0.27944   0.28193   0.28971
 Alpha virt. eigenvalues --    0.29284   0.30880   0.32382   0.32661   0.33019

 Mulliken charges:
               1
     1  C   -0.298083
     2  C   -0.304973
     3  C   -0.475891
     4  H    0.142461
     5  H    0.143823
     6  H    0.153733
     7  H    0.177915
     8  H    0.148805
     9  H    0.147726
    10  H    0.160686
    11  C   -0.299027
    12  C   -0.298574
    13  C   -0.474299
    14  H    0.147217
    15  H    0.160874
    16  H    0.148720
    17  H    0.149126
    18  H    0.153485
    19  H    0.153345
    20  H    0.156086
    21  C   -0.170457
    22  C   -0.218582
    23  C   -0.170649
    24  C    0.158208
    25  C   -0.170579
    26  C   -0.218526
    27  H    0.226240
    28  H    0.224050
    29  H    0.275966
    30  H    0.275636
    31  H    0.224052
    32  N    0.489633
    33  O   -0.460033
    34  O   -0.458115
 Sum of Mulliken charges =  -0.00000

 Dipole moment (field-independent basis, Debye):
    X=             -5.3523    Y=              1.9091    Z=              0.0110  Tot=              5.6826
 Quadrupole moment (field-independent basis, Debye-Ang):
   XX=            -70.9194   YY=            -95.1577   ZZ=            -92.2973
   XY=             -3.1952   XZ=              0.7996   YZ=              3.3726

 Normal termination of Gaussian 16 at Thu May  6 13:49:21 2021.
