 Gaussian 16, Revision A.03,
 Gaussian 16:  EM64L-G16RevA.03 25-Dec-2016

 -------------
 #p 6-31g* mp2
 -------------

 ------------------------------------------------------
 Input file generated by CHIRIPA (05-May-2021 14:55:19)
 ------------------------------------------------------
 Symbolic Z-matrix:
 Charge =  0 Multiplicity = 1

                         Standard orientation:
 ---------------------------------------------------------------------
 Center     Atomic      Atomic             Coordinates (Angstroms)
 Number     Number       Type             X           Y           Z
 ---------------------------------------------------------------------
      1          6           0        3.102467    1.546794   -0.019737
      2          6           0        3.113516    0.714838   -1.144126
      3          6           0        2.485566   -0.533777   -1.109687
      4          6           0        1.853178   -0.920461    0.070928
      5          6           0        1.824892   -0.114088    1.207701
      6          6           0        2.459324    1.130409    1.150524
      7          1           0        3.592792    2.515149   -0.055322
      8          1           0        3.612213    1.035603   -2.054322
      9          1           0        2.478873   -1.197725   -1.965576
     10          1           0        1.319588   -0.461296    2.100748
     11          1           0        2.449146    1.774434    2.025267
     12          7           0        1.184964   -2.240134    0.119422
     13          8           0        0.634734   -2.557625    1.171603
     14          8           0        1.224101   -2.932016   -0.895666
     15          6           0       -3.218994    0.626559   -0.182518
     16          6           0       -3.322374   -0.883181    0.036539
     17          6           0       -4.740816   -1.414888   -0.171076
     18          1           0       -3.907958    1.138199    0.503411
     19          1           0       -3.556081    0.866257   -1.200512
     20          1           0       -2.983885   -1.120116    1.053349
     21          1           0       -2.632944   -1.391276   -0.649858
     22          1           0       -5.084805   -1.207348   -1.189507
     23          1           0       -5.437740   -0.934648    0.523378
     24          1           0       -4.791908   -2.496151   -0.009462
     25          6           0       -1.807074    1.173026    0.021404
     26          6           0       -1.703693    2.682764   -0.197654
     27          6           0       -0.285252    3.214473    0.009962
     28          1           0       -1.469987    0.933327    1.039398
     29          1           0       -1.118110    0.661386   -0.664525
     30          1           0       -2.393124    3.190859    0.488743
     31          1           0       -2.042183    2.919700   -1.214463
     32          1           0        0.411673    2.734232   -0.684492
     33          1           0        0.058737    3.006932    1.028391
     34          1           0       -0.234160    4.295736   -0.151654
 ---------------------------------------------------------------------

 SCF Done:  E(RHF) =  -669.534462596     A.U. after   15 cycles
 E2 =    -0.2094623886D+01 EUMP2 =    -0.67162908648136D+03

 The electronic state is 1-A.
 Alpha  occ. eigenvalues --  -20.60799 -20.60786 -15.85848 -11.31218 -11.27798
 Alpha  occ. eigenvalues --  -11.27757 -11.27493 -11.26812 -11.26755 -11.21683
 Alpha  occ. eigenvalues --  -11.21314 -11.21269 -11.21127 -11.21038 -11.20578
 Alpha  occ. eigenvalues --   -1.59868  -1.39421  -1.19392  -1.08786  -1.08262
 Alpha  occ. eigenvalues --   -1.04796  -1.03343  -0.95844  -0.95606  -0.86870
 Alpha  occ. eigenvalues --   -0.86179  -0.82449  -0.79441  -0.78037  -0.77495
 Alpha  occ. eigenvalues --   -0.72065  -0.71186  -0.70488  -0.65040  -0.64904
 Alpha  occ. eigenvalues --   -0.64800  -0.62145  -0.60746  -0.59234  -0.57442
 Alpha  occ. eigenvalues --   -0.55293  -0.55138  -0.53290  -0.52890  -0.52526
 Alpha  occ. eigenvalues --   -0.52158  -0.49794  -0.48825  -0.48820  -0.47680
 Alpha  occ. eigenvalues --   -0.46470  -0.45570  -0.45479  -0.44802  -0.43609
 Alpha  occ. eigenvalues --   -0.37285  -0.36333
 Alpha virt. eigenvalues --    0.05008   0.11191   0.16431   0.20986   0.22995
 Alpha virt. eigenvalues --    0.24471   0.26058   0.27025   0.27266   0.28495
 Alpha virt. eigenvalues --    0.28653   0.30360   0.31688   0.31961   0.32264

 Mulliken charges:
               1
     1  C   -0.170225
     2  C   -0.219646
     3  C   -0.172642
     4  C    0.160232
     5  C   -0.169447
     6  C   -0.212539
     7  H    0.226403
     8  H    0.223683
     9  H    0.275609
    10  H    0.274995
    11  H    0.223228
    12  N    0.488080
    13  O   -0.460007
    14  O   -0.461040
    15  C   -0.298573
    16  C   -0.300817
    17  C   -0.476072
    18  H    0.147955
    19  H    0.148364
    20  H    0.156969
    21  H    0.157097
    22  H    0.153193
    23  H    0.152521
    24  H    0.164000
    25  C   -0.297852
    26  C   -0.299279
    27  C   -0.476469
    28  H    0.146850
    29  H    0.149503
    30  H    0.151461
    31  H    0.151934
    32  H    0.158887
    33  H    0.147609
    34  H    0.156034
 Sum of Mulliken charges =  -0.00000

 Dipole moment (field-independent basis, Debye):
    X=              2.4205    Y=              4.5097    Z=             -0.1566  Tot=              5.1206
 Quadrupole moment (field-independent basis, Debye-Ang):
   XX=            -87.2593   YY=           -104.5316   ZZ=            -89.4356
   XY=              6.1768   XZ=             -1.9668   YZ=              1.4742

 Normal termination of Gaussian 16 at Thu May  6 09:15:41 2021.
