 Gaussian 16, Revision A.03,
 Gaussian 16:  EM64L-G16RevA.03 25-Dec-2016

 -------------
 #p 6-31g* mp2
 -------------

 ------------------------------------------------------
 Input file generated by CHIRIPA (05-May-2021 14:55:20)
 ------------------------------------------------------
 Symbolic Z-matrix:
 Charge =  0 Multiplicity = 1

                         Standard orientation:
 ---------------------------------------------------------------------
 Center     Atomic      Atomic             Coordinates (Angstroms)
 Number     Number       Type             X           Y           Z
 ---------------------------------------------------------------------
      1          6           0        0.981198   -2.374149    0.271709
      2          6           0        0.781103   -1.552713   -0.842619
      3          6           0        1.563471   -0.409603   -1.031691
      4          6           0        2.541369   -0.116551   -0.082415
      5          6           0        2.764838   -0.915175    1.038099
      6          6           0        1.970682   -2.053324    1.206863
      7          1           0        0.368857   -3.260218    0.410696
      8          1           0        0.013391   -1.799411   -1.570496
      9          1           0        1.429836    0.243790   -1.885293
     10          1           0        3.537877   -0.643336    1.746571
     11          1           0        2.128308   -2.689431    2.073215
     12          7           0        3.375867    1.090982   -0.271827
     13          8           0        4.230856    1.327280    0.578933
     14          8           0        3.159155    1.778285   -1.267462
     15          6           0       -3.010138    1.110992   -0.215592
     16          6           0       -2.927319    2.188354    0.866268
     17          6           0       -2.794023    3.597566    0.288215
     18          1           0       -2.113706    1.166038   -0.848303
     19          1           0       -3.867590    1.322790   -0.869283
     20          1           0       -2.071099    1.973816    1.518552
     21          1           0       -3.823963    2.130611    1.496595
     22          1           0       -3.653311    3.836357   -0.346769
     23          1           0       -1.890487    3.678670   -0.324686
     24          1           0       -2.736438    4.352065    1.078958
     25          6           0       -3.143677   -0.303140    0.346658
     26          6           0       -3.226496   -1.380501   -0.735201
     27          6           0       -3.359793   -2.789714   -0.157148
     28          1           0       -2.286225   -0.514937    1.000350
     29          1           0       -4.040110   -0.358185    0.979370
     30          1           0       -2.329852   -1.322760   -1.365528
     31          1           0       -4.082716   -1.165965   -1.387486
     32          1           0       -4.263328   -2.870818    0.455753
     33          1           0       -2.500504   -3.028505    0.477835
     34          1           0       -3.417377   -3.544213   -0.947892
 ---------------------------------------------------------------------

 SCF Done:  E(RHF) =  -669.535523282     A.U. after   15 cycles
 E2 =    -0.2092519320D+01 EUMP2 =    -0.67162804260287D+03

 The electronic state is 1-A.
 Alpha  occ. eigenvalues --  -20.60824 -20.60818 -15.85877 -11.31265 -11.27834
 Alpha  occ. eigenvalues --  -11.27828 -11.27573 -11.26849 -11.26837 -11.22436
 Alpha  occ. eigenvalues --  -11.22039 -11.21915 -11.21807 -11.21733 -11.21118
 Alpha  occ. eigenvalues --   -1.59899  -1.39452  -1.19438  -1.08938  -1.08816
 Alpha  occ. eigenvalues --   -1.04844  -1.04034  -0.96472  -0.95657  -0.87492
 Alpha  occ. eigenvalues --   -0.86238  -0.82492  -0.80128  -0.78693  -0.77535
 Alpha  occ. eigenvalues --   -0.72095  -0.71222  -0.70541  -0.65661  -0.65087
 Alpha  occ. eigenvalues --   -0.64792  -0.62230  -0.61377  -0.59879  -0.58067
 Alpha  occ. eigenvalues --   -0.55783  -0.55320  -0.53188  -0.53156  -0.52971
 Alpha  occ. eigenvalues --   -0.52864  -0.50417  -0.48861  -0.48849  -0.48418
 Alpha  occ. eigenvalues --   -0.47150  -0.46239  -0.46124  -0.44852  -0.44263
 Alpha  occ. eigenvalues --   -0.37406  -0.36431
 Alpha virt. eigenvalues --    0.04970   0.11106   0.16364   0.19313   0.22989
 Alpha virt. eigenvalues --    0.23922   0.24842   0.25923   0.27109   0.28786
 Alpha virt. eigenvalues --    0.28859   0.29403   0.31156   0.31646   0.32179

 Mulliken charges:
               1
     1  C   -0.174016
     2  C   -0.219381
     3  C   -0.172779
     4  C    0.158675
     5  C   -0.170784
     6  C   -0.218681
     7  H    0.228294
     8  H    0.228131
     9  H    0.275817
    10  H    0.275919
    11  H    0.223966
    12  N    0.488061
    13  O   -0.460131
    14  O   -0.460300
    15  C   -0.297990
    16  C   -0.300306
    17  C   -0.476629
    18  H    0.147871
    19  H    0.150158
    20  H    0.153696
    21  H    0.151686
    22  H    0.154649
    23  H    0.158767
    24  H    0.162129
    25  C   -0.299205
    26  C   -0.301049
    27  C   -0.478066
    28  H    0.151526
    29  H    0.151294
    30  H    0.143383
    31  H    0.156149
    32  H    0.160973
    33  H    0.148006
    34  H    0.160166
 Sum of Mulliken charges =  -0.00000

 Dipole moment (field-independent basis, Debye):
    X=             -2.9867    Y=             -4.1682    Z=              0.7233  Tot=              5.1785
 Quadrupole moment (field-independent basis, Debye-Ang):
   XX=           -107.7075   YY=            -95.2539   ZZ=            -91.6195
   XY=            -11.4281   XZ=              4.3337   YZ=             -0.5203

 Normal termination of Gaussian 16 at Thu May  6 14:05:44 2021.
