 Gaussian 16, Revision A.03,
 Gaussian 16:  EM64L-G16RevA.03 25-Dec-2016

 -------------
 #p 6-31g* mp2
 -------------

 ------------------------------------------------------
 Input file generated by CHIRIPA (05-May-2021 14:53:17)
 ------------------------------------------------------
 Symbolic Z-matrix:
 Charge =  0 Multiplicity = 1

                         Standard orientation:
 ---------------------------------------------------------------------
 Center     Atomic      Atomic             Coordinates (Angstroms)
 Number     Number       Type             X           Y           Z
 ---------------------------------------------------------------------
      1          6           0        4.355344   -0.040776   -0.052698
      2          6           0        4.436195    0.930180   -1.231126
      3          6           0        5.833874    1.522405   -1.414312
      4          1           0        4.657196    0.481221    0.865644
      5          1           0        5.081196   -0.851675   -0.204279
      6          1           0        3.709434    1.738264   -1.078043
      7          1           0        4.133932    0.405863   -2.146738
      8          1           0        6.567868    0.729766   -1.592014
      9          1           0        6.140958    2.069738   -0.517247
     10          1           0        5.869043    2.213640   -2.262143
     11          6           0        2.964338   -0.641129    0.143272
     12          6           0        2.883487   -1.612084    1.321701
     13          6           0        1.485808   -2.204309    1.504887
     14          1           0        2.238486    0.169770    0.294854
     15          1           0        2.662486   -1.163125   -0.775069
     16          1           0        3.185750   -1.087768    2.237313
     17          1           0        3.610247   -2.420169    1.168618
     18          1           0        1.178724   -2.751642    0.607822
     19          1           0        0.751814   -1.411671    1.682589
     20          1           0        1.450638   -2.895544    2.352718
     21          6           0       -2.012545    2.064687    1.518668
     22          6           0       -1.364730    0.826269    1.462302
     23          6           0       -1.825129   -0.177480    0.604941
     24          6           0       -2.941107    0.092515   -0.185621
     25          6           0       -3.608073    1.316165   -0.152063
     26          6           0       -3.130179    2.305258    0.712726
     27          1           0       -1.648101    2.838731    2.187571
     28          1           0       -0.496534    0.636636    2.087058
     29          1           0       -1.342610   -1.145236    0.541362
     30          1           0       -4.471145    1.475665   -0.786953
     31          1           0       -3.635273    3.266085    0.754409
     32          7           0       -3.437771   -0.962353   -1.097202
     33          8           0       -4.422967   -0.699551   -1.783470
     34          8           0       -2.832458   -2.031984   -1.108170
 ---------------------------------------------------------------------

 SCF Done:  E(RHF) =  -669.534944888     A.U. after   15 cycles
 E2 =    -0.2092098701D+01 EUMP2 =    -0.67162704358929D+03

 The electronic state is 1-A.
 Alpha  occ. eigenvalues --  -20.60717 -20.60711 -15.85769 -11.31118 -11.27714
 Alpha  occ. eigenvalues --  -11.27649 -11.27469 -11.26726 -11.26711 -11.22198
 Alpha  occ. eigenvalues --  -11.21902 -11.21873 -11.21866 -11.21752 -11.21324
 Alpha  occ. eigenvalues --   -1.59791  -1.39345  -1.19306  -1.08891  -1.08706
 Alpha  occ. eigenvalues --   -1.04722  -1.04009  -0.96478  -0.95538  -0.87500
 Alpha  occ. eigenvalues --   -0.86111  -0.82387  -0.80085  -0.78683  -0.77416
 Alpha  occ. eigenvalues --   -0.71990  -0.71114  -0.70427  -0.65545  -0.64965
 Alpha  occ. eigenvalues --   -0.64725  -0.62210  -0.61328  -0.59822  -0.58053
 Alpha  occ. eigenvalues --   -0.55784  -0.55212  -0.53161  -0.53038  -0.52947
 Alpha  occ. eigenvalues --   -0.52741  -0.50424  -0.48750  -0.48743  -0.48373
 Alpha  occ. eigenvalues --   -0.47100  -0.46219  -0.46134  -0.44753  -0.44242
 Alpha  occ. eigenvalues --   -0.37295  -0.36308
 Alpha virt. eigenvalues --    0.05109   0.11326   0.16544   0.19932   0.22666
 Alpha virt. eigenvalues --    0.23852   0.25625   0.26087   0.27195   0.28140
 Alpha virt. eigenvalues --    0.29153   0.29886   0.31260   0.31547   0.32436

 Mulliken charges:
               1
     1  C   -0.298532
     2  C   -0.299972
     3  C   -0.475968
     4  H    0.148387
     5  H    0.151576
     6  H    0.150916
     7  H    0.154541
     8  H    0.156266
     9  H    0.154449
    10  H    0.161401
    11  C   -0.299649
    12  C   -0.300188
    13  C   -0.483215
    14  H    0.144802
    15  H    0.154879
    16  H    0.150360
    17  H    0.156672
    18  H    0.165631
    19  H    0.143396
    20  H    0.165580
    21  C   -0.170454
    22  C   -0.224096
    23  C   -0.174177
    24  C    0.158168
    25  C   -0.170345
    26  C   -0.219125
    27  H    0.225321
    28  H    0.225600
    29  H    0.282159
    30  H    0.275396
    31  H    0.223228
    32  N    0.488427
    33  O   -0.460742
    34  O   -0.460690
 Sum of Mulliken charges =  -0.00000

 Dipole moment (field-independent basis, Debye):
    X=              1.9042    Y=              3.6122    Z=              3.1370  Tot=              5.1492
 Quadrupole moment (field-independent basis, Debye-Ang):
   XX=           -103.2181   YY=            -91.9188   ZZ=            -95.9254
   XY=            -14.4028   XZ=             -8.5673   YZ=             -0.8336

 Normal termination of Gaussian 16 at Thu May  6 04:24:23 2021.
