 Gaussian 16, Revision A.03,
 Gaussian 16:  EM64L-G16RevA.03 25-Dec-2016

 -------------
 #p 6-31g* mp2
 -------------

 ------------------------------------------------------
 Input file generated by CHIRIPA (05-May-2021 14:51:09)
 ------------------------------------------------------
 Symbolic Z-matrix:
 Charge =  0 Multiplicity = 1

                         Standard orientation:
 ---------------------------------------------------------------------
 Center     Atomic      Atomic             Coordinates (Angstroms)
 Number     Number       Type             X           Y           Z
 ---------------------------------------------------------------------
      1          6           0       -2.745362   -0.324201    0.556881
      2          6           0       -1.953483   -1.565890    0.968125
      3          6           0       -0.639405   -1.223137    1.670629
      4          1           0       -2.125144    0.295941   -0.104707
      5          1           0       -2.952976    0.282006    1.449520
      6          1           0       -1.748620   -2.170271    0.075169
      7          1           0       -2.575728   -2.183243    1.628657
      8          1           0       -0.828205   -0.639774    2.577626
      9          1           0        0.003603   -0.626729    1.015312
     10          1           0       -0.089456   -2.125377    1.955899
     11          6           0       -4.061540   -0.650564   -0.146604
     12          6           0       -4.853419    0.591125   -0.557848
     13          6           0       -6.167497    0.248372   -1.260352
     14          1           0       -3.853925   -1.256770   -1.039243
     15          1           0       -4.681758   -1.270706    0.514984
     16          1           0       -4.231174    1.208478   -1.218380
     17          1           0       -5.058282    1.195507    0.335108
     18          1           0       -6.810505   -0.348035   -0.605035
     19          1           0       -5.978697   -0.334990   -2.167349
     20          1           0       -6.717446    1.150612   -1.545622
     21          6           0        3.437589   -0.263483   -0.341036
     22          6           0        4.860065   -0.773362   -0.574644
     23          6           0        4.911988   -2.277325   -0.845182
     24          1           0        2.995151   -0.805350    0.506061
     25          1           0        2.821702   -0.500406   -1.219640
     26          1           0        5.473431   -0.534319    0.303568
     27          1           0        5.299235   -0.230084   -1.421162
     28          1           0        4.323624   -2.529518   -1.733342
     29          1           0        4.498809   -2.835483    0.001190
     30          1           0        5.938210   -2.620506   -1.009364
     31          6           0        3.369313    1.238247   -0.069241
     32          6           0        1.946837    1.748126    0.164368
     33          6           0        1.894913    3.252090    0.434904
     34          1           0        3.985199    1.475170    0.809363
     35          1           0        3.811751    1.780114   -0.916338
     36          1           0        1.507666    1.204848    1.010886
     37          1           0        1.333471    1.509084   -0.713846
     38          1           0        2.308093    3.810248   -0.411466
     39          1           0        2.483278    3.504283    1.323064
     40          1           0        0.868692    3.595271    0.599087
 ---------------------------------------------------------------------

 SCF Done:  E(RHF) =  -470.733171377     A.U. after   11 cycles
 E2 =    -0.1582911765D+01 EUMP2 =    -0.47231608314126D+03

 The electronic state is 1-A.
 Alpha  occ. eigenvalues --  -11.21600 -11.21593 -11.21591 -11.21570 -11.21403
 Alpha  occ. eigenvalues --  -11.21386 -11.21343 -11.21326 -11.21068 -11.21068
 Alpha  occ. eigenvalues --  -11.21065 -11.20991  -1.08439  -1.08404  -1.03543
 Alpha  occ. eigenvalues --   -1.03495  -0.95976  -0.95958  -0.87011  -0.86962
 Alpha  occ. eigenvalues --   -0.79670  -0.79516  -0.78298  -0.78170  -0.65087
 Alpha  occ. eigenvalues --   -0.65019  -0.60972  -0.60871  -0.59384  -0.59294
 Alpha  occ. eigenvalues --   -0.57617  -0.57540  -0.55263  -0.55252  -0.52695
 Alpha  occ. eigenvalues --   -0.52646  -0.52451  -0.52338  -0.49968  -0.49881
 Alpha  occ. eigenvalues --   -0.48103  -0.47745  -0.46709  -0.46561  -0.45913
 Alpha  occ. eigenvalues --   -0.45741  -0.45693  -0.45416  -0.43781  -0.43763
 Alpha virt. eigenvalues --    0.21919   0.23050   0.23799   0.24513   0.25647
 Alpha virt. eigenvalues --    0.26202   0.27081   0.27583   0.28075   0.29342
 Alpha virt. eigenvalues --    0.31030   0.31230   0.31719   0.31871   0.31955

 Mulliken charges:
               1
     1  C   -0.298524
     2  C   -0.299208
     3  C   -0.484007
     4  H    0.149986
     5  H    0.149304
     6  H    0.151855
     7  H    0.151618
     8  H    0.154050
     9  H    0.165079
    10  H    0.159451
    11  C   -0.298274
    12  C   -0.299623
    13  C   -0.475688
    14  H    0.149447
    15  H    0.149640
    16  H    0.151851
    17  H    0.151891
    18  H    0.155181
    19  H    0.155145
    20  H    0.160208
    21  C   -0.300247
    22  C   -0.299618
    23  C   -0.475680
    24  H    0.152095
    25  H    0.148858
    26  H    0.152015
    27  H    0.151908
    28  H    0.155051
    29  H    0.155341
    30  H    0.160225
    31  C   -0.297793
    32  C   -0.305799
    33  C   -0.475246
    34  H    0.149580
    35  H    0.149486
    36  H    0.159179
    37  H    0.150515
    38  H    0.154977
    39  H    0.155251
    40  H    0.160521
 Sum of Mulliken charges =  -0.00000

 Dipole moment (field-independent basis, Debye):
    X=              0.0220    Y=              0.0106    Z=              0.0065  Tot=              0.0253
 Quadrupole moment (field-independent basis, Debye-Ang):
   XX=            -85.5848   YY=            -85.9785   ZZ=            -83.2942
   XY=              0.0970   XZ=             -0.7461   YZ=             -0.4090

 Normal termination of Gaussian 16 at Wed May  5 18:10:28 2021.
