 Gaussian 16, Revision A.03,
 Gaussian 16:  EM64L-G16RevA.03 25-Dec-2016

 -------------
 #p 6-31g* mp2
 -------------

 ------------------------------------------------------
 Input file generated by CHIRIPA (05-May-2021 14:53:17)
 ------------------------------------------------------
 Symbolic Z-matrix:
 Charge =  0 Multiplicity = 1

                         Standard orientation:
 ---------------------------------------------------------------------
 Center     Atomic      Atomic             Coordinates (Angstroms)
 Number     Number       Type             X           Y           Z
 ---------------------------------------------------------------------
      1          6           0       -2.889685    0.679125   -0.396188
      2          6           0       -2.755417    1.984969    0.387859
      3          6           0       -1.716367    2.931603   -0.213851
      4          1           0       -1.912535    0.178291   -0.432090
      5          1           0       -3.161001    0.909929   -1.435665
      6          1           0       -2.485789    1.751704    1.425888
      7          1           0       -3.733042    2.482659    0.422062
      8          1           0       -1.983737    3.193302   -1.242748
      9          1           0       -0.729397    2.458194   -0.233219
     10          1           0       -1.636673    3.858756    0.362252
     11          6           0       -3.924642   -0.277622    0.193073
     12          6           0       -4.058910   -1.583465   -0.590973
     13          6           0       -5.097959   -2.530099    0.010737
     14          1           0       -3.653326   -0.508426    1.232550
     15          1           0       -4.901791    0.223212    0.228976
     16          1           0       -3.081285   -2.081155   -0.625177
     17          1           0       -4.328538   -1.350201   -1.629002
     18          1           0       -6.084929   -2.056691    0.030104
     19          1           0       -4.830590   -2.791798    1.039633
     20          1           0       -5.177654   -3.457253   -0.565367
     21          6           0        2.031802    2.285833    0.127576
     22          6           0        2.726711    1.763671   -0.968311
     23          6           0        3.080964    0.411765   -1.005763
     24          6           0        2.722756   -0.392986    0.074678
     25          6           0        2.030434    0.097624    1.180699
     26          6           0        1.686490    1.452612    1.196698
     27          1           0        1.760614    3.337224    0.148338
     28          1           0        2.996195    2.408412   -1.800016
     29          1           0        3.618969   -0.018625   -1.841667
     30          1           0        1.775603   -0.569848    1.994923
     31          1           0        1.146817    1.855390    2.049089
     32          7           0        3.092332   -1.825820    0.046385
     33          8           0        2.765097   -2.513900    1.010802
     34          8           0        3.702241   -2.233665   -0.939673
 ---------------------------------------------------------------------

 SCF Done:  E(RHF) =  -669.534962581     A.U. after   15 cycles
 E2 =    -0.2092505403D+01 EUMP2 =    -0.67162746798428D+03

 The electronic state is 1-A.
 Alpha  occ. eigenvalues --  -20.60828 -20.60823 -15.85883 -11.31267 -11.27846
 Alpha  occ. eigenvalues --  -11.27840 -11.27559 -11.26852 -11.26838 -11.22081
 Alpha  occ. eigenvalues --  -11.21676 -11.21660 -11.21610 -11.21552 -11.21086
 Alpha  occ. eigenvalues --   -1.59904  -1.39456  -1.19454  -1.08852  -1.08685
 Alpha  occ. eigenvalues --   -1.04854  -1.03809  -0.96278  -0.95665  -0.87299
 Alpha  occ. eigenvalues --   -0.86245  -0.82496  -0.79889  -0.78476  -0.77539
 Alpha  occ. eigenvalues --   -0.72100  -0.71228  -0.70553  -0.65341  -0.65096
 Alpha  occ. eigenvalues --   -0.64839  -0.62197  -0.61216  -0.59658  -0.57874
 Alpha  occ. eigenvalues --   -0.55652  -0.55304  -0.53281  -0.52969  -0.52935
 Alpha  occ. eigenvalues --   -0.52605  -0.50190  -0.48860  -0.48854  -0.48192
 Alpha  occ. eigenvalues --   -0.46912  -0.46024  -0.45931  -0.44858  -0.44061
 Alpha  occ. eigenvalues --   -0.37341  -0.36452
 Alpha virt. eigenvalues --    0.04967   0.11134   0.16409   0.20888   0.22730
 Alpha virt. eigenvalues --    0.24126   0.26320   0.27084   0.27116   0.27611
 Alpha virt. eigenvalues --    0.28870   0.30371   0.31283   0.31700   0.32125

 Mulliken charges:
               1
     1  C   -0.299388
     2  C   -0.297317
     3  C   -0.487887
     4  H    0.152202
     5  H    0.150146
     6  H    0.147672
     7  H    0.153496
     8  H    0.156661
     9  H    0.162235
    10  H    0.154046
    11  C   -0.298383
    12  C   -0.300449
    13  C   -0.475897
    14  H    0.148990
    15  H    0.149508
    16  H    0.154928
    17  H    0.151892
    18  H    0.154429
    19  H    0.155798
    20  H    0.161934
    21  C   -0.172013
    22  C   -0.218982
    23  C   -0.170695
    24  C    0.158357
    25  C   -0.171608
    26  C   -0.218419
    27  H    0.229611
    28  H    0.224323
    29  H    0.276061
    30  H    0.275822
    31  H    0.225337
    32  N    0.488085
    33  O   -0.460405
    34  O   -0.460088
 Sum of Mulliken charges =  -0.00000

 Dipole moment (field-independent basis, Debye):
    X=             -1.2540    Y=              4.9695    Z=              0.0555  Tot=              5.1256
 Quadrupole moment (field-independent basis, Debye-Ang):
   XX=           -101.4537   YY=            -99.9568   ZZ=            -90.6652
   XY=             14.2092   XZ=             -1.3451   YZ=             -0.3840

 Normal termination of Gaussian 16 at Thu May  6 01:13:36 2021.
