 Gaussian 16, Revision A.03,
 Gaussian 16:  EM64L-G16RevA.03 25-Dec-2016

 -------------
 #p 6-31g* mp2
 -------------

 ------------------------------------------------------
 Input file generated by CHIRIPA (05-May-2021 14:51:14)
 ------------------------------------------------------
 Symbolic Z-matrix:
 Charge =  0 Multiplicity = 1

                         Standard orientation:
 ---------------------------------------------------------------------
 Center     Atomic      Atomic             Coordinates (Angstroms)
 Number     Number       Type             X           Y           Z
 ---------------------------------------------------------------------
      1          6           0       -2.798492   -0.349828   -0.082339
      2          6           0       -2.688801   -1.806410   -0.534357
      3          6           0       -1.254664   -2.334254   -0.485109
      4          1           0       -2.154654    0.273984   -0.717379
      5          1           0       -2.408859   -0.260495    0.941185
      6          1           0       -3.079803   -1.893222   -1.556217
      7          1           0       -3.333123   -2.426800    0.101711
      8          1           0       -0.857721   -2.276625    0.533575
      9          1           0       -0.602962   -1.740016   -1.133773
     10          1           0       -1.199276   -3.377201   -0.812302
     11          6           0       -4.226096    0.192174   -0.126032
     12          6           0       -4.335787    1.648757    0.325986
     13          6           0       -5.769924    2.176601    0.276738
     14          1           0       -4.615729    0.102841   -1.149555
     15          1           0       -4.869934   -0.431637    0.509009
     16          1           0       -3.691465    2.269146   -0.310082
     17          1           0       -3.944785    1.735568    1.347846
     18          1           0       -6.421626    1.582362    0.925402
     19          1           0       -6.166867    2.118972   -0.741945
     20          1           0       -5.825312    3.219547    0.603931
     21          6           0        3.331223   -0.615011   -0.158938
     22          6           0        2.635212   -1.494892    0.879986
     23          6           0        2.279270   -2.879827    0.338641
     24          1           0        2.679685   -0.510594   -1.037311
     25          1           0        4.243683   -1.120129   -0.504866
     26          1           0        1.725065   -0.987641    1.224869
     27          1           0        3.288403   -1.597070    1.756068
     28          1           0        3.180298   -3.409022    0.011987
     29          1           0        1.608078   -2.796131   -0.522230
     30          1           0        1.782633   -3.492141    1.097774
     31          6           0        3.693365    0.772665    0.367308
     32          6           0        4.389376    1.652546   -0.671616
     33          6           0        4.745318    3.037481   -0.130270
     34          1           0        2.780905    1.277783    0.713237
     35          1           0        4.344903    0.668248    1.245682
     36          1           0        3.736186    1.754724   -1.547697
     37          1           0        5.299523    1.145294   -1.016498
     38          1           0        5.416510    2.953784    0.730600
     39          1           0        3.844290    3.566676    0.196383
     40          1           0        5.241956    3.649794   -0.889403
 ---------------------------------------------------------------------

 SCF Done:  E(RHF) =  -470.732712072     A.U. after   11 cycles
 E2 =    -0.1583055535D+01 EUMP2 =    -0.47231576760663D+03

 The electronic state is 1-A.
 Alpha  occ. eigenvalues --  -11.21628 -11.21612 -11.21576 -11.21508 -11.21438
 Alpha  occ. eigenvalues --  -11.21378 -11.21359 -11.21299 -11.21093 -11.21091
 Alpha  occ. eigenvalues --  -11.21052 -11.20866  -1.08462  -1.08372  -1.03581
 Alpha  occ. eigenvalues --   -1.03439  -0.96070  -0.95852  -0.87115  -0.86844
 Alpha  occ. eigenvalues --   -0.79676  -0.79478  -0.78276  -0.78189  -0.65090
 Alpha  occ. eigenvalues --   -0.65009  -0.60962  -0.60882  -0.59380  -0.59279
 Alpha  occ. eigenvalues --   -0.57620  -0.57525  -0.55300  -0.55237  -0.52768
 Alpha  occ. eigenvalues --   -0.52565  -0.52432  -0.52276  -0.49954  -0.49820
 Alpha  occ. eigenvalues --   -0.47983  -0.47768  -0.46688  -0.46522  -0.45844
 Alpha  occ. eigenvalues --   -0.45750  -0.45678  -0.45633  -0.43810  -0.43704
 Alpha virt. eigenvalues --    0.21378   0.23025   0.23620   0.24920   0.25895
 Alpha virt. eigenvalues --    0.26478   0.27312   0.27515   0.27793   0.29355
 Alpha virt. eigenvalues --    0.29872   0.31348   0.31526   0.31948   0.32337

 Mulliken charges:
               1
     1  C   -0.298313
     2  C   -0.301099
     3  C   -0.476969
     4  H    0.149172
     5  H    0.149247
     6  H    0.151822
     7  H    0.152031
     8  H    0.159452
     9  H    0.153683
    10  H    0.161047
    11  C   -0.298240
    12  C   -0.299651
    13  C   -0.475723
    14  H    0.149629
    15  H    0.149799
    16  H    0.151816
    17  H    0.151928
    18  H    0.155255
    19  H    0.155228
    20  H    0.160322
    21  C   -0.298295
    22  C   -0.301049
    23  C   -0.479205
    24  H    0.149022
    25  H    0.149485
    26  H    0.152495
    27  H    0.151334
    28  H    0.153511
    29  H    0.164069
    30  H    0.158649
    31  C   -0.298314
    32  C   -0.299561
    33  C   -0.475679
    34  H    0.149567
    35  H    0.149572
    36  H    0.151660
    37  H    0.151887
    38  H    0.155159
    39  H    0.155140
    40  H    0.160116
 Sum of Mulliken charges =  -0.00000

 Dipole moment (field-independent basis, Debye):
    X=             -0.0402    Y=             -0.0206    Z=             -0.0070  Tot=              0.0457
 Quadrupole moment (field-independent basis, Debye-Ang):
   XX=            -85.1640   YY=            -85.9191   ZZ=            -83.8354
   XY=             -0.0225   XZ=              0.0373   YZ=             -0.6457

 Normal termination of Gaussian 16 at Wed May  5 18:25:45 2021.
