 Gaussian 16, Revision A.03,
 Gaussian 16:  EM64L-G16RevA.03 25-Dec-2016

 -------------
 #p 6-31g* mp2
 -------------

 ------------------------------------------------------
 Input file generated by CHIRIPA (05-May-2021 14:53:15)
 ------------------------------------------------------
 Symbolic Z-matrix:
 Charge =  0 Multiplicity = 1

                         Standard orientation:
 ---------------------------------------------------------------------
 Center     Atomic      Atomic             Coordinates (Angstroms)
 Number     Number       Type             X           Y           Z
 ---------------------------------------------------------------------
      1          6           0       -3.465957   -0.344024    0.119547
      2          6           0       -3.132599   -1.725143    0.684674
      3          6           0       -1.655063   -2.086503    0.529436
      4          1           0       -3.189150   -0.313132   -0.943170
      5          1           0       -2.847870    0.410480    0.625599
      6          1           0       -3.752123   -2.476658    0.178679
      7          1           0       -3.410409   -1.752813    1.746122
      8          1           0       -1.023783   -1.358708    1.049436
      9          1           0       -1.367439   -2.086666   -0.526913
     10          1           0       -1.438899   -3.077726    0.940057
     11          6           0       -4.939339    0.031519    0.267330
     12          6           0       -5.272696    1.412638   -0.297796
     13          6           0       -6.750233    1.773998   -0.142558
     14          1           0       -5.557426   -0.722985   -0.238721
     15          1           0       -5.216145    0.000627    1.330048
     16          1           0       -4.994887    1.440307   -1.359245
     17          1           0       -4.653172    2.164153    0.208199
     18          1           0       -7.037857    1.774161    0.913791
     19          1           0       -7.381513    1.046202   -0.662558
     20          1           0       -6.966397    2.765221   -0.553180
     21          6           0        5.153031    1.663207    0.552440
     22          6           0        3.912812    2.191934    0.179850
     23          6           0        2.869682    1.347491   -0.211742
     24          6           0        3.102562   -0.026918   -0.219142
     25          6           0        4.326958   -0.584058    0.146561
     26          6           0        5.355789    0.279338    0.534638
     27          1           0        5.957805    2.326552    0.855273
     28          1           0        3.752492    3.266261    0.192719
     29          1           0        1.899606    1.730030   -0.505057
     30          1           0        4.456690   -1.659261    0.123659
     31          1           0        6.317918   -0.134086    0.823486
     32          7           0        2.005816   -0.930925   -0.631843
     33          8           0        2.236380   -2.138184   -0.629856
     34          8           0        0.936390   -0.415109   -0.949488
 ---------------------------------------------------------------------

 SCF Done:  E(RHF) =  -669.535516589     A.U. after   15 cycles
 E2 =    -0.2091549796D+01 EUMP2 =    -0.67162706638509D+03

 The electronic state is 1-A.
 Alpha  occ. eigenvalues --  -20.60892 -20.60880 -15.85911 -11.31268 -11.27833
 Alpha  occ. eigenvalues --  -11.27829 -11.27574 -11.26846 -11.26836 -11.20996
 Alpha  occ. eigenvalues --  -11.20595 -11.20590 -11.20339 -11.20277 -11.19184
 Alpha  occ. eigenvalues --   -1.59945  -1.39502  -1.19438  -1.08837  -1.07491
 Alpha  occ. eigenvalues --   -1.04837  -1.02504  -0.95679  -0.94913  -0.86237
 Alpha  occ. eigenvalues --   -0.85921  -0.82508  -0.78614  -0.77557  -0.77238
 Alpha  occ. eigenvalues --   -0.72134  -0.71260  -0.70545  -0.65092  -0.64841
 Alpha  occ. eigenvalues --   -0.64139  -0.62184  -0.59914  -0.58384  -0.56524
 Alpha  occ. eigenvalues --   -0.55341  -0.54204  -0.53171  -0.52930  -0.51622
 Alpha  occ. eigenvalues --   -0.51367  -0.49026  -0.48888  -0.48740  -0.46834
 Alpha  occ. eigenvalues --   -0.45675  -0.45014  -0.44677  -0.44576  -0.42770
 Alpha  occ. eigenvalues --   -0.37416  -0.36440
 Alpha virt. eigenvalues --    0.04963   0.11214   0.16452   0.21348   0.23708
 Alpha virt. eigenvalues --    0.25381   0.27259   0.27549   0.28161   0.28420
 Alpha virt. eigenvalues --    0.29205   0.30925   0.32369   0.32498   0.32619

 Mulliken charges:
               1
     1  C   -0.295747
     2  C   -0.301627
     3  C   -0.470322
     4  H    0.153480
     5  H    0.146850
     6  H    0.147604
     7  H    0.144704
     8  H    0.150560
     9  H    0.175229
    10  H    0.152714
    11  C   -0.297515
    12  C   -0.298594
    13  C   -0.475062
    14  H    0.148178
    15  H    0.146881
    16  H    0.151935
    17  H    0.149473
    18  H    0.153865
    19  H    0.154759
    20  H    0.157783
    21  C   -0.170694
    22  C   -0.218539
    23  C   -0.171107
    24  C    0.158453
    25  C   -0.170828
    26  C   -0.218566
    27  H    0.225875
    28  H    0.223722
    29  H    0.275772
    30  H    0.275878
    31  H    0.223731
    32  N    0.488136
    33  O   -0.459209
    34  O   -0.457775
 Sum of Mulliken charges =  -0.00000

 Dipole moment (field-independent basis, Debye):
    X=              4.2048    Y=              3.1595    Z=              1.3063  Tot=              5.4194
 Quadrupole moment (field-independent basis, Debye-Ang):
   XX=            -71.7420   YY=            -92.2329   ZZ=            -95.4891
   XY=              7.7802   XZ=              4.9098   YZ=             -0.7254

 Normal termination of Gaussian 16 at Thu May  6 09:01:55 2021.
