 Gaussian 16, Revision A.03,
 Gaussian 16:  EM64L-G16RevA.03 25-Dec-2016

 -------------
 #p 6-31g* mp2
 -------------

 ------------------------------------------------------
 Input file generated by CHIRIPA (05-May-2021 14:55:20)
 ------------------------------------------------------
 Symbolic Z-matrix:
 Charge =  0 Multiplicity = 1

                         Standard orientation:
 ---------------------------------------------------------------------
 Center     Atomic      Atomic             Coordinates (Angstroms)
 Number     Number       Type             X           Y           Z
 ---------------------------------------------------------------------
      1          6           0       -2.837329    1.679011    1.418209
      2          6           0       -3.239630    1.575036    0.082595
      3          6           0       -2.858189    0.474184   -0.690177
      4          6           0       -2.070665   -0.508671   -0.092606
      5          6           0       -1.653866   -0.433659    1.235529
      6          6           0       -2.047124    0.676100    1.989406
      7          1           0       -3.138232    2.537639    2.011178
      8          1           0       -3.853335    2.352396   -0.363637
      9          1           0       -3.155541    0.368471   -1.726432
     10          1           0       -1.042313   -1.224524    1.652607
     11          1           0       -1.733214    0.754205    3.026423
     12          7           0       -1.660596   -1.678808   -0.900703
     13          8           0       -0.966602   -2.531236   -0.350815
     14          8           0       -2.040941   -1.721378   -2.068677
     15          6           0        2.997228   -0.095499    0.463759
     16          6           0        2.840372   -1.552928    0.028693
     17          6           0        3.365606   -2.540761    1.070859
     18          1           0        4.058129    0.108918    0.662873
     19          1           0        2.466156    0.055456    1.413795
     20          1           0        3.370422   -1.700754   -0.920944
     21          1           0        1.779745   -1.753847   -0.169594
     22          1           0        2.829969   -2.422278    2.018306
     23          1           0        4.429684   -2.368883    1.262687
     24          1           0        3.243629   -3.576681    0.739419
     25          6           0        2.476691    0.903994   -0.567639
     26          6           0        2.633547    2.361423   -0.132574
     27          6           0        2.108313    3.349256   -1.174740
     28          1           0        3.007763    0.753039   -1.517676
     29          1           0        1.415790    0.699578   -0.766755
     30          1           0        3.694174    2.562342    0.065714
     31          1           0        2.103497    2.509249    0.817063
     32          1           0        1.044235    3.177378   -1.366568
     33          1           0        2.643951    3.230773   -2.122186
     34          1           0        2.230290    4.385176   -0.843301
 ---------------------------------------------------------------------

 SCF Done:  E(RHF) =  -669.536465347     A.U. after   15 cycles
 E2 =    -0.2092354366D+01 EUMP2 =    -0.67162881971321D+03

 The electronic state is 1-A.
 Alpha  occ. eigenvalues --  -20.61014 -20.61006 -15.86028 -11.31357 -11.27915
 Alpha  occ. eigenvalues --  -11.27904 -11.27636 -11.26910 -11.26899 -11.21553
 Alpha  occ. eigenvalues --  -11.21174 -11.21084 -11.21065 -11.20842 -11.20516
 Alpha  occ. eigenvalues --   -1.60063  -1.39620  -1.19515  -1.08917  -1.08138
 Alpha  occ. eigenvalues --   -1.04907  -1.03200  -0.95760  -0.95688  -0.86710
 Alpha  occ. eigenvalues --   -0.86307  -0.82592  -0.79280  -0.77922  -0.77641
 Alpha  occ. eigenvalues --   -0.72250  -0.71373  -0.70615  -0.65171  -0.64911
 Alpha  occ. eigenvalues --   -0.64768  -0.62253  -0.60597  -0.59065  -0.57270
 Alpha  occ. eigenvalues --   -0.55406  -0.55001  -0.53235  -0.52995  -0.52374
 Alpha  occ. eigenvalues --   -0.52110  -0.49660  -0.49022  -0.49008  -0.47600
 Alpha  occ. eigenvalues --   -0.46353  -0.45597  -0.45451  -0.44716  -0.43469
 Alpha  occ. eigenvalues --   -0.37484  -0.36504
 Alpha virt. eigenvalues --    0.04836   0.11115   0.16300   0.21025   0.22867
 Alpha virt. eigenvalues --    0.24371   0.26491   0.27295   0.27726   0.28143
 Alpha virt. eigenvalues --    0.28467   0.30700   0.31566   0.31998   0.32314

 Mulliken charges:
               1
     1  C   -0.170380
     2  C   -0.218586
     3  C   -0.171174
     4  C    0.158547
     5  C   -0.171541
     6  C   -0.218581
     7  H    0.226427
     8  H    0.224254
     9  H    0.276203
    10  H    0.276413
    11  H    0.224231
    12  N    0.487848
    13  O   -0.458766
    14  O   -0.457786
    15  C   -0.296952
    16  C   -0.310540
    17  C   -0.473415
    18  H    0.147918
    19  H    0.141631
    20  H    0.151668
    21  H    0.171342
    22  H    0.148792
    23  H    0.151218
    24  H    0.165032
    25  C   -0.297403
    26  C   -0.298357
    27  C   -0.475469
    28  H    0.151619
    29  H    0.147556
    30  H    0.151942
    31  H    0.147811
    32  H    0.153803
    33  H    0.156774
    34  H    0.157921
 Sum of Mulliken charges =  -0.00000

 Dipole moment (field-independent basis, Debye):
    X=             -1.6302    Y=              4.0182    Z=              2.7422  Tot=              5.1306
 Quadrupole moment (field-independent basis, Debye-Ang):
   XX=            -87.6408   YY=            -99.5589   ZZ=            -92.7069
   XY=             -8.8730   XZ=             -4.5239   YZ=             -2.7626

 Normal termination of Gaussian 16 at Thu May  6 12:26:31 2021.
