 Gaussian 16, Revision A.03,
 Gaussian 16:  EM64L-G16RevA.03 25-Dec-2016

 -------------
 #p 6-31g* mp2
 -------------

 ------------------------------------------------------
 Input file generated by CHIRIPA (05-May-2021 14:55:23)
 ------------------------------------------------------
 Symbolic Z-matrix:
 Charge =  0 Multiplicity = 1

                         Standard orientation:
 ---------------------------------------------------------------------
 Center     Atomic      Atomic             Coordinates (Angstroms)
 Number     Number       Type             X           Y           Z
 ---------------------------------------------------------------------
      1          6           0       -0.074176   -2.121985   -0.169279
      2          6           0       -0.444669   -1.632591    1.087602
      3          6           0       -1.578091   -0.826565    1.229813
      4          6           0       -2.321392   -0.528343    0.088823
      5          6           0       -1.978037   -1.000737   -1.176974
      6          6           0       -0.840691   -1.805054   -1.295570
      7          1           0        0.807818   -2.747461   -0.270580
      8          1           0        0.148730   -1.877101    1.964036
      9          1           0       -1.887660   -0.434280    2.190905
     10          1           0       -2.589446   -0.739900   -2.032287
     11          1           0       -0.555345   -2.183718   -2.272932
     12          7           0       -3.523372    0.324056    0.226876
     13          8           0       -4.161438    0.572354   -0.793838
     14          8           0       -3.804659    0.727728    1.353182
     15          6           0        3.220822    0.340272   -0.338211
     16          6           0        4.414486    0.146286    0.597482
     17          6           0        5.411981   -0.888745    0.076418
     18          1           0        2.712135   -0.623404   -0.477890
     19          1           0        3.585870    0.647386   -1.328068
     20          1           0        4.047209   -0.159030    1.585666
     21          1           0        4.920278    1.110574    0.735102
     22          1           0        5.806266   -0.586674   -0.899232
     23          1           0        4.928236   -1.863491   -0.043838
     24          1           0        6.257291   -1.011625    0.760678
     25          6           0        2.214803    1.371931    0.169070
     26          6           0        1.021140    1.565916   -0.766623
     27          6           0        0.023644    2.600948   -0.245559
     28          1           0        1.849755    1.064817    1.158926
     29          1           0        2.723491    2.335607    0.308750
     30          1           0        0.515348    0.601629   -0.904244
     31          1           0        1.388416    1.871233   -1.754806
     32          1           0        0.507389    3.575694   -0.125304
     33          1           0       -0.370640    2.298876    0.730091
     34          1           0       -0.821666    2.723828   -0.929819
 ---------------------------------------------------------------------

 SCF Done:  E(RHF) =  -669.534148268     A.U. after   15 cycles
 E2 =    -0.2096653969D+01 EUMP2 =    -0.67163080223699D+03

 The electronic state is 1-A.
 Alpha  occ. eigenvalues --  -20.60883 -20.60878 -15.85936 -11.31375 -11.27951
 Alpha  occ. eigenvalues --  -11.27918 -11.27661 -11.26980 -11.26924 -11.22107
 Alpha  occ. eigenvalues --  -11.21840 -11.21639 -11.21586 -11.21424 -11.20932
 Alpha  occ. eigenvalues --   -1.59952  -1.39505  -1.19568  -1.08954  -1.08708
 Alpha  occ. eigenvalues --   -1.04963  -1.03762  -0.96238  -0.95750  -0.87244
 Alpha  occ. eigenvalues --   -0.86346  -0.82579  -0.79860  -0.78533  -0.77616
 Alpha  occ. eigenvalues --   -0.72152  -0.71277  -0.70648  -0.65429  -0.65194
 Alpha  occ. eigenvalues --   -0.64939  -0.62293  -0.61253  -0.59629  -0.57847
 Alpha  occ. eigenvalues --   -0.55633  -0.55401  -0.53306  -0.53035  -0.52856
 Alpha  occ. eigenvalues --   -0.52634  -0.50190  -0.48918  -0.48905  -0.48138
 Alpha  occ. eigenvalues --   -0.46908  -0.46033  -0.45935  -0.44889  -0.44023
 Alpha  occ. eigenvalues --   -0.37450  -0.36519
 Alpha virt. eigenvalues --    0.04869   0.10995   0.16259   0.20382   0.22970
 Alpha virt. eigenvalues --    0.23845   0.26047   0.26297   0.27338   0.27760
 Alpha virt. eigenvalues --    0.29267   0.30551   0.31110   0.31596   0.31812

 Mulliken charges:
               1
     1  C   -0.170632
     2  C   -0.216365
     3  C   -0.172448
     4  C    0.164800
     5  C   -0.171518
     6  C   -0.221220
     7  H    0.226788
     8  H    0.224721
     9  H    0.276558
    10  H    0.276626
    11  H    0.225181
    12  N    0.488136
    13  O   -0.460023
    14  O   -0.459779
    15  C   -0.298508
    16  C   -0.299422
    17  C   -0.474706
    18  H    0.140558
    19  H    0.150656
    20  H    0.148614
    21  H    0.155119
    22  H    0.156943
    23  H    0.149270
    24  H    0.161971
    25  C   -0.295474
    26  C   -0.309959
    27  C   -0.477858
    28  H    0.145357
    29  H    0.150466
    30  H    0.164939
    31  H    0.148404
    32  H    0.154980
    33  H    0.154851
    34  H    0.162973
 Sum of Mulliken charges =  -0.00000

 Dipole moment (field-independent basis, Debye):
    X=              4.0721    Y=             -3.0427    Z=             -0.4992  Tot=              5.1077
 Quadrupole moment (field-independent basis, Debye-Ang):
   XX=           -115.4394   YY=            -92.2837   ZZ=            -89.8203
   XY=              5.8981   XZ=              2.4057   YZ=             -0.0810

 Normal termination of Gaussian 16 at Wed May  5 19:04:50 2021.
