 Gaussian 16, Revision A.03,
 Gaussian 16:  EM64L-G16RevA.03 25-Dec-2016

 -------------
 #p 6-31g* mp2
 -------------

 ------------------------------------------------------
 Input file generated by CHIRIPA (05-May-2021 14:53:16)
 ------------------------------------------------------
 Symbolic Z-matrix:
 Charge =  0 Multiplicity = 1

                         Standard orientation:
 ---------------------------------------------------------------------
 Center     Atomic      Atomic             Coordinates (Angstroms)
 Number     Number       Type             X           Y           Z
 ---------------------------------------------------------------------
      1          6           0       -4.843794   -0.334558   -0.037946
      2          6           0       -5.251402    0.956286   -0.748974
      3          6           0       -6.741253    0.998163   -1.090125
      4          1           0       -5.099980   -1.192744   -0.674209
      5          1           0       -5.434750   -0.440335    0.882368
      6          1           0       -4.658872    1.060296   -1.666965
      7          1           0       -4.994041    1.811508   -0.111027
      8          1           0       -7.346883    0.919408   -0.181494
      9          1           0       -7.009810    0.163927   -1.746272
     10          1           0       -7.010824    1.929509   -1.597852
     11          6           0       -3.357296   -0.391303    0.309661
     12          6           0       -2.949688   -1.682148    1.020690
     13          6           0       -1.459837   -1.724025    1.361841
     14          1           0       -2.766341   -0.285526   -0.610653
     15          1           0       -3.101110    0.466882    0.945925
     16          1           0       -3.207049   -2.537370    0.382742
     17          1           0       -3.542218   -1.786158    1.938680
     18          1           0       -1.191281   -0.889789    2.017988
     19          1           0       -0.854207   -1.645269    0.453209
     20          1           0       -1.190266   -2.655371    1.869567
     21          6           0        2.229276    2.479158    0.665854
     22          6           0        1.402479    1.361127    0.514411
     23          6           0        1.931440    0.139525    0.087283
     24          6           0        3.297740    0.071275   -0.180772
     25          6           0        4.147379    1.167372   -0.039436
     26          6           0        3.596677    2.378889    0.388936
     27          1           0        1.809922    3.424211    0.998141
     28          1           0        0.340175    1.436070    0.728744
     29          1           0        1.314197   -0.741745   -0.038386
     30          1           0        5.202510    1.061820   -0.260739
     31          1           0        4.241171    3.245517    0.505665
     32          7           0        3.869235   -1.216641   -0.633612
     33          8           0        5.076179   -1.250727   -0.863313
     34          8           0        3.099408   -2.167638   -0.750272
 ---------------------------------------------------------------------

 SCF Done:  E(RHF) =  -669.535613140     A.U. after   15 cycles
 E2 =    -0.2091357117D+01 EUMP2 =    -0.67162697025678D+03

 The electronic state is 1-A.
 Alpha  occ. eigenvalues --  -20.60700 -20.60695 -15.85751 -11.31090 -11.27674
 Alpha  occ. eigenvalues --  -11.27624 -11.27415 -11.26690 -11.26650 -11.22155
 Alpha  occ. eigenvalues --  -11.22037 -11.22018 -11.21839 -11.21800 -11.21413
 Alpha  occ. eigenvalues --   -1.59775  -1.39329  -1.19267  -1.08963  -1.08671
 Alpha  occ. eigenvalues --   -1.04668  -1.04046  -0.96515  -0.95507  -0.87534
 Alpha  occ. eigenvalues --   -0.86067  -0.82339  -0.80121  -0.78786  -0.77381
 Alpha  occ. eigenvalues --   -0.71972  -0.71097  -0.70390  -0.65591  -0.64921
 Alpha  occ. eigenvalues --   -0.64675  -0.62060  -0.61422  -0.59862  -0.58111
 Alpha  occ. eigenvalues --   -0.55824  -0.55177  -0.53185  -0.53034  -0.52958
 Alpha  occ. eigenvalues --   -0.52696  -0.50446  -0.48732  -0.48727  -0.48425
 Alpha  occ. eigenvalues --   -0.47138  -0.46324  -0.46234  -0.44740  -0.44295
 Alpha  occ. eigenvalues --   -0.37257  -0.36266
 Alpha virt. eigenvalues --    0.05138   0.11377   0.16615   0.19857   0.22587
 Alpha virt. eigenvalues --    0.23734   0.25072   0.25828   0.26994   0.27998
 Alpha virt. eigenvalues --    0.28984   0.30265   0.31436   0.31540   0.31997

 Mulliken charges:
               1
     1  C   -0.298508
     2  C   -0.300030
     3  C   -0.476017
     4  H    0.152553
     5  H    0.150879
     6  H    0.152400
     7  H    0.150112
     8  H    0.155798
     9  H    0.156740
    10  H    0.160969
    11  C   -0.299665
    12  C   -0.299566
    13  C   -0.482311
    14  H    0.148914
    15  H    0.144314
    16  H    0.157042
    17  H    0.154445
    18  H    0.151097
    19  H    0.152935
    20  H    0.169768
    21  C   -0.170810
    22  C   -0.223274
    23  C   -0.178330
    24  C    0.159496
    25  C   -0.170446
    26  C   -0.218944
    27  H    0.225190
    28  H    0.225774
    29  H    0.285014
    30  H    0.275263
    31  H    0.223018
    32  N    0.487409
    33  O   -0.460762
    34  O   -0.460468
 Sum of Mulliken charges =  -0.00000

 Dipole moment (field-independent basis, Debye):
    X=             -2.2067    Y=              4.4224    Z=              1.6107  Tot=              5.1983
 Quadrupole moment (field-independent basis, Debye-Ang):
   XX=           -104.5642   YY=            -93.3141   ZZ=            -95.4290
   XY=             17.5410   XZ=              4.9271   YZ=             -0.4877

 Normal termination of Gaussian 16 at Thu May  6 05:54:56 2021.
