 Gaussian 16, Revision A.03,
 Gaussian 16:  EM64L-G16RevA.03 25-Dec-2016

 -------------
 #p 6-31g* mp2
 -------------

 ------------------------------------------------------
 Input file generated by CHIRIPA (05-May-2021 14:55:21)
 ------------------------------------------------------
 Symbolic Z-matrix:
 Charge =  0 Multiplicity = 1

                         Standard orientation:
 ---------------------------------------------------------------------
 Center     Atomic      Atomic             Coordinates (Angstroms)
 Number     Number       Type             X           Y           Z
 ---------------------------------------------------------------------
      1          6           0       -5.622863   -1.737274   -0.161571
      2          6           0       -5.981447   -0.400667   -0.365089
      3          6           0       -5.014471    0.608166   -0.323134
      4          6           0       -3.692357    0.243076   -0.074105
      5          6           0       -3.303752   -1.079625    0.132628
      6          6           0       -4.287514   -2.071897    0.086201
      7          1           0       -6.380553   -2.514527   -0.195900
      8          1           0       -7.017727   -0.137862   -0.557713
      9          1           0       -5.264422    1.650859   -0.477193
     10          1           0       -2.262621   -1.310710    0.322533
     11          1           0       -4.006134   -3.109092    0.244622
     12          7           0       -2.659777    1.302316   -0.027322
     13          8           0       -1.501846    0.954592    0.193855
     14          8           0       -3.027924    2.460217   -0.212716
     15          6           0        4.225496    0.099029   -0.074862
     16          6           0        3.258373   -0.007813    1.104648
     17          6           0        1.824761    0.368909    0.729637
     18          1           0        4.204931    1.125502   -0.465855
     19          1           0        3.874945   -0.552105   -0.887594
     20          1           0        3.611397    0.642275    1.915435
     21          1           0        3.281385   -1.034102    1.492999
     22          1           0        1.448874   -0.286607   -0.062582
     23          1           0        1.780761    1.399295    0.362255
     24          1           0        1.150264    0.285510    1.587517
     25          6           0        5.662604   -0.274390    0.284310
     26          6           0        6.629726   -0.167549   -0.895200
     27          6           0        8.063338   -0.544270   -0.520188
     28          1           0        6.013154    0.376744    1.097043
     29          1           0        5.683169   -1.300863    0.675303
     30          1           0        6.606714    0.858741   -1.283550
     31          1           0        6.276702   -0.817636   -1.705987
     32          1           0        8.107338   -1.574657   -0.152806
     33          1           0        8.439225    0.111245    0.272030
     34          1           0        8.737835   -0.460872   -1.378068
 ---------------------------------------------------------------------

 SCF Done:  E(RHF) =  -669.535557107     A.U. after   15 cycles
 E2 =    -0.2090807918D+01 EUMP2 =    -0.67162636502440D+03

 The electronic state is 1-A.
 Alpha  occ. eigenvalues --  -20.60802 -20.60794 -15.85844 -11.31219 -11.27790
 Alpha  occ. eigenvalues --  -11.27786 -11.27537 -11.26810 -11.26800 -11.21148
 Alpha  occ. eigenvalues --  -11.20828 -11.20706 -11.20680 -11.20621 -11.19669
 Alpha  occ. eigenvalues --   -1.59873  -1.39426  -1.19394  -1.08789  -1.07761
 Alpha  occ. eigenvalues --   -1.04798  -1.02780  -0.95628  -0.95185  -0.86213
 Alpha  occ. eigenvalues --   -0.86177  -0.82451  -0.78857  -0.77582  -0.77462
 Alpha  occ. eigenvalues --   -0.72055  -0.71194  -0.70502  -0.65047  -0.64802
 Alpha  occ. eigenvalues --   -0.64404  -0.62145  -0.60188  -0.58612  -0.56808
 Alpha  occ. eigenvalues --   -0.55301  -0.54489  -0.53128  -0.52891  -0.51844
 Alpha  occ. eigenvalues --   -0.51608  -0.49169  -0.48819  -0.48794  -0.47154
 Alpha  occ. eigenvalues --   -0.45920  -0.45086  -0.45024  -0.44814  -0.43015
 Alpha  occ. eigenvalues --   -0.37377  -0.36403
 Alpha virt. eigenvalues --    0.05027   0.11251   0.16512   0.21318   0.23467
 Alpha virt. eigenvalues --    0.24949   0.27084   0.27345   0.27828   0.28132
 Alpha virt. eigenvalues --    0.29068   0.30919   0.31959   0.32298   0.32715

 Mulliken charges:
               1
     1  C   -0.170788
     2  C   -0.218572
     3  C   -0.170820
     4  C    0.157680
     5  C   -0.171083
     6  C   -0.218555
     7  H    0.225680
     8  H    0.223532
     9  H    0.275701
    10  H    0.276032
    11  H    0.223537
    12  N    0.493883
    13  O   -0.463600
    14  O   -0.460366
    15  C   -0.297246
    16  C   -0.302775
    17  C   -0.465392
    18  H    0.150606
    19  H    0.147261
    20  H    0.149424
    21  H    0.145388
    22  H    0.150567
    23  H    0.162448
    24  H    0.162305
    25  C   -0.297391
    26  C   -0.299098
    27  C   -0.475288
    28  H    0.148860
    29  H    0.147403
    30  H    0.152152
    31  H    0.150766
    32  H    0.153977
    33  H    0.154840
    34  H    0.158934
 Sum of Mulliken charges =  -0.00000

 Dipole moment (field-independent basis, Debye):
    X=             -3.8908    Y=             -3.6371    Z=             -0.1781  Tot=              5.3291
 Quadrupole moment (field-independent basis, Debye-Ang):
   XX=            -68.1122   YY=            -93.6004   ZZ=            -95.5514
   XY=             11.0912   XZ=              1.5054   YZ=             -0.1989

 Normal termination of Gaussian 16 at Wed May  5 20:37:19 2021.
