 Gaussian 16, Revision A.03,
 Gaussian 16:  EM64L-G16RevA.03 25-Dec-2016

 -------------
 #p 6-31g* mp2
 -------------

 ------------------------------------------------------
 Input file generated by CHIRIPA (05-May-2021 14:55:20)
 ------------------------------------------------------
 Symbolic Z-matrix:
 Charge =  0 Multiplicity = 1

                         Standard orientation:
 ---------------------------------------------------------------------
 Center     Atomic      Atomic             Coordinates (Angstroms)
 Number     Number       Type             X           Y           Z
 ---------------------------------------------------------------------
      1          6           0        3.936534    0.436661   -1.177532
      2          6           0        3.641966    0.955461    0.087615
      3          6           0        2.613695    0.405411    0.858752
      4          6           0        1.896980   -0.667682    0.331418
      5          6           0        2.166504   -1.206763   -0.925578
      6          6           0        3.199163   -0.640895   -1.679206
      7          1           0        4.737024    0.870097   -1.769770
      8          1           0        4.212958    1.792259    0.479765
      9          1           0        2.364507    0.787470    1.841276
     10          1           0        1.579821   -2.041415   -1.289689
     11          1           0        3.425712   -1.045854   -2.661413
     12          7           0        0.806072   -1.258368    1.138519
     13          8           0        0.189411   -2.203351    0.651308
     14          8           0        0.588336   -0.765181    2.243052
     15          6           0       -2.661824    1.486410   -0.147664
     16          6           0       -1.260983    2.093400   -0.062846
     17          6           0       -1.284600    3.607328    0.149893
     18          1           0       -3.212767    1.964964   -0.968879
     19          1           0       -3.211303    1.719442    0.774922
     20          1           0       -0.713835    1.858113   -0.984738
     21          1           0       -0.713246    1.613211    0.758139
     22          1           0       -1.806884    3.857696    1.078945
     23          1           0       -1.807476    4.103989   -0.673835
     24          1           0       -0.272745    4.020461    0.207603
     25          6           0       -2.654718   -0.026366   -0.360236
     26          6           0       -4.055559   -0.633355   -0.445053
     27          6           0       -4.031942   -2.147284   -0.657793
     28          1           0       -2.105239   -0.259397   -1.282821
     29          1           0       -2.103776   -0.504919    0.460979
     30          1           0       -4.603297   -0.153166   -1.266040
     31          1           0       -4.602708   -0.398068    0.476839
     32          1           0       -3.509066   -2.643946    0.165936
     33          1           0       -3.509659   -2.397651   -1.586844
     34          1           0       -5.043796   -2.560417   -0.715502
 ---------------------------------------------------------------------

 SCF Done:  E(RHF) =  -669.536662802     A.U. after   15 cycles
 E2 =    -0.2093462240D+01 EUMP2 =    -0.67163012504249D+03

 The electronic state is 1-A.
 Alpha  occ. eigenvalues --  -20.61027 -20.61009 -15.85997 -11.31279 -11.27837
 Alpha  occ. eigenvalues --  -11.27834 -11.27571 -11.26839 -11.26829 -11.21135
 Alpha  occ. eigenvalues --  -11.20797 -11.20729 -11.20707 -11.20365 -11.20072
 Alpha  occ. eigenvalues --   -1.60054  -1.39612  -1.19442  -1.08858  -1.07691
 Alpha  occ. eigenvalues --   -1.04834  -1.02844  -0.95709  -0.95285  -0.86305
 Alpha  occ. eigenvalues --   -0.86236  -0.82550  -0.78948  -0.77622  -0.77476
 Alpha  occ. eigenvalues --   -0.72235  -0.71347  -0.70557  -0.65103  -0.64842
 Alpha  occ. eigenvalues --   -0.64300  -0.62184  -0.60241  -0.58697  -0.56898
 Alpha  occ. eigenvalues --   -0.55347  -0.54557  -0.53163  -0.52928  -0.52033
 Alpha  occ. eigenvalues --   -0.51706  -0.49250  -0.49016  -0.48984  -0.47278
 Alpha  occ. eigenvalues --   -0.46034  -0.45141  -0.44876  -0.44735  -0.43078
 Alpha  occ. eigenvalues --   -0.37402  -0.36425
 Alpha virt. eigenvalues --    0.04870   0.11175   0.16364   0.21301   0.23572
 Alpha virt. eigenvalues --    0.24953   0.27038   0.27456   0.27563   0.28513
 Alpha virt. eigenvalues --    0.28682   0.31026   0.31821   0.32154   0.32316

 Mulliken charges:
               1
     1  C   -0.170399
     2  C   -0.218673
     3  C   -0.170815
     4  C    0.161673
     5  C   -0.170834
     6  C   -0.218766
     7  H    0.225952
     8  H    0.223805
     9  H    0.275672
    10  H    0.275885
    11  H    0.223723
    12  N    0.488294
    13  O   -0.457219
    14  O   -0.460719
    15  C   -0.296282
    16  C   -0.306408
    17  C   -0.474350
    18  H    0.145463
    19  H    0.150612
    20  H    0.147362
    21  H    0.157105
    22  H    0.156729
    23  H    0.153853
    24  H    0.154189
    25  C   -0.307339
    26  C   -0.298886
    27  C   -0.476150
    28  H    0.142599
    29  H    0.172240
    30  H    0.146416
    31  H    0.151391
    32  H    0.167630
    33  H    0.151220
    34  H    0.155028
 Sum of Mulliken charges =  -0.00000

 Dipole moment (field-independent basis, Debye):
    X=              4.0019    Y=              1.8782    Z=             -2.6929  Tot=              5.1763
 Quadrupole moment (field-independent basis, Debye-Ang):
   XX=            -81.1029   YY=            -97.3010   ZZ=            -93.4201
   XY=              2.2279   XZ=             -4.0449   YZ=              5.0607

 Normal termination of Gaussian 16 at Thu May  6 02:57:17 2021.
