 Gaussian 16, Revision A.03,
 Gaussian 16:  EM64L-G16RevA.03 25-Dec-2016

 -------------
 #p 6-31g* mp2
 -------------

 ------------------------------------------------------
 Input file generated by CHIRIPA (05-May-2021 14:51:11)
 ------------------------------------------------------
 Symbolic Z-matrix:
 Charge =  0 Multiplicity = 1

                         Standard orientation:
 ---------------------------------------------------------------------
 Center     Atomic      Atomic             Coordinates (Angstroms)
 Number     Number       Type             X           Y           Z
 ---------------------------------------------------------------------
      1          6           0        3.614320   -0.627088   -0.240803
      2          6           0        2.146967   -0.328791    0.068842
      3          6           0        1.211273   -1.461280   -0.355116
      4          1           0        3.724861   -0.812098   -1.318067
      5          1           0        3.907608   -1.556020    0.267590
      6          1           0        1.856922    0.600040   -0.438862
      7          1           0        2.039939   -0.144281    1.145465
      8          1           0        1.472641   -2.390632    0.161210
      9          1           0        1.288584   -1.642082   -1.432118
     10          1           0        0.167322   -1.227094   -0.124500
     11          6           0        4.562075    0.495740    0.177223
     12          6           0        6.029428    0.197443   -0.132422
     13          6           0        6.965122    1.329931    0.291536
     14          1           0        4.268787    1.424671   -0.331170
     15          1           0        4.451534    0.680749    1.254487
     16          1           0        6.136456    0.012933   -1.209045
     17          1           0        6.319473   -0.731388    0.375282
     18          1           0        6.887811    1.510733    1.368538
     19          1           0        6.703754    2.259284   -0.224790
     20          1           0        8.009073    1.095745    0.060920
     21          6           0       -4.192916   -0.637018    0.312306
     22          6           0       -3.229543   -1.672020   -0.269645
     23          6           0       -3.451457   -3.072935    0.301304
     24          1           0       -4.077916   -0.611809    1.404589
     25          1           0       -5.225724   -0.955424    0.114014
     26          1           0       -2.198841   -1.351058   -0.071526
     27          1           0       -3.346715   -1.694632   -1.360689
     28          1           0       -4.468997   -3.417901    0.091034
     29          1           0       -3.314602   -3.072375    1.387523
     30          1           0       -2.752179   -3.796988   -0.128368
     31          6           0       -3.983479    0.768366   -0.248726
     32          6           0       -4.946852    1.803369    0.333226
     33          6           0       -4.724938    3.204284   -0.237724
     34          1           0       -2.950670    1.086772   -0.050434
     35          1           0       -4.098478    0.743157   -1.341010
     36          1           0       -4.829680    1.825981    1.424269
     37          1           0       -5.977554    1.482406    0.135105
     38          1           0       -4.861793    3.203723   -1.323943
     39          1           0       -3.707398    3.549249   -0.027454
     40          1           0       -5.424216    3.928336    0.191948
 ---------------------------------------------------------------------

 SCF Done:  E(RHF) =  -470.733321176     A.U. after   11 cycles
 E2 =    -0.1582394259D+01 EUMP2 =    -0.47231571543563D+03

 The electronic state is 1-A.
 Alpha  occ. eigenvalues --  -11.21619 -11.21608 -11.21598 -11.21575 -11.21415
 Alpha  occ. eigenvalues --  -11.21398 -11.21356 -11.21339 -11.21077 -11.21070
 Alpha  occ. eigenvalues --  -11.21068 -11.21043  -1.08442  -1.08421  -1.03548
 Alpha  occ. eigenvalues --   -1.03511  -0.95995  -0.95960  -0.87017  -0.86973
 Alpha  occ. eigenvalues --   -0.79642  -0.79546  -0.78257  -0.78233  -0.65069
 Alpha  occ. eigenvalues --   -0.65062  -0.60946  -0.60934  -0.59450  -0.59248
 Alpha  occ. eigenvalues --   -0.57646  -0.57531  -0.55273  -0.55254  -0.52738
 Alpha  occ. eigenvalues --   -0.52635  -0.52433  -0.52371  -0.49927  -0.49905
 Alpha  occ. eigenvalues --   -0.48007  -0.47824  -0.46635  -0.46606  -0.45801
 Alpha  occ. eigenvalues --   -0.45772  -0.45719  -0.45702  -0.43798  -0.43718
 Alpha virt. eigenvalues --    0.21725   0.23018   0.23652   0.24697   0.26004
 Alpha virt. eigenvalues --    0.26646   0.27076   0.27498   0.28016   0.28669
 Alpha virt. eigenvalues --    0.30328   0.31400   0.31645   0.31841   0.32055

 Mulliken charges:
               1
     1  C   -0.298654
     2  C   -0.298865
     3  C   -0.483516
     4  H    0.149765
     5  H    0.149573
     6  H    0.151899
     7  H    0.151588
     8  H    0.155302
     9  H    0.155607
    10  H    0.167200
    11  C   -0.298227
    12  C   -0.299647
    13  C   -0.475710
    14  H    0.149546
    15  H    0.149585
    16  H    0.151986
    17  H    0.151945
    18  H    0.155162
    19  H    0.155201
    20  H    0.160286
    21  C   -0.297565
    22  C   -0.308255
    23  C   -0.475272
    24  H    0.149442
    25  H    0.149575
    26  H    0.159381
    27  H    0.152118
    28  H    0.155055
    29  H    0.154872
    30  H    0.160941
    31  C   -0.298308
    32  C   -0.299631
    33  C   -0.475724
    34  H    0.149097
    35  H    0.149723
    36  H    0.151943
    37  H    0.151977
    38  H    0.155153
    39  H    0.155205
    40  H    0.160245
 Sum of Mulliken charges =  -0.00000

 Dipole moment (field-independent basis, Debye):
    X=              0.0032    Y=             -0.0077    Z=             -0.0065  Tot=              0.0106
 Quadrupole moment (field-independent basis, Debye-Ang):
   XX=            -85.0084   YY=            -86.2337   ZZ=            -83.5099
   XY=             -0.5290   XZ=              0.4275   YZ=             -0.0913

 Normal termination of Gaussian 16 at Thu May  6 03:50:07 2021.
