 Gaussian 16, Revision A.03,
 Gaussian 16:  EM64L-G16RevA.03 25-Dec-2016

 -------------
 #p 6-31g* mp2
 -------------

 ------------------------------------------------------
 Input file generated by CHIRIPA (05-May-2021 14:53:17)
 ------------------------------------------------------
 Symbolic Z-matrix:
 Charge =  0 Multiplicity = 1

                         Standard orientation:
 ---------------------------------------------------------------------
 Center     Atomic      Atomic             Coordinates (Angstroms)
 Number     Number       Type             X           Y           Z
 ---------------------------------------------------------------------
      1          6           0       -3.018329    0.868514   -0.083745
      2          6           0       -2.590720    1.844309   -1.180541
      3          6           0       -1.657450    2.940486   -0.665568
      4          1           0       -3.515263    1.426732    0.721484
      5          1           0       -2.123125    0.410818    0.359558
      6          1           0       -3.486528    2.298997   -1.622585
      7          1           0       -2.094916    1.283678   -1.983341
      8          1           0       -0.747012    2.503886   -0.242386
      9          1           0       -2.146530    3.524973    0.120420
     10          1           0       -1.364195    3.626848   -1.466049
     11          6           0       -3.951513   -0.233101   -0.583084
     12          6           0       -4.379122   -1.208896    0.513711
     13          6           0       -5.312392   -2.305073   -0.001262
     14          1           0       -4.846718    0.224595   -1.026388
     15          1           0       -3.454579   -0.791319   -1.388314
     16          1           0       -4.874926   -0.648266    1.316511
     17          1           0       -3.483314   -1.663584    0.955755
     18          1           0       -4.823312   -2.889560   -0.787249
     19          1           0       -6.222830   -1.868473   -0.424443
     20          1           0       -5.605647   -2.991435    0.799219
     21          6           0        4.754480   -0.897247   -1.087153
     22          6           0        3.665064   -1.770106   -0.998770
     23          6           0        2.534018   -1.420917   -0.254895
     24          6           0        2.526160   -0.185462    0.390765
     25          6           0        3.595819    0.705806    0.321768
     26          6           0        4.716447    0.335750   -0.427765
     27          1           0        5.629056   -1.176611   -1.667211
     28          1           0        3.691823   -2.728314   -1.509815
     29          1           0        1.676730   -2.077583   -0.169652
     30          1           0        3.539874    1.654183    0.842221
     31          1           0        5.561044    1.015623   -0.494641
     32          7           0        1.334286    0.195255    1.181266
     33          8           0        1.352075    1.289445    1.740792
     34          8           0        0.404875   -0.607739    1.226368
 ---------------------------------------------------------------------

 SCF Done:  E(RHF) =  -669.536737540     A.U. after   15 cycles
 E2 =    -0.2091918415D+01 EUMP2 =    -0.67162865595477D+03

 The electronic state is 1-A.
 Alpha  occ. eigenvalues --  -20.61140 -20.61127 -15.86134 -11.31390 -11.27945
 Alpha  occ. eigenvalues --  -11.27937 -11.27669 -11.26933 -11.26923 -11.20613
 Alpha  occ. eigenvalues --  -11.20553 -11.20358 -11.20342 -11.19955 -11.19936
 Alpha  occ. eigenvalues --   -1.60176  -1.39733  -1.19550  -1.08967  -1.07321
 Alpha  occ. eigenvalues --   -1.04935  -1.02525  -0.95819  -0.94963  -0.86339
 Alpha  occ. eigenvalues --   -0.85982  -0.82656  -0.78585  -0.77719  -0.77092
 Alpha  occ. eigenvalues --   -0.72351  -0.71482  -0.70658  -0.65206  -0.64937
 Alpha  occ. eigenvalues --   -0.63949  -0.62282  -0.59933  -0.58347  -0.56571
 Alpha  occ. eigenvalues --   -0.55443  -0.54254  -0.53270  -0.53025  -0.51715
 Alpha  occ. eigenvalues --   -0.51382  -0.49158  -0.49123  -0.48892  -0.46895
 Alpha  occ. eigenvalues --   -0.45615  -0.45185  -0.44679  -0.44371  -0.42739
 Alpha  occ. eigenvalues --   -0.37523  -0.36531
 Alpha virt. eigenvalues --    0.04754   0.11125   0.16237   0.21249   0.23928
 Alpha virt. eigenvalues --    0.25214   0.27191   0.27629   0.28120   0.28715
 Alpha virt. eigenvalues --    0.29031   0.30846   0.32220   0.32429   0.32679

 Mulliken charges:
               1
     1  C   -0.311088
     2  C   -0.298425
     3  C   -0.477388
     4  H    0.147196
     5  H    0.177452
     6  H    0.146713
     7  H    0.145349
     8  H    0.163503
     9  H    0.155572
    10  H    0.152126
    11  C   -0.296209
    12  C   -0.300515
    13  C   -0.474896
    14  H    0.144505
    15  H    0.144679
    16  H    0.151080
    17  H    0.159364
    18  H    0.151972
    19  H    0.152745
    20  H    0.158002
    21  C   -0.170276
    22  C   -0.218568
    23  C   -0.170627
    24  C    0.158072
    25  C   -0.170377
    26  C   -0.218586
    27  H    0.226423
    28  H    0.224184
    29  H    0.275714
    30  H    0.276364
    31  H    0.224281
    32  N    0.488072
    33  O   -0.457113
    34  O   -0.459298
 Sum of Mulliken charges =  -0.00000

 Dipole moment (field-independent basis, Debye):
    X=              4.5892    Y=             -1.4045    Z=             -2.5737  Tot=              5.4458
 Quadrupole moment (field-independent basis, Debye-Ang):
   XX=            -73.8440   YY=            -91.5157   ZZ=            -97.6619
   XY=             -3.1187   XZ=             -5.9033   YZ=              1.5030

 Normal termination of Gaussian 16 at Wed May  5 23:39:00 2021.
