 Gaussian 16, Revision A.03,
 Gaussian 16:  EM64L-G16RevA.03 25-Dec-2016

 -------------
 #p 6-31g* mp2
 -------------

 ------------------------------------------------------
 Input file generated by CHIRIPA (05-May-2021 14:51:12)
 ------------------------------------------------------
 Symbolic Z-matrix:
 Charge =  0 Multiplicity = 1

                         Standard orientation:
 ---------------------------------------------------------------------
 Center     Atomic      Atomic             Coordinates (Angstroms)
 Number     Number       Type             X           Y           Z
 ---------------------------------------------------------------------
      1          6           0       -2.374747   -0.763668    0.653687
      2          6           0       -1.798608   -2.049276    0.059329
      3          6           0       -1.222985   -2.985741    1.122102
      4          1           0       -1.588002   -0.242616    1.216254
      5          1           0       -3.158521   -1.022418    1.379043
      6          1           0       -1.017110   -1.788134   -0.665709
      7          1           0       -2.586767   -2.567231   -0.502048
      8          1           0       -1.996796   -3.275060    1.840512
      9          1           0       -0.418220   -2.491537    1.675921
     10          1           0       -0.816548   -3.898452    0.675305
     11          6           0       -2.953971    0.182729   -0.396342
     12          6           0       -3.530110    1.468337    0.198016
     13          6           0       -4.105733    2.404802   -0.864756
     14          1           0       -2.170197    0.441478   -1.121698
     15          1           0       -3.740717   -0.338323   -0.958909
     16          1           0       -2.741951    1.986292    0.759394
     17          1           0       -4.311609    1.207195    0.923054
     18          1           0       -4.910498    1.910597   -1.418576
     19          1           0       -3.331922    2.694121   -1.583166
     20          1           0       -4.512170    3.317513   -0.417960
     21          6           0        2.236820   -0.310756   -0.326586
     22          6           0        3.040255   -1.603012   -0.476758
     23          6           0        2.171043   -2.796857   -0.872988
     24          1           0        1.451325   -0.460317    0.426790
     25          1           0        1.724085   -0.093813   -1.273915
     26          1           0        3.552429   -1.816713    0.470145
     27          1           0        3.824050   -1.450298   -1.229727
     28          1           0        1.671092   -2.609040   -1.828694
     29          1           0        1.397929   -2.977539   -0.119165
     30          1           0        2.765588   -3.710094   -0.974839
     31          6           0        3.091899    0.891696    0.069240
     32          6           0        2.288463    2.183951    0.219413
     33          6           0        3.157675    3.377796    0.615643
     34          1           0        3.604634    0.674753    1.016571
     35          1           0        3.877393    1.041256   -0.684136
     36          1           0        1.504668    2.031237    0.972381
     37          1           0        1.776289    2.397653   -0.727489
     38          1           0        3.930790    3.558477   -0.138180
     39          1           0        3.657626    3.189980    1.571350
     40          1           0        2.563130    4.291033    0.717494
 ---------------------------------------------------------------------

 SCF Done:  E(RHF) =  -470.732829954     A.U. after   11 cycles
 E2 =    -0.1584226815D+01 EUMP2 =    -0.47231705676855D+03

 The electronic state is 1-A.
 Alpha  occ. eigenvalues --  -11.21667 -11.21616 -11.21580 -11.21542 -11.21468
 Alpha  occ. eigenvalues --  -11.21408 -11.21381 -11.21321 -11.21116 -11.21096
 Alpha  occ. eigenvalues --  -11.21055 -11.20981  -1.08491  -1.08395  -1.03600
 Alpha  occ. eigenvalues --   -1.03477  -0.96062  -0.95924  -0.87078  -0.86941
 Alpha  occ. eigenvalues --   -0.79627  -0.79576  -0.78311  -0.78209  -0.65209
 Alpha  occ. eigenvalues --   -0.64954  -0.61155  -0.60768  -0.59415  -0.59311
 Alpha  occ. eigenvalues --   -0.57733  -0.57475  -0.55474  -0.55094  -0.52744
 Alpha  occ. eigenvalues --   -0.52675  -0.52453  -0.52302  -0.50091  -0.49752
 Alpha  occ. eigenvalues --   -0.47975  -0.47845  -0.46712  -0.46539  -0.45976
 Alpha  occ. eigenvalues --   -0.45845  -0.45597  -0.45559  -0.43822  -0.43762
 Alpha virt. eigenvalues --    0.19891   0.23032   0.23562   0.24515   0.25694
 Alpha virt. eigenvalues --    0.25918   0.26855   0.28104   0.28623   0.29850
 Alpha virt. eigenvalues --    0.30573   0.31263   0.31542   0.31795   0.32273

 Mulliken charges:
               1
     1  C   -0.298805
     2  C   -0.303714
     3  C   -0.480602
     4  H    0.149612
     5  H    0.149264
     6  H    0.157949
     7  H    0.151923
     8  H    0.156765
     9  H    0.154264
    10  H    0.161943
    11  C   -0.298255
    12  C   -0.299653
    13  C   -0.475676
    14  H    0.150018
    15  H    0.149480
    16  H    0.152059
    17  H    0.151752
    18  H    0.155085
    19  H    0.155175
    20  H    0.160157
    21  C   -0.301886
    22  C   -0.299102
    23  C   -0.485271
    24  H    0.151996
    25  H    0.149187
    26  H    0.151719
    27  H    0.151858
    28  H    0.154442
    29  H    0.168114
    30  H    0.159722
    31  C   -0.298306
    32  C   -0.299645
    33  C   -0.475729
    34  H    0.149785
    35  H    0.150135
    36  H    0.151289
    37  H    0.151744
    38  H    0.155412
    39  H    0.155376
    40  H    0.160417
 Sum of Mulliken charges =  -0.00000

 Dipole moment (field-independent basis, Debye):
    X=              0.0077    Y=             -0.0142    Z=             -0.0012  Tot=              0.0162
 Quadrupole moment (field-independent basis, Debye-Ang):
   XX=            -84.4254   YY=            -85.9966   ZZ=            -84.3382
   XY=              0.3968   XZ=             -0.6219   YZ=             -0.0445

 Normal termination of Gaussian 16 at Thu May  6 03:54:21 2021.
