 Gaussian 16, Revision A.03,
 Gaussian 16:  EM64L-G16RevA.03 25-Dec-2016

 -------------
 #p 6-31g* mp2
 -------------

 ------------------------------------------------------
 Input file generated by CHIRIPA (05-May-2021 14:57:24)
 ------------------------------------------------------
 Symbolic Z-matrix:
 Charge =  0 Multiplicity = 1

                         Standard orientation:
 ---------------------------------------------------------------------
 Center     Atomic      Atomic             Coordinates (Angstroms)
 Number     Number       Type             X           Y           Z
 ---------------------------------------------------------------------
      1          6           0        4.456510    2.085297    0.180704
      2          6           0        4.951134    1.003279   -0.554894
      3          6           0        4.190997   -0.160524   -0.704239
      4          6           0        2.934753   -0.208324   -0.101864
      5          6           0        2.414363    0.852970    0.637148
      6          6           0        3.191932    2.006828    0.773332
      7          1           0        5.053773    2.985504    0.291607
      8          1           0        5.932880    1.061409   -1.016239
      9          1           0        4.549580   -1.012964   -1.268315
     10          1           0        1.432119    0.765415    1.085419
     11          1           0        2.805250    2.845589    1.345172
     12          7           0        2.120803   -1.435126   -0.253003
     13          8           0        1.017082   -1.452242    0.287501
     14          8           0        2.601961   -2.356348   -0.909108
     15          6           0       -4.232243    2.008921   -0.923744
     16          6           0       -3.728598    2.070902    0.379721
     17          6           0       -3.082215    0.967306    0.944358
     18          6           0       -2.956434   -0.187490    0.173699
     19          6           0       -3.447579   -0.280197   -1.127636
     20          6           0       -4.090377    0.835638   -1.671943
     21          1           0       -4.732977    2.870975   -1.354471
     22          1           0       -3.837334    2.980777    0.963113
     23          1           0       -2.682912    0.987975    1.951109
     24          1           0       -3.324017   -1.201021   -1.684622
     25          1           0       -4.480529    0.784641   -2.684477
     26          7           0       -2.274035   -1.362295    0.760694
     27          8           0       -2.176029   -2.368008    0.061000
     28          8           0       -1.850099   -1.255150    1.909361
 ---------------------------------------------------------------------

 SCF Done:  E(RHF) =  -868.335542696     A.U. after   16 cycles
 E2 =    -0.2601463362D+01 EUMP2 =    -0.87093700605788D+03

 The electronic state is 1-A.
 Alpha  occ. eigenvalues --  -20.60071 -20.60030 -20.59669 -20.59599 -15.85119
 Alpha  occ. eigenvalues --  -15.84708 -11.30769 -11.30587 -11.27379 -11.27367
 Alpha  occ. eigenvalues --  -11.27251 -11.27187 -11.27166 -11.27045 -11.26469
 Alpha  occ. eigenvalues --  -11.26454 -11.26375 -11.26313  -1.59130  -1.58660
 Alpha  occ. eigenvalues --   -1.38676  -1.38225  -1.18975  -1.18801  -1.08319
 Alpha  occ. eigenvalues --   -1.08095  -1.04422  -1.04285  -0.95104  -0.94847
 Alpha  occ. eigenvalues --   -0.85806  -0.85656  -0.81939  -0.81695  -0.76941
 Alpha  occ. eigenvalues --   -0.76650  -0.71464  -0.70946  -0.70484  -0.70112
 Alpha  occ. eigenvalues --   -0.69908  -0.69770  -0.64616  -0.64448  -0.64429
 Alpha  occ. eigenvalues --   -0.64293  -0.61764  -0.61629  -0.54920  -0.54767
 Alpha  occ. eigenvalues --   -0.52737  -0.52586  -0.52514  -0.52385  -0.48143
 Alpha  occ. eigenvalues --   -0.48075  -0.47667  -0.47629  -0.44071  -0.43451
 Alpha  occ. eigenvalues --   -0.36977  -0.36801  -0.36039  -0.35918
 Alpha virt. eigenvalues --    0.05589   0.05931   0.11609   0.11722   0.17032
 Alpha virt. eigenvalues --    0.17325   0.21637   0.21848   0.27470   0.27718
 Alpha virt. eigenvalues --    0.28456   0.28862   0.30974   0.31477   0.32621

 Mulliken charges:
               1
     1  C   -0.171734
     2  C   -0.218651
     3  C   -0.171344
     4  C    0.158355
     5  C   -0.171655
     6  C   -0.218627
     7  H    0.223487
     8  H    0.221967
     9  H    0.275396
    10  H    0.277143
    11  H    0.220532
    12  N    0.489677
    13  O   -0.453313
    14  O   -0.461663
    15  C   -0.172807
    16  C   -0.218920
    17  C   -0.175021
    18  C    0.162513
    19  C   -0.170774
    20  C   -0.218608
    21  H    0.222571
    22  H    0.219335
    23  H    0.271883
    24  H    0.277692
    25  H    0.221853
    26  N    0.494118
    27  O   -0.450306
    28  O   -0.463099
 Sum of Mulliken charges =  -0.00000

 Dipole moment (field-independent basis, Debye):
    X=              0.4853    Y=              8.0824    Z=             -1.5391  Tot=              8.2419
 Quadrupole moment (field-independent basis, Debye-Ang):
   XX=            -73.4373   YY=           -107.1706   ZZ=           -101.5738
   XY=             -0.5569   XZ=              5.6598   YZ=              4.3454

 Normal termination of Gaussian 16 at Fri May  7 12:35:59 2021.
