 Gaussian 16, Revision A.03,
 Gaussian 16:  EM64L-G16RevA.03 25-Dec-2016

 -------------
 #p 6-31g* mp2
 -------------

 ------------------------------------------------------
 Input file generated by CHIRIPA (05-May-2021 14:55:24)
 ------------------------------------------------------
 Symbolic Z-matrix:
 Charge =  0 Multiplicity = 1

                         Standard orientation:
 ---------------------------------------------------------------------
 Center     Atomic      Atomic             Coordinates (Angstroms)
 Number     Number       Type             X           Y           Z
 ---------------------------------------------------------------------
      1          6           0        1.563168    2.187524    0.938403
      2          6           0        1.095312    0.870952    0.873054
      3          6           0        1.904559   -0.145311    0.356452
      4          6           0        3.182082    0.192000   -0.087895
      5          6           0        3.676770    1.494259   -0.035970
      6          6           0        2.850134    2.494434    0.484483
      7          1           0        0.927771    2.970733    1.341208
      8          1           0        0.096273    0.629685    1.224844
      9          1           0        1.567553   -1.172917    0.294229
     10          1           0        4.677255    1.704039   -0.394354
     11          1           0        3.216118    3.516025    0.534015
     12          7           0        4.048000   -0.875356   -0.636837
     13          8           0        5.169622   -0.552244   -1.021804
     14          8           0        3.588688   -2.014852   -0.671737
     15          6           0       -3.673380   -1.175620    0.196073
     16          6           0       -2.189125   -1.275787    0.549537
     17          6           0       -1.770177   -2.691714    0.946309
     18          1           0       -4.271636   -1.509451    1.054904
     19          1           0       -3.894650   -1.868764   -0.627327
     20          1           0       -1.970434   -0.581651    1.371100
     21          1           0       -1.594336   -0.941496   -0.310168
     22          1           0       -1.959998   -3.393303    0.127565
     23          1           0       -2.338232   -3.031413    1.818386
     24          1           0       -0.705442   -2.740527    1.194937
     25          6           0       -4.107403    0.233762   -0.202670
     26          6           0       -5.591659    0.333928   -0.556135
     27          6           0       -6.010607    1.749856   -0.952906
     28          1           0       -3.886134    0.926905    0.620729
     29          1           0       -3.509147    0.567594   -1.061501
     30          1           0       -6.186447   -0.000362    0.303571
     31          1           0       -5.810351   -0.360206   -1.377698
     32          1           0       -5.442551    2.089556   -1.824983
     33          1           0       -5.820785    2.451446   -0.134162
     34          1           0       -7.075342    1.798670   -1.201533
 ---------------------------------------------------------------------

 SCF Done:  E(RHF) =  -669.535390167     A.U. after   15 cycles
 E2 =    -0.2091861476D+01 EUMP2 =    -0.67162725164277D+03

 The electronic state is 1-A.
 Alpha  occ. eigenvalues --  -20.60712 -20.60707 -15.85763 -11.31109 -11.27675
 Alpha  occ. eigenvalues --  -11.27654 -11.27397 -11.26695 -11.26598 -11.22588
 Alpha  occ. eigenvalues --  -11.22130 -11.22101 -11.22023 -11.21822 -11.21539
 Alpha  occ. eigenvalues --   -1.59787  -1.39341  -1.19273  -1.09142  -1.08671
 Alpha  occ. eigenvalues --   -1.04676  -1.04220  -0.96635  -0.95513  -0.87649
 Alpha  occ. eigenvalues --   -0.86071  -0.82352  -0.80331  -0.78966  -0.77380
 Alpha  occ. eigenvalues --   -0.71982  -0.71110  -0.70388  -0.65768  -0.64922
 Alpha  occ. eigenvalues --   -0.64675  -0.62084  -0.61606  -0.59987  -0.58253
 Alpha  occ. eigenvalues --   -0.55893  -0.55171  -0.53334  -0.53118  -0.53001
 Alpha  occ. eigenvalues --   -0.52735  -0.50559  -0.48769  -0.48738  -0.48560
 Alpha  occ. eigenvalues --   -0.47348  -0.46468  -0.46395  -0.44751  -0.44468
 Alpha  occ. eigenvalues --   -0.37257  -0.36265
 Alpha virt. eigenvalues --    0.05120   0.11376   0.16584   0.19493   0.22507
 Alpha virt. eigenvalues --    0.23541   0.25102   0.25754   0.26474   0.28388
 Alpha virt. eigenvalues --    0.29002   0.29723   0.30951   0.31477   0.32141

 Mulliken charges:
               1
     1  C   -0.172709
     2  C   -0.224015
     3  C   -0.178018
     4  C    0.159175
     5  C   -0.171177
     6  C   -0.218511
     7  H    0.225583
     8  H    0.234363
     9  H    0.278274
    10  H    0.275208
    11  H    0.222987
    12  N    0.487961
    13  O   -0.460734
    14  O   -0.460639
    15  C   -0.297254
    16  C   -0.309203
    17  C   -0.477432
    18  H    0.152041
    19  H    0.154079
    20  H    0.144584
    21  H    0.154386
    22  H    0.162400
    23  H    0.158915
    24  H    0.158846
    25  C   -0.299093
    26  C   -0.300177
    27  C   -0.476106
    28  H    0.145744
    29  H    0.150886
    30  H    0.153026
    31  H    0.154214
    32  H    0.155876
    33  H    0.154186
    34  H    0.162331
 Sum of Mulliken charges =  -0.00000

 Dipole moment (field-independent basis, Debye):
    X=             -3.2877    Y=              3.6570    Z=              1.8789  Tot=              5.2643
 Quadrupole moment (field-independent basis, Debye-Ang):
   XX=           -111.4042   YY=            -91.9342   ZZ=            -94.9611
   XY=             14.9732   XZ=              5.5878   YZ=             -0.0584

 Normal termination of Gaussian 16 at Thu May  6 15:58:58 2021.
