 Gaussian 16, Revision A.03,
 Gaussian 16:  EM64L-G16RevA.03 25-Dec-2016

 -------------
 #p 6-31g* mp2
 -------------

 ------------------------------------------------------
 Input file generated by CHIRIPA (05-May-2021 14:51:10)
 ------------------------------------------------------
 Symbolic Z-matrix:
 Charge =  0 Multiplicity = 1

                         Standard orientation:
 ---------------------------------------------------------------------
 Center     Atomic      Atomic             Coordinates (Angstroms)
 Number     Number       Type             X           Y           Z
 ---------------------------------------------------------------------
      1          6           0        3.614643    0.041908    0.462240
      2          6           0        3.008410    1.432236    0.268713
      3          6           0        1.607786    1.555270    0.869469
      4          1           0        2.951835   -0.706736    0.007088
      5          1           0        3.653896   -0.187100    1.536209
      6          1           0        2.971589    1.659118   -0.804499
      7          1           0        3.672835    2.177675    0.724211
      8          1           0        1.631208    1.355019    1.945551
      9          1           0        0.925978    0.833516    0.408155
     10          1           0        1.193318    2.557100    0.719760
     11          6           0        5.014724   -0.096716   -0.132978
     12          6           0        5.620957   -1.487044    0.060548
     13          6           0        7.021581   -1.610078   -0.540208
     14          1           0        4.975472    0.132292   -1.206948
     15          1           0        5.677533    0.651928    0.322173
     16          1           0        4.956533   -2.232483   -0.394949
     17          1           0        5.657778   -1.713926    1.133761
     18          1           0        7.703389   -0.888324   -0.078894
     19          1           0        6.998160   -1.409827   -1.616290
     20          1           0        7.436050   -2.611908   -0.390499
     21          6           0       -3.684189    0.267691   -0.522639
     22          6           0       -3.216451    1.649657   -0.065060
     23          6           0       -1.954051    2.116613   -0.790382
     24          1           0       -2.876083   -0.458483   -0.359596
     25          1           0       -3.869717    0.290995   -1.605427
     26          1           0       -3.033186    1.624122    1.016779
     27          1           0       -4.025832    2.372588   -0.229035
     28          1           0       -2.127662    2.170412   -1.869995
     29          1           0       -1.129376    1.417694   -0.617103
     30          1           0       -1.637286    3.106694   -0.447949
     31          6           0       -4.945179   -0.212883    0.193377
     32          6           0       -5.412916   -1.594848   -0.264201
     33          6           0       -6.675317   -2.061805    0.461120
     34          1           0       -4.759651   -0.236187    1.276166
     35          1           0       -5.753284    0.513291    0.030335
     36          1           0       -4.603535   -2.317780   -0.100226
     37          1           0       -5.596181   -1.569313   -1.346041
     38          1           0       -7.499990   -1.362885    0.287841
     39          1           0       -6.501705   -2.115604    1.540734
     40          1           0       -6.992082   -3.051886    0.118687
 ---------------------------------------------------------------------

 SCF Done:  E(RHF) =  -470.732891902     A.U. after   11 cycles
 E2 =    -0.1582434638D+01 EUMP2 =    -0.47231532654014D+03

 The electronic state is 1-A.
 Alpha  occ. eigenvalues --  -11.21603 -11.21590 -11.21585 -11.21540 -11.21406
 Alpha  occ. eigenvalues --  -11.21378 -11.21347 -11.21318 -11.21072 -11.21058
 Alpha  occ. eigenvalues --  -11.21045 -11.20950  -1.08431  -1.08395  -1.03540
 Alpha  occ. eigenvalues --   -1.03475  -0.96020  -0.95897  -0.87069  -0.86885
 Alpha  occ. eigenvalues --   -0.79647  -0.79498  -0.78247  -0.78206  -0.65086
 Alpha  occ. eigenvalues --   -0.65007  -0.61050  -0.60787  -0.59395  -0.59256
 Alpha  occ. eigenvalues --   -0.57623  -0.57516  -0.55500  -0.55034  -0.52774
 Alpha  occ. eigenvalues --   -0.52541  -0.52447  -0.52300  -0.50149  -0.49641
 Alpha  occ. eigenvalues --   -0.47963  -0.47811  -0.46741  -0.46440  -0.45808
 Alpha  occ. eigenvalues --   -0.45740  -0.45707  -0.45628  -0.43827  -0.43687
 Alpha virt. eigenvalues --    0.22084   0.23011   0.23591   0.24867   0.26134
 Alpha virt. eigenvalues --    0.26787   0.27204   0.27298   0.27659   0.29097
 Alpha virt. eigenvalues --    0.29389   0.31221   0.31762   0.31923   0.32362

 Mulliken charges:
               1
     1  C   -0.298492
     2  C   -0.299904
     3  C   -0.478066
     4  H    0.149493
     5  H    0.149423
     6  H    0.152373
     7  H    0.151880
     8  H    0.154622
     9  H    0.156588
    10  H    0.162614
    11  C   -0.298280
    12  C   -0.299649
    13  C   -0.475709
    14  H    0.149629
    15  H    0.149682
    16  H    0.151897
    17  H    0.151879
    18  H    0.155188
    19  H    0.155223
    20  H    0.160239
    21  C   -0.298206
    22  C   -0.299644
    23  C   -0.479724
    24  H    0.149017
    25  H    0.149352
    26  H    0.152207
    27  H    0.151493
    28  H    0.153905
    29  H    0.161593
    30  H    0.159521
    31  C   -0.298260
    32  C   -0.299626
    33  C   -0.475688
    34  H    0.149599
    35  H    0.149633
    36  H    0.151843
    37  H    0.151836
    38  H    0.155161
    39  H    0.155192
    40  H    0.160166
 Sum of Mulliken charges =  -0.00000

 Dipole moment (field-independent basis, Debye):
    X=              0.0244    Y=              0.0084    Z=              0.0077  Tot=              0.0269
 Quadrupole moment (field-independent basis, Debye-Ang):
   XX=            -86.2669   YY=            -84.8152   ZZ=            -83.8228
   XY=             -0.2666   XZ=              1.5381   YZ=              0.0941

 Normal termination of Gaussian 16 at Thu May  6 06:56:41 2021.
