 Gaussian 16, Revision A.03,
 Gaussian 16:  EM64L-G16RevA.03 25-Dec-2016

 -------------
 #p 6-31g* mp2
 -------------

 ------------------------------------------------------
 Input file generated by CHIRIPA (05-May-2021 14:51:13)
 ------------------------------------------------------
 Symbolic Z-matrix:
 Charge =  0 Multiplicity = 1

                         Standard orientation:
 ---------------------------------------------------------------------
 Center     Atomic      Atomic             Coordinates (Angstroms)
 Number     Number       Type             X           Y           Z
 ---------------------------------------------------------------------
      1          6           0       -2.408094   -1.042673    0.499157
      2          6           0       -1.298604   -1.851495   -0.173763
      3          6           0       -0.265776   -2.380562    0.821801
      4          1           0       -1.959964   -0.201996    1.046320
      5          1           0       -2.908330   -1.672018    1.248212
      6          1           0       -0.801516   -1.221245   -0.922298
      7          1           0       -1.749442   -2.690234   -0.719546
      8          1           0       -0.742412   -3.031123    1.562199
      9          1           0        0.210901   -1.553789    1.358295
     10          1           0        0.518171   -2.955780    0.319395
     11          6           0       -3.448269   -0.507030   -0.483111
     12          6           0       -4.557759    0.301793    0.189810
     13          6           0       -5.590588    0.830860   -0.805754
     14          1           0       -2.948033    0.122316   -1.232166
     15          1           0       -3.896399   -1.347706   -1.030274
     16          1           0       -4.106921    1.140531    0.735593
     17          1           0       -5.054847   -0.328457    0.938344
     18          1           0       -6.067264    0.004087   -1.342248
     19          1           0       -5.113951    1.481421   -1.546152
     20          1           0       -6.374535    1.406078   -0.303348
     21          6           0        3.499974    0.544028   -0.458808
     22          6           0        4.322052   -0.597257    0.140891
     23          6           0        5.462236   -1.048013   -0.772671
     24          1           0        3.091235    0.223658   -1.426920
     25          1           0        4.163463    1.395087   -0.665866
     26          1           0        3.656966   -1.445411    0.348038
     27          1           0        4.728723   -0.274201    1.107778
     28          1           0        6.148747   -0.218331   -0.969982
     29          1           0        5.070900   -1.396196   -1.734038
     30          1           0        6.036878   -1.864582   -0.324495
     31          6           0        2.356390    1.005675    0.442762
     32          6           0        1.534310    2.146959   -0.156938
     33          6           0        0.394127    2.597715    0.756625
     34          1           0        1.692900    0.154614    0.649820
     35          1           0        2.765128    1.326043    1.410874
     36          1           0        1.127639    1.823903   -1.123824
     37          1           0        2.199397    2.995114   -0.364085
     38          1           0        0.785462    2.945897    1.717991
     39          1           0       -0.292384    1.768033    0.953935
     40          1           0       -0.180515    3.414283    0.308449
 ---------------------------------------------------------------------

 SCF Done:  E(RHF) =  -470.733087317     A.U. after   11 cycles
 E2 =    -0.1583990134D+01 EUMP2 =    -0.47231707745074D+03

 The electronic state is 1-A.
 Alpha  occ. eigenvalues --  -11.21683 -11.21643 -11.21611 -11.21585 -11.21453
 Alpha  occ. eigenvalues --  -11.21399 -11.21387 -11.21338 -11.21144 -11.21138
 Alpha  occ. eigenvalues --  -11.21076 -11.21061  -1.08491  -1.08428  -1.03587
 Alpha  occ. eigenvalues --   -1.03539  -0.96052  -0.95976  -0.87067  -0.86995
 Alpha  occ. eigenvalues --   -0.79662  -0.79592  -0.78322  -0.78223  -0.65315
 Alpha  occ. eigenvalues --   -0.64903  -0.61106  -0.60811  -0.59412  -0.59345
 Alpha  occ. eigenvalues --   -0.57679  -0.57580  -0.55566  -0.55074  -0.52728
 Alpha  occ. eigenvalues --   -0.52686  -0.52525  -0.52353  -0.50139  -0.49772
 Alpha  occ. eigenvalues --   -0.48051  -0.47870  -0.46850  -0.46573  -0.45945
 Alpha  occ. eigenvalues --   -0.45785  -0.45757  -0.45389  -0.43831  -0.43796
 Alpha virt. eigenvalues --    0.19108   0.22746   0.23983   0.24591   0.25676
 Alpha virt. eigenvalues --    0.26330   0.26569   0.27845   0.28742   0.29945
 Alpha virt. eigenvalues --    0.30097   0.31446   0.31561   0.31816   0.32235

 Mulliken charges:
               1
     1  C   -0.303875
     2  C   -0.300708
     3  C   -0.480796
     4  H    0.154383
     5  H    0.150172
     6  H    0.151859
     7  H    0.152696
     8  H    0.156246
     9  H    0.159166
    10  H    0.160144
    11  C   -0.298164
    12  C   -0.299920
    13  C   -0.475750
    14  H    0.149734
    15  H    0.149741
    16  H    0.152577
    17  H    0.151929
    18  H    0.155099
    19  H    0.155292
    20  H    0.160388
    21  C   -0.297523
    22  C   -0.300542
    23  C   -0.475727
    24  H    0.149342
    25  H    0.149458
    26  H    0.153078
    27  H    0.151878
    28  H    0.155118
    29  H    0.155085
    30  H    0.160287
    31  C   -0.307816
    32  C   -0.298879
    33  C   -0.481449
    34  H    0.159329
    35  H    0.149461
    36  H    0.151383
    37  H    0.152286
    38  H    0.155778
    39  H    0.158777
    40  H    0.160461
 Sum of Mulliken charges =  -0.00000

 Dipole moment (field-independent basis, Debye):
    X=             -0.0173    Y=             -0.0147    Z=              0.0138  Tot=              0.0265
 Quadrupole moment (field-independent basis, Debye-Ang):
   XX=            -85.4936   YY=            -83.9713   ZZ=            -85.2299
   XY=              1.6565   XZ=              0.2071   YZ=              0.2243

 Normal termination of Gaussian 16 at Thu May  6 03:57:31 2021.
