 Gaussian 16, Revision A.03,
 Gaussian 16:  EM64L-G16RevA.03 25-Dec-2016

 -------------
 #p 6-31g* mp2
 -------------

 ------------------------------------------------------
 Input file generated by CHIRIPA (05-May-2021 14:53:14)
 ------------------------------------------------------
 Symbolic Z-matrix:
 Charge =  0 Multiplicity = 1

                         Standard orientation:
 ---------------------------------------------------------------------
 Center     Atomic      Atomic             Coordinates (Angstroms)
 Number     Number       Type             X           Y           Z
 ---------------------------------------------------------------------
      1          6           0        3.934068    0.381327   -0.357417
      2          6           0        5.324640    0.813869    0.108631
      3          6           0        5.759564    2.151440   -0.490985
      4          1           0        3.926586    0.312997   -1.453875
      5          1           0        3.206218    1.159083   -0.087737
      6          1           0        6.049434    0.034898   -0.160619
      7          1           0        5.328866    0.880992    1.204118
      8          1           0        5.058910    2.944906   -0.211529
      9          1           0        5.783572    2.094005   -1.584020
     10          1           0        6.756392    2.441542   -0.144524
     11          6           0        3.485251   -0.954012    0.233481
     12          6           0        2.094678   -1.386554   -0.232567
     13          6           0        1.659754   -2.724125    0.367049
     14          1           0        4.213100   -1.731768   -0.036199
     15          1           0        3.492732   -0.885682    1.329938
     16          1           0        2.090453   -1.453677   -1.328054
     17          1           0        1.369885   -0.607583    0.036683
     18          1           0        1.635746   -2.666690    1.460084
     19          1           0        2.360408   -3.517591    0.087593
     20          1           0        0.662926   -3.014228    0.020588
     21          6           0       -3.245096    2.713425    0.264890
     22          6           0       -2.418463    2.040479    1.170618
     23          6           0       -2.218999    0.661140    1.060241
     24          6           0       -2.864632   -0.016992    0.027484
     25          6           0       -3.694240    0.625187   -0.890474
     26          6           0       -3.879228    2.004881   -0.760957
     27          1           0       -3.394421    3.785067    0.358067
     28          1           0       -1.924708    2.588173    1.968292
     29          1           0       -1.584354    0.115202    1.747697
     30          1           0       -4.172960    0.052117   -1.675226
     31          1           0       -4.521758    2.524881   -1.465797
     32          7           0       -2.661131   -1.477424   -0.099498
     33          8           0       -3.241314   -2.051977   -1.018146
     34          8           0       -1.925298   -2.019905    0.722026
 ---------------------------------------------------------------------

 SCF Done:  E(RHF) =  -669.536169597     A.U. after   15 cycles
 E2 =    -0.2091285618D+01 EUMP2 =    -0.67162745521549D+03

 The electronic state is 1-A.
 Alpha  occ. eigenvalues --  -20.60942 -20.60927 -15.85959 -11.31286 -11.27848
 Alpha  occ. eigenvalues --  -11.27842 -11.27583 -11.26857 -11.26847 -11.21462
 Alpha  occ. eigenvalues --  -11.21161 -11.21016 -11.20990 -11.20931 -11.19897
 Alpha  occ. eigenvalues --   -1.59994  -1.39550  -1.19452  -1.08856  -1.08073
 Alpha  occ. eigenvalues --   -1.04849  -1.03070  -0.95705  -0.95482  -0.86502
 Alpha  occ. eigenvalues --   -0.86248  -0.82531  -0.79167  -0.77870  -0.77584
 Alpha  occ. eigenvalues --   -0.72186  -0.71308  -0.70560  -0.65109  -0.64854
 Alpha  occ. eigenvalues --   -0.64717  -0.62197  -0.60482  -0.58893  -0.57077
 Alpha  occ. eigenvalues --   -0.55353  -0.54799  -0.53181  -0.52942  -0.52119
 Alpha  occ. eigenvalues --   -0.51915  -0.49464  -0.48948  -0.48934  -0.47456
 Alpha  occ. eigenvalues --   -0.46238  -0.45401  -0.45344  -0.44938  -0.43279
 Alpha  occ. eigenvalues --   -0.37427  -0.36448
 Alpha virt. eigenvalues --    0.04912   0.11167   0.16398   0.21227   0.23119
 Alpha virt. eigenvalues --    0.24635   0.26711   0.27311   0.27703   0.28199
 Alpha virt. eigenvalues --    0.28753   0.30773   0.31595   0.32034   0.32755

 Mulliken charges:
               1
     1  C   -0.297068
     2  C   -0.299189
     3  C   -0.475197
     4  H    0.149551
     5  H    0.145389
     6  H    0.152603
     7  H    0.150773
     8  H    0.152911
     9  H    0.155222
    10  H    0.159658
    11  C   -0.297449
    12  C   -0.298981
    13  C   -0.479763
    14  H    0.149714
    15  H    0.147283
    16  H    0.150433
    17  H    0.145083
    18  H    0.151349
    19  H    0.148791
    20  H    0.184376
    21  C   -0.170564
    22  C   -0.218500
    23  C   -0.171336
    24  C    0.158635
    25  C   -0.170714
    26  C   -0.218438
    27  H    0.226002
    28  H    0.223759
    29  H    0.276203
    30  H    0.275840
    31  H    0.223838
    32  N    0.488407
    33  O   -0.459167
    34  O   -0.459454
 Sum of Mulliken charges =  -0.00000

 Dipole moment (field-independent basis, Debye):
    X=             -0.9574    Y=              5.0608    Z=              0.4272  Tot=              5.1682
 Quadrupole moment (field-independent basis, Debye-Ang):
   XX=            -89.9101   YY=            -96.0046   ZZ=            -91.3921
   XY=            -15.5607   XZ=              1.3179   YZ=              1.0100

 Normal termination of Gaussian 16 at Thu May  6 12:06:07 2021.
