 Gaussian 16, Revision A.03,
 Gaussian 16:  EM64L-G16RevA.03 25-Dec-2016

 -------------
 #p 6-31g* mp2
 -------------

 ------------------------------------------------------
 Input file generated by CHIRIPA (05-May-2021 14:51:12)
 ------------------------------------------------------
 Symbolic Z-matrix:
 Charge =  0 Multiplicity = 1

                         Standard orientation:
 ---------------------------------------------------------------------
 Center     Atomic      Atomic             Coordinates (Angstroms)
 Number     Number       Type             X           Y           Z
 ---------------------------------------------------------------------
      1          6           0        3.996641    0.691540   -0.424177
      2          6           0        2.500190    0.939607   -0.231606
      3          6           0        2.056305    2.307913   -0.749775
      4          1           0        4.561840    1.480921    0.089994
      5          1           0        4.240972    0.777160   -1.492057
      6          1           0        2.258508    0.852179    0.835428
      7          1           0        1.938491    0.149436   -0.746135
      8          1           0        2.268978    2.402252   -1.819574
      9          1           0        2.590813    3.108988   -0.229025
     10          1           0        0.983178    2.464307   -0.602127
     11          6           0        4.455609   -0.672209    0.088915
     12          6           0        5.952059   -0.920275   -0.103656
     13          6           0        6.395945   -2.288581    0.414513
     14          1           0        4.211277   -0.757829    1.156794
     15          1           0        3.890409   -1.461590   -0.425257
     16          1           0        6.513759   -0.130105    0.410873
     17          1           0        6.193742   -0.832848   -1.170690
     18          1           0        5.861437   -3.089657   -0.106237
     19          1           0        6.183272   -2.382921    1.484312
     20          1           0        7.469071   -2.444976    0.266865
     21          6           0       -4.683500   -0.599062    0.331496
     22          6           0       -5.771811   -0.831852   -0.717014
     23          6           0       -6.678778   -2.014366   -0.375159
     24          1           0       -4.078209   -1.510466    0.431048
     25          1           0       -5.156047   -0.429363    1.308889
     26          1           0       -5.297393   -0.999688   -1.692399
     27          1           0       -6.374462    0.080278   -0.814220
     28          1           0       -7.178609   -1.851488    0.585175
     29          1           0       -6.095421   -2.937590   -0.297994
     30          1           0       -7.449521   -2.162814   -1.137901
     31          6           0       -3.768749    0.579731    0.003766
     32          6           0       -2.680439    0.812521    1.052277
     33          6           0       -1.773472    1.995035    0.710421
     34          1           0       -3.296203    0.410032   -0.973627
     35          1           0       -4.374040    1.491135   -0.095786
     36          1           0       -2.077787   -0.099608    1.149482
     37          1           0       -3.154856    0.980357    2.027661
     38          1           0       -2.356829    2.918258    0.633256
     39          1           0       -1.273641    1.832158   -0.249913
     40          1           0       -1.002728    2.143484    1.473163
 ---------------------------------------------------------------------

 SCF Done:  E(RHF) =  -470.733108998     A.U. after   11 cycles
 E2 =    -0.1582427851D+01 EUMP2 =    -0.47231553684874D+03

 The electronic state is 1-A.
 Alpha  occ. eigenvalues --  -11.21620 -11.21611 -11.21588 -11.21558 -11.21419
 Alpha  occ. eigenvalues --  -11.21380 -11.21359 -11.21320 -11.21102 -11.21078
 Alpha  occ. eigenvalues --  -11.21063 -11.20936  -1.08446  -1.08399  -1.03559
 Alpha  occ. eigenvalues --   -1.03481  -0.96034  -0.95907  -0.87070  -0.86909
 Alpha  occ. eigenvalues --   -0.79632  -0.79537  -0.78257  -0.78214  -0.65079
 Alpha  occ. eigenvalues --   -0.65032  -0.60981  -0.60889  -0.59441  -0.59249
 Alpha  occ. eigenvalues --   -0.57630  -0.57555  -0.55286  -0.55223  -0.52874
 Alpha  occ. eigenvalues --   -0.52563  -0.52437  -0.52240  -0.49911  -0.49878
 Alpha  occ. eigenvalues --   -0.47977  -0.47820  -0.46627  -0.46593  -0.45800
 Alpha  occ. eigenvalues --   -0.45757  -0.45717  -0.45683  -0.43846  -0.43673
 Alpha virt. eigenvalues --    0.21983   0.23037   0.23492   0.25005   0.26485
 Alpha virt. eigenvalues --    0.26633   0.26953   0.27394   0.27718   0.29110
 Alpha virt. eigenvalues --    0.30140   0.31136   0.31531   0.31627   0.32098

 Mulliken charges:
               1
     1  C   -0.298102
     2  C   -0.298867
     3  C   -0.483751
     4  H    0.149654
     5  H    0.149429
     6  H    0.151665
     7  H    0.150893
     8  H    0.154098
     9  H    0.154625
    10  H    0.169585
    11  C   -0.298195
    12  C   -0.299623
    13  C   -0.475681
    14  H    0.149408
    15  H    0.149393
    16  H    0.151947
    17  H    0.151893
    18  H    0.155086
    19  H    0.155145
    20  H    0.160214
    21  C   -0.298330
    22  C   -0.299664
    23  C   -0.475717
    24  H    0.149721
    25  H    0.149575
    26  H    0.151926
    27  H    0.151972
    28  H    0.155205
    29  H    0.155196
    30  H    0.160284
    31  C   -0.298669
    32  C   -0.299681
    33  C   -0.479663
    34  H    0.149703
    35  H    0.149705
    36  H    0.152506
    37  H    0.151965
    38  H    0.155558
    39  H    0.158195
    40  H    0.161394
 Sum of Mulliken charges =  -0.00000

 Dipole moment (field-independent basis, Debye):
    X=             -0.0440    Y=              0.0086    Z=              0.0120  Tot=              0.0464
 Quadrupole moment (field-independent basis, Debye-Ang):
   XX=            -85.2337   YY=            -85.8143   ZZ=            -83.8017
   XY=             -0.5246   XZ=             -0.1985   YZ=              1.1456

 Normal termination of Gaussian 16 at Thu May  6 03:55:56 2021.
