 Gaussian 16, Revision A.03,
 Gaussian 16:  EM64L-G16RevA.03 25-Dec-2016

 -------------
 #p 6-31g* mp2
 -------------

 ------------------------------------------------------
 Input file generated by CHIRIPA (05-May-2021 14:55:24)
 ------------------------------------------------------
 Symbolic Z-matrix:
 Charge =  0 Multiplicity = 1

                         Standard orientation:
 ---------------------------------------------------------------------
 Center     Atomic      Atomic             Coordinates (Angstroms)
 Number     Number       Type             X           Y           Z
 ---------------------------------------------------------------------
      1          6           0        3.648512   -2.524652    0.184904
      2          6           0        2.459253   -2.294052   -0.514387
      3          6           0        1.979214   -0.992666   -0.689051
      4          6           0        2.717095    0.059421   -0.148742
      5          6           0        3.905369   -0.138037    0.552904
      6          6           0        4.366509   -1.447808    0.715382
      7          1           0        4.014077   -3.538857    0.315854
      8          1           0        1.899564   -3.128420   -0.927452
      9          1           0        1.061516   -0.785646   -1.226072
     10          1           0        4.441344    0.713974    0.953187
     11          1           0        5.290416   -1.623908    1.258915
     12          7           0        2.218904    1.441577   -0.327200
     13          8           0        2.887510    2.351353    0.158506
     14          8           0        1.169248    1.588965   -0.949403
     15          6           0       -3.449177    0.942624   -0.039220
     16          6           0       -2.171033    1.508125    0.580893
     17          6           0       -1.916991    2.963651    0.187573
     18          1           0       -3.384893    1.022494   -1.133036
     19          1           0       -4.303118    1.561289    0.269705
     20          1           0       -1.319943    0.887762    0.272009
     21          1           0       -2.238287    1.426725    1.673352
     22          1           0       -2.747101    3.600392    0.510187
     23          1           0       -1.823539    3.058367   -0.899119
     24          1           0       -0.998338    3.347797    0.641850
     25          6           0       -3.716783   -0.511583    0.344704
     26          6           0       -4.994927   -1.077083   -0.275410
     27          6           0       -5.248969   -2.532609    0.117910
     28          1           0       -2.862844   -1.130247    0.035777
     29          1           0       -3.781068   -0.591451    1.438520
     30          1           0       -4.927674   -0.995683   -1.367869
     31          1           0       -5.846018   -0.456719    0.033475
     32          1           0       -5.342421   -2.627324    1.204602
     33          1           0       -4.418859   -3.169350   -0.204704
     34          1           0       -6.167622   -2.916755   -0.336367
 ---------------------------------------------------------------------

 SCF Done:  E(RHF) =  -669.536054291     A.U. after   15 cycles
 E2 =    -0.2091839870D+01 EUMP2 =    -0.67162789416028D+03

 The electronic state is 1-A.
 Alpha  occ. eigenvalues --  -20.60985 -20.60972 -15.85995 -11.31309 -11.27875
 Alpha  occ. eigenvalues --  -11.27865 -11.27602 -11.26876 -11.26866 -11.21360
 Alpha  occ. eigenvalues --  -11.21031 -11.20969 -11.20698 -11.20527 -11.19638
 Alpha  occ. eigenvalues --   -1.60031  -1.39589  -1.19475  -1.08881  -1.07867
 Alpha  occ. eigenvalues --   -1.04871  -1.02839  -0.95730  -0.95284  -0.86314
 Alpha  occ. eigenvalues --   -0.86268  -0.82561  -0.78980  -0.77682  -0.77559
 Alpha  occ. eigenvalues --   -0.72227  -0.71343  -0.70585  -0.65137  -0.64875
 Alpha  occ. eigenvalues --   -0.64500  -0.62221  -0.60222  -0.58740  -0.56875
 Alpha  occ. eigenvalues --   -0.55375  -0.54587  -0.53199  -0.52964  -0.51949
 Alpha  occ. eigenvalues --   -0.51726  -0.49318  -0.48984  -0.48921  -0.47264
 Alpha  occ. eigenvalues --   -0.46054  -0.45321  -0.45136  -0.44688  -0.43103
 Alpha  occ. eigenvalues --   -0.37450  -0.36470
 Alpha virt. eigenvalues --    0.04874   0.11159   0.16350   0.21077   0.23230
 Alpha virt. eigenvalues --    0.24887   0.26292   0.27428   0.27749   0.28662
 Alpha virt. eigenvalues --    0.28818   0.30685   0.31658   0.32165   0.33084

 Mulliken charges:
               1
     1  C   -0.170515
     2  C   -0.218396
     3  C   -0.171282
     4  C    0.158550
     5  C   -0.170743
     6  C   -0.218490
     7  H    0.226121
     8  H    0.223957
     9  H    0.275737
    10  H    0.275865
    11  H    0.223911
    12  N    0.488838
    13  O   -0.458832
    14  O   -0.459085
    15  C   -0.298218
    16  C   -0.302650
    17  C   -0.469156
    18  H    0.149479
    19  H    0.147783
    20  H    0.157148
    21  H    0.145110
    22  H    0.144600
    23  H    0.159892
    24  H    0.169292
    25  C   -0.295896
    26  C   -0.299131
    27  C   -0.474844
    28  H    0.142551
    29  H    0.148593
    30  H    0.151288
    31  H    0.152571
    32  H    0.154819
    33  H    0.151612
    34  H    0.159519
 Sum of Mulliken charges =  -0.00000

 Dipole moment (field-independent basis, Debye):
    X=              2.0470    Y=             -4.7716    Z=              0.5688  Tot=              5.2232
 Quadrupole moment (field-independent basis, Debye-Ang):
   XX=            -82.8308   YY=            -96.2187   ZZ=            -93.7871
   XY=            -12.2973   XZ=              3.6612   YZ=              2.1021

 Normal termination of Gaussian 16 at Thu May  6 06:23:33 2021.
