 Gaussian 16, Revision A.03,
 Gaussian 16:  EM64L-G16RevA.03 25-Dec-2016

 -------------
 #p 6-31g* mp2
 -------------

 ------------------------------------------------------
 Input file generated by CHIRIPA (05-May-2021 14:55:21)
 ------------------------------------------------------
 Symbolic Z-matrix:
 Charge =  0 Multiplicity = 1

                         Standard orientation:
 ---------------------------------------------------------------------
 Center     Atomic      Atomic             Coordinates (Angstroms)
 Number     Number       Type             X           Y           Z
 ---------------------------------------------------------------------
      1          6           0       -1.677159    0.974197   -0.582391
      2          6           0       -2.692024    1.874833   -0.242647
      3          6           0       -3.977815    1.415378    0.057668
      4          6           0       -4.214756    0.042531    0.008277
      5          6           0       -3.224627   -0.879804   -0.326735
      6          6           0       -1.946226   -0.397828   -0.623278
      7          1           0       -0.681196    1.339860   -0.814217
      8          1           0       -2.485943    2.940908   -0.210093
      9          1           0       -4.782024    2.090554    0.323759
     10          1           0       -3.460402   -1.936805   -0.350752
     11          1           0       -1.160011   -1.099587   -0.886805
     12          7           0       -5.572055   -0.455795    0.324211
     13          8           0       -5.755181   -1.670100    0.273577
     14          8           0       -6.427077    0.377359    0.616490
     15          6           0        4.501144   -0.594519   -0.103007
     16          6           0        3.169614    0.137221    0.068957
     17          6           0        1.963795   -0.746059   -0.252932
     18          1           0        4.579439   -0.962415   -1.135222
     19          1           0        4.510981   -1.480895    0.546329
     20          1           0        3.162846    1.022716   -0.579479
     21          1           0        3.094565    0.503583    1.100830
     22          1           0        1.942705   -1.622899    0.402283
     23          1           0        2.011374   -1.100818   -1.287574
     24          1           0        1.022400   -0.203047   -0.123423
     25          6           0        5.715963    0.275388    0.215116
     26          6           0        7.047493   -0.456352    0.043152
     27          6           0        8.253312    0.426927    0.365041
     28          1           0        5.706126    1.161763   -0.434221
     29          1           0        5.637668    0.643283    1.247331
     30          1           0        7.122543   -0.822714   -0.988721
     31          1           0        7.054262   -1.341846    0.691588
     32          1           0        8.205733    0.781686    1.399682
     33          1           0        8.274402    1.303768   -0.290174
     34          1           0        9.194707   -0.116085    0.235531
 ---------------------------------------------------------------------

 SCF Done:  E(RHF) =  -669.534917677     A.U. after   15 cycles
 E2 =    -0.2091695825D+01 EUMP2 =    -0.67162661350185D+03

 The electronic state is 1-A.
 Alpha  occ. eigenvalues --  -20.60732 -20.60726 -15.85784 -11.31148 -11.27711
 Alpha  occ. eigenvalues --  -11.27695 -11.27431 -11.26732 -11.26673 -11.22588
 Alpha  occ. eigenvalues --  -11.22308 -11.22139 -11.22100 -11.21977 -11.21490
 Alpha  occ. eigenvalues --   -1.59807  -1.39360  -1.19315  -1.09158  -1.08715
 Alpha  occ. eigenvalues --   -1.04715  -1.04299  -0.96775  -0.95550  -0.87808
 Alpha  occ. eigenvalues --   -0.86108  -0.82379  -0.80382  -0.78924  -0.77424
 Alpha  occ. eigenvalues --   -0.72003  -0.71129  -0.70461  -0.65779  -0.64977
 Alpha  occ. eigenvalues --   -0.64754  -0.62093  -0.61684  -0.60145  -0.58361
 Alpha  occ. eigenvalues --   -0.56035  -0.55236  -0.53559  -0.53205  -0.52978
 Alpha  occ. eigenvalues --   -0.52736  -0.50691  -0.48761  -0.48759  -0.48681
 Alpha  occ. eigenvalues --   -0.47385  -0.46477  -0.46370  -0.44766  -0.44542
 Alpha  occ. eigenvalues --   -0.37286  -0.36310
 Alpha virt. eigenvalues --    0.05085   0.11269   0.16555   0.20453   0.22373
 Alpha virt. eigenvalues --    0.23768   0.25935   0.26045   0.26499   0.27471
 Alpha virt. eigenvalues --    0.28994   0.29694   0.30686   0.31363   0.31909

 Mulliken charges:
               1
     1  C   -0.174498
     2  C   -0.218680
     3  C   -0.171225
     4  C    0.158537
     5  C   -0.171922
     6  C   -0.220537
     7  H    0.227505
     8  H    0.223298
     9  H    0.275411
    10  H    0.275658
    11  H    0.229828
    12  N    0.488086
    13  O   -0.460419
    14  O   -0.460547
    15  C   -0.299243
    16  C   -0.300000
    17  C   -0.485374
    18  H    0.150655
    19  H    0.151755
    20  H    0.150402
    21  H    0.155240
    22  H    0.161287
    23  H    0.155823
    24  H    0.154956
    25  C   -0.298867
    26  C   -0.300195
    27  C   -0.476082
    28  H    0.149685
    29  H    0.150780
    30  H    0.152536
    31  H    0.152998
    32  H    0.155867
    33  H    0.155458
    34  H    0.161822
 Sum of Mulliken charges =  -0.00000

 Dipole moment (field-independent basis, Debye):
    X=              5.0044    Y=              1.7221    Z=             -1.0796  Tot=              5.4014
 Quadrupole moment (field-independent basis, Debye-Ang):
   XX=           -135.2658   YY=            -90.3817   ZZ=            -94.5992
   XY=             -9.4613   XZ=              4.3629   YZ=              0.4126

 Normal termination of Gaussian 16 at Thu May  6 10:54:47 2021.
