 Gaussian 16, Revision A.03,
 Gaussian 16:  EM64L-G16RevA.03 25-Dec-2016

 -------------
 #p 6-31g* mp2
 -------------

 ------------------------------------------------------
 Input file generated by CHIRIPA (05-May-2021 14:53:15)
 ------------------------------------------------------
 Symbolic Z-matrix:
 Charge =  0 Multiplicity = 1

                         Standard orientation:
 ---------------------------------------------------------------------
 Center     Atomic      Atomic             Coordinates (Angstroms)
 Number     Number       Type             X           Y           Z
 ---------------------------------------------------------------------
      1          6           0       -3.803821    0.426325   -0.310149
      2          6           0       -5.266535    0.871215   -0.287211
      3          6           0       -5.547701    2.027996   -1.246689
      4          1           0       -3.163127    1.281171   -0.053838
      5          1           0       -3.534182    0.129251   -1.333104
      6          1           0       -5.533728    1.166050    0.735675
      7          1           0       -5.903832    0.015163   -0.543419
      8          1           0       -5.308526    1.741611   -2.275951
      9          1           0       -4.936318    2.899036   -0.989589
     10          1           0       -6.599170    2.330018   -1.214196
     11          6           0       -3.507080   -0.729354    0.643832
     12          6           0       -2.044366   -1.174245    0.620895
     13          6           0       -1.763200   -2.331025    1.580372
     14          1           0       -3.776719   -0.432280    1.666787
     15          1           0       -4.147774   -1.584200    0.387521
     16          1           0       -1.407069   -0.318193    0.877103
     17          1           0       -1.777173   -1.469079   -0.401992
     18          1           0       -2.374583   -3.202066    1.323272
     19          1           0       -2.002376   -2.044640    2.609634
     20          1           0       -0.711731   -2.633047    1.547879
     21          6           0        3.679377    2.308767    0.812970
     22          6           0        4.472776    1.592793   -0.089484
     23          6           0        4.026581    0.378054   -0.618510
     24          6           0        2.776202   -0.093388   -0.221541
     25          6           0        1.962559    0.596745    0.675671
     26          6           0        2.429006    1.809338    1.191999
     27          1           0        4.033859    3.251571    1.218998
     28          1           0        5.444256    1.978238   -0.385630
     29          1           0        4.620368   -0.196707   -1.318857
     30          1           0        0.998625    0.187031    0.952045
     31          1           0        1.810701    2.363227    1.892678
     32          7           0        2.293116   -1.378243   -0.774876
     33          8           0        1.187743   -1.772069   -0.409239
     34          8           0        3.028993   -1.967155   -1.563737
 ---------------------------------------------------------------------

 SCF Done:  E(RHF) =  -669.535532383     A.U. after   15 cycles
 E2 =    -0.2092487312D+01 EUMP2 =    -0.67162801969551D+03

 The electronic state is 1-A.
 Alpha  occ. eigenvalues --  -20.60905 -20.60890 -15.85934 -11.31241 -11.27812
 Alpha  occ. eigenvalues --  -11.27784 -11.27551 -11.26818 -11.26805 -11.21382
 Alpha  occ. eigenvalues --  -11.21084 -11.20931 -11.20921 -11.20872 -11.20160
 Alpha  occ. eigenvalues --   -1.59966  -1.39522  -1.19414  -1.08823  -1.08018
 Alpha  occ. eigenvalues --   -1.04810  -1.03051  -0.95694  -0.95475  -0.86527
 Alpha  occ. eigenvalues --   -0.86211  -0.82505  -0.79149  -0.77897  -0.77467
 Alpha  occ. eigenvalues --   -0.72173  -0.71278  -0.70531  -0.65075  -0.64851
 Alpha  occ. eigenvalues --   -0.64638  -0.62179  -0.60457  -0.58861  -0.57048
 Alpha  occ. eigenvalues --   -0.55321  -0.54819  -0.53142  -0.52906  -0.52157
 Alpha  occ. eigenvalues --   -0.51922  -0.49483  -0.48922  -0.48898  -0.47451
 Alpha  occ. eigenvalues --   -0.46201  -0.45411  -0.45296  -0.44837  -0.43288
 Alpha  occ. eigenvalues --   -0.37395  -0.36409
 Alpha virt. eigenvalues --    0.04947   0.11235   0.16429   0.20632   0.23207
 Alpha virt. eigenvalues --    0.24186   0.26118   0.27381   0.27634   0.28317
 Alpha virt. eigenvalues --    0.29225   0.30658   0.31500   0.32022   0.32568

 Mulliken charges:
               1
     1  C   -0.297137
     2  C   -0.299124
     3  C   -0.475316
     4  H    0.144143
     5  H    0.151829
     6  H    0.150297
     7  H    0.152724
     8  H    0.155874
     9  H    0.152985
    10  H    0.159454
    11  C   -0.298477
    12  C   -0.294686
    13  C   -0.482479
    14  H    0.145084
    15  H    0.150463
    16  H    0.134218
    17  H    0.168205
    18  H    0.154353
    19  H    0.145200
    20  H    0.178753
    21  C   -0.170189
    22  C   -0.219065
    23  C   -0.169926
    24  C    0.154787
    25  C   -0.175941
    26  C   -0.221992
    27  H    0.225834
    28  H    0.223616
    29  H    0.275662
    30  H    0.289273
    31  H    0.223878
    32  N    0.493460
    33  O   -0.466445
    34  O   -0.459317
 Sum of Mulliken charges =  -0.00000

 Dipole moment (field-independent basis, Debye):
    X=              1.8857    Y=              4.3674    Z=              1.8115  Tot=              5.0903
 Quadrupole moment (field-independent basis, Debye-Ang):
   XX=            -82.5311   YY=            -96.2379   ZZ=            -94.9728
   XY=             12.9125   XZ=              2.7930   YZ=              0.3739

 Normal termination of Gaussian 16 at Thu May  6 05:51:55 2021.
