 Gaussian 16, Revision A.03,
 Gaussian 16:  EM64L-G16RevA.03 25-Dec-2016

 -------------
 #p 6-31g* mp2
 -------------

 ------------------------------------------------------
 Input file generated by CHIRIPA (05-May-2021 14:55:18)
 ------------------------------------------------------
 Symbolic Z-matrix:
 Charge =  0 Multiplicity = 1

                         Standard orientation:
 ---------------------------------------------------------------------
 Center     Atomic      Atomic             Coordinates (Angstroms)
 Number     Number       Type             X           Y           Z
 ---------------------------------------------------------------------
      1          6           0       -4.537123    0.646308   -1.240652
      2          6           0       -3.516715    1.533723   -0.883187
      3          6           0       -2.454710    1.108055   -0.079756
      4          6           0       -2.444777   -0.217891    0.350428
      5          6           0       -3.446610   -1.125949    0.011235
      6          6           0       -4.498882   -0.678360   -0.793089
      7          1           0       -5.358334    0.985491   -1.865123
      8          1           0       -3.543808    2.563046   -1.229316
      9          1           0       -1.651663    1.773970    0.211944
     10          1           0       -3.392151   -2.146039    0.371607
     11          1           0       -5.289974   -1.369750   -1.069132
     12          7           0       -1.325632   -0.680130    1.201457
     13          8           0       -1.340056   -1.853348    1.567503
     14          8           0       -0.455213    0.139537    1.486333
     15          6           0        3.328356   -0.550071   -0.052155
     16          6           0        3.800049   -1.526707   -1.129963
     17          6           0        3.719991   -2.986155   -0.681192
     18          1           0        3.935711   -0.690866    0.852413
     19          1           0        2.293305   -0.793060    0.225370
     20          1           0        4.833434   -1.281079   -1.406364
     21          1           0        3.191627   -1.383439   -2.032134
     22          1           0        2.690077   -3.254254   -0.424286
     23          1           0        4.341213   -3.151313    0.205040
     24          1           0        4.061902   -3.667093   -1.466865
     25          6           0        3.402461    0.912845   -0.485874
     26          6           0        2.930768    1.889482    0.591933
     27          6           0        3.010826    3.348931    0.143163
     28          1           0        4.437512    1.155835   -0.763400
     29          1           0        2.795107    1.053640   -1.390442
     30          1           0        3.539191    1.746213    1.494105
     31          1           0        1.897383    1.643854    0.868334
     32          1           0        2.389604    3.514087   -0.743070
     33          1           0        4.040741    3.617029   -0.113742
     34          1           0        2.668916    4.029868    0.928835
 ---------------------------------------------------------------------

 SCF Done:  E(RHF) =  -669.536398693     A.U. after   15 cycles
 E2 =    -0.2091579753D+01 EUMP2 =    -0.67162797844626D+03

 The electronic state is 1-A.
 Alpha  occ. eigenvalues --  -20.61063 -20.61057 -15.86086 -11.31363 -11.27922
 Alpha  occ. eigenvalues --  -11.27917 -11.27650 -11.26918 -11.26909 -11.20758
 Alpha  occ. eigenvalues --  -11.20522 -11.20465 -11.20418 -11.20242 -11.20226
 Alpha  occ. eigenvalues --   -1.60116  -1.39674  -1.19528  -1.08940  -1.07463
 Alpha  occ. eigenvalues --   -1.04917  -1.02655  -0.95788  -0.95131  -0.86320
 Alpha  occ. eigenvalues --   -0.86148  -0.82626  -0.78696  -0.77690  -0.77232
 Alpha  occ. eigenvalues --   -0.72307  -0.71425  -0.70636  -0.65187  -0.64919
 Alpha  occ. eigenvalues --   -0.64091  -0.62265  -0.60060  -0.58496  -0.56728
 Alpha  occ. eigenvalues --   -0.55423  -0.54434  -0.53252  -0.53008  -0.51857
 Alpha  occ. eigenvalues --   -0.51547  -0.49147  -0.49062  -0.48998  -0.47016
 Alpha  occ. eigenvalues --   -0.45711  -0.45249  -0.44827  -0.44460  -0.42884
 Alpha  occ. eigenvalues --   -0.37503  -0.36516
 Alpha virt. eigenvalues --    0.04809   0.11139   0.16290   0.21117   0.23691
 Alpha virt. eigenvalues --    0.24936   0.26968   0.27429   0.27957   0.28755
 Alpha virt. eigenvalues --    0.28993   0.30816   0.31780   0.32390   0.32552

 Mulliken charges:
               1
     1  C   -0.170435
     2  C   -0.218589
     3  C   -0.170691
     4  C    0.157589
     5  C   -0.170741
     6  C   -0.218556
     7  H    0.226325
     8  H    0.224291
     9  H    0.275958
    10  H    0.276000
    11  H    0.224103
    12  N    0.493406
    13  O   -0.458083
    14  O   -0.465334
    15  C   -0.303250
    16  C   -0.298804
    17  C   -0.475664
    18  H    0.148935
    19  H    0.165951
    20  H    0.148180
    21  H    0.147317
    22  H    0.159607
    23  H    0.155118
    24  H    0.155588
    25  C   -0.296099
    26  C   -0.309960
    27  C   -0.474939
    28  H    0.144735
    29  H    0.143173
    30  H    0.151021
    31  H    0.175366
    32  H    0.148215
    33  H    0.152671
    34  H    0.157597
 Sum of Mulliken charges =  -0.00000

 Dipole moment (field-independent basis, Debye):
    X=             -4.2704    Y=              1.5151    Z=             -2.8253  Tot=              5.3399
 Quadrupole moment (field-independent basis, Debye-Ang):
   XX=            -75.0742   YY=            -93.2286   ZZ=            -97.7186
   XY=             -1.2388   XZ=              7.0375   YZ=              1.1268

 Normal termination of Gaussian 16 at Thu May  6 09:12:28 2021.
