 Gaussian 16, Revision A.03,
 Gaussian 16:  EM64L-G16RevA.03 25-Dec-2016

 -------------
 #p 6-31g* mp2
 -------------

 ------------------------------------------------------
 Input file generated by CHIRIPA (05-May-2021 14:51:07)
 ------------------------------------------------------
 Symbolic Z-matrix:
 Charge =  0 Multiplicity = 1

                         Standard orientation:
 ---------------------------------------------------------------------
 Center     Atomic      Atomic             Coordinates (Angstroms)
 Number     Number       Type             X           Y           Z
 ---------------------------------------------------------------------
      1          6           0       -3.811918   -0.059931   -0.576747
      2          6           0       -4.667073   -1.021325    0.249338
      3          6           0       -5.434159   -2.022180   -0.615337
      4          1           0       -4.457442    0.481570   -1.281745
      5          1           0       -3.103280   -0.639956   -1.184034
      6          1           0       -5.372953   -0.439599    0.855922
      7          1           0       -4.019466   -1.560461    0.952583
      8          1           0       -4.742179   -2.627493   -1.209778
      9          1           0       -6.103355   -1.500263   -1.306988
     10          1           0       -6.038878   -2.699727   -0.004514
     11          6           0       -3.039012    0.946713    0.273554
     12          6           0       -2.183857    1.908108   -0.552531
     13          6           0       -1.416771    2.908963    0.312144
     14          1           0       -3.747650    1.526738    0.880841
     15          1           0       -2.393488    0.405213    0.978552
     16          1           0       -2.831464    2.447244   -1.255776
     17          1           0       -1.477978    1.326381   -1.159115
     18          1           0       -0.747575    2.387045    1.003795
     19          1           0       -2.108752    3.514276    0.906585
     20          1           0       -0.812052    3.586509   -0.298679
     21          6           0        4.114107   -0.732118   -0.009158
     22          6           0        5.150786    0.334181   -0.364528
     23          6           0        6.523425   -0.258977   -0.683620
     24          1           0        4.473908   -1.311610    0.852049
     25          1           0        4.023706   -1.438850   -0.845670
     26          1           0        5.238197    1.039484    0.471848
     27          1           0        4.788387    0.911326   -1.224869
     28          1           0        6.457700   -0.947605   -1.532190
     29          1           0        6.910065   -0.818720    0.174167
     30          1           0        7.249157    0.520783   -0.934913
     31          6           0        2.736824   -0.154664    0.312351
     32          6           0        1.700144   -1.220963    0.667721
     33          6           0        0.327505   -0.627806    0.986813
     34          1           0        2.827225    0.552068    1.148863
     35          1           0        2.377022    0.424828   -0.548855
     36          1           0        2.062544   -1.798109    1.528062
     37          1           0        1.612734   -1.926266   -0.168655
     38          1           0       -0.059134   -0.068063    0.129026
     39          1           0        0.393231    0.060823    1.835383
     40          1           0       -0.398227   -1.407566    1.238106
 ---------------------------------------------------------------------

 SCF Done:  E(RHF) =  -470.731944379     A.U. after   11 cycles
 E2 =    -0.1584431480D+01 EUMP2 =    -0.47231637585958D+03

 The electronic state is 1-A.
 Alpha  occ. eigenvalues --  -11.21662 -11.21625 -11.21556 -11.21539 -11.21449
 Alpha  occ. eigenvalues --  -11.21387 -11.21312 -11.21200 -11.21151 -11.21089
 Alpha  occ. eigenvalues --  -11.21039 -11.20957  -1.08489  -1.08346  -1.03619
 Alpha  occ. eigenvalues --   -1.03442  -0.96048  -0.95906  -0.87093  -0.86912
 Alpha  occ. eigenvalues --   -0.79686  -0.79526  -0.78302  -0.78147  -0.65207
 Alpha  occ. eigenvalues --   -0.64942  -0.61156  -0.60773  -0.59420  -0.59280
 Alpha  occ. eigenvalues --   -0.57653  -0.57495  -0.55326  -0.55196  -0.52766
 Alpha  occ. eigenvalues --   -0.52608  -0.52466  -0.52290  -0.50127  -0.49707
 Alpha  occ. eigenvalues --   -0.48094  -0.47717  -0.46774  -0.46478  -0.45929
 Alpha  occ. eigenvalues --   -0.45773  -0.45612  -0.45527  -0.43797  -0.43706
 Alpha virt. eigenvalues --    0.21005   0.23005   0.23857   0.24817   0.25457
 Alpha virt. eigenvalues --    0.26315   0.26946   0.27529   0.28136   0.29374
 Alpha virt. eigenvalues --    0.30387   0.30905   0.31795   0.32121   0.32407

 Mulliken charges:
               1
     1  C   -0.297920
     2  C   -0.299638
     3  C   -0.475638
     4  H    0.149243
     5  H    0.148892
     6  H    0.151901
     7  H    0.151575
     8  H    0.154987
     9  H    0.155123
    10  H    0.160031
    11  C   -0.305336
    12  C   -0.302114
    13  C   -0.478987
    14  H    0.148968
    15  H    0.160739
    16  H    0.152795
    17  H    0.150319
    18  H    0.159545
    19  H    0.154800
    20  H    0.159372
    21  C   -0.298310
    22  C   -0.299678
    23  C   -0.475743
    24  H    0.149770
    25  H    0.149553
    26  H    0.152081
    27  H    0.152058
    28  H    0.155196
    29  H    0.155208
    30  H    0.160384
    31  C   -0.298555
    32  C   -0.300509
    33  C   -0.483412
    34  H    0.149668
    35  H    0.149743
    36  H    0.152047
    37  H    0.151879
    38  H    0.164061
    39  H    0.156174
    40  H    0.159729
 Sum of Mulliken charges =  -0.00000

 Dipole moment (field-independent basis, Debye):
    X=              0.0434    Y=             -0.0142    Z=              0.0283  Tot=              0.0537
 Quadrupole moment (field-independent basis, Debye-Ang):
   XX=            -85.7159   YY=            -85.2004   ZZ=            -84.1098
   XY=             -0.6476   XZ=              0.2180   YZ=             -0.3851

 Normal termination of Gaussian 16 at Wed May  5 15:01:13 2021.
