 Gaussian 16, Revision A.03,
 Gaussian 16:  EM64L-G16RevA.03 25-Dec-2016

 -------------
 #p 6-31g* mp2
 -------------

 ------------------------------------------------------
 Input file generated by CHIRIPA (05-May-2021 14:55:23)
 ------------------------------------------------------
 Symbolic Z-matrix:
 Charge =  0 Multiplicity = 1

                         Standard orientation:
 ---------------------------------------------------------------------
 Center     Atomic      Atomic             Coordinates (Angstroms)
 Number     Number       Type             X           Y           Z
 ---------------------------------------------------------------------
      1          6           0        4.785079    0.637159   -0.021701
      2          6           0        4.427689   -0.404724   -0.883833
      3          6           0        3.144379   -0.957331   -0.835972
      4          6           0        2.239460   -0.441508    0.090493
      5          6           0        2.565491    0.595911    0.962706
      6          6           0        3.854480    1.133277    0.897197
      7          1           0        5.784191    1.060518   -0.065735
      8          1           0        5.148346   -0.792007   -1.598473
      9          1           0        2.841188   -1.764483   -1.491714
     10          1           0        1.825411    0.960993    1.664429
     11          1           0        4.129255    1.942359    1.567966
     12          7           0        0.877871   -1.018461    0.150503
     13          8           0        0.098951   -0.546307    0.975725
     14          8           0        0.615360   -1.931905   -0.628820
     15          6           0       -3.274552   -0.252760   -0.393303
     16          6           0       -3.687149   -1.284281    0.657274
     17          6           0       -3.925226   -2.672136    0.061477
     18          1           0       -4.053910   -0.193169   -1.165310
     19          1           0       -2.361195   -0.598086   -0.897211
     20          1           0       -4.598681   -0.936448    1.160006
     21          1           0       -2.906806   -1.341284    1.426970
     22          1           0       -3.017016   -3.044039   -0.423746
     23          1           0       -4.718503   -2.636903   -0.692228
     24          1           0       -4.219185   -3.393890    0.829929
     25          6           0       -3.032947    1.139593    0.186960
     26          6           0       -2.620348    2.171114   -0.863618
     27          6           0       -2.382272    3.558969   -0.267821
     28          1           0       -3.946303    1.484920    0.690868
     29          1           0       -2.253587    1.080003    0.958966
     30          1           0       -3.400691    2.228118   -1.633314
     31          1           0       -1.708818    1.823282   -1.366349
     32          1           0       -1.588994    3.523737    0.485884
     33          1           0       -3.290481    3.930872    0.217403
     34          1           0       -2.088313    4.280723   -1.036272
 ---------------------------------------------------------------------

 SCF Done:  E(RHF) =  -669.537014886     A.U. after   15 cycles
 E2 =    -0.2092755333D+01 EUMP2 =    -0.67162977021936D+03

 The electronic state is 1-A.
 Alpha  occ. eigenvalues --  -20.61230 -20.61224 -15.86220 -11.31448 -11.27995
 Alpha  occ. eigenvalues --  -11.27990 -11.27713 -11.26977 -11.26967 -11.20604
 Alpha  occ. eigenvalues --  -11.20390 -11.19873 -11.19829 -11.19634 -11.19473
 Alpha  occ. eigenvalues --   -1.60260  -1.39820  -1.19602  -1.09026  -1.06947
 Alpha  occ. eigenvalues --   -1.04982  -1.02190  -0.95883  -0.94653  -0.86387
 Alpha  occ. eigenvalues --   -0.85690  -0.82722  -0.78295  -0.77790  -0.76704
 Alpha  occ. eigenvalues --   -0.72446  -0.71568  -0.70710  -0.65263  -0.64988
 Alpha  occ. eigenvalues --   -0.63526  -0.62329  -0.59576  -0.58090  -0.56267
 Alpha  occ. eigenvalues --   -0.55489  -0.53932  -0.53311  -0.53071  -0.51446
 Alpha  occ. eigenvalues --   -0.51098  -0.49241  -0.49196  -0.48549  -0.46622
 Alpha  occ. eigenvalues --   -0.45417  -0.45126  -0.44244  -0.44055  -0.42392
 Alpha  occ. eigenvalues --   -0.37573  -0.36576
 Alpha virt. eigenvalues --    0.04698   0.11079   0.16198   0.21162   0.24255
 Alpha virt. eigenvalues --    0.25625   0.27118   0.27627   0.28438   0.28878
 Alpha virt. eigenvalues --    0.29338   0.30930   0.32195   0.32702   0.32915

 Mulliken charges:
               1
     1  C   -0.170174
     2  C   -0.218600
     3  C   -0.170347
     4  C    0.158292
     5  C   -0.170358
     6  C   -0.218498
     7  H    0.226658
     8  H    0.224415
     9  H    0.276200
    10  H    0.275672
    11  H    0.224514
    12  N    0.490936
    13  O   -0.461650
    14  O   -0.458857
    15  C   -0.296586
    16  C   -0.300639
    17  C   -0.478050
    18  H    0.139405
    19  H    0.162565
    20  H    0.141672
    21  H    0.167002
    22  H    0.165891
    23  H    0.147547
    24  H    0.153567
    25  C   -0.302479
    26  C   -0.297534
    27  C   -0.474087
    28  H    0.141394
    29  H    0.165100
    30  H    0.148604
    31  H    0.148401
    32  H    0.151015
    33  H    0.153879
    34  H    0.155132
 Sum of Mulliken charges =  -0.00000

 Dipole moment (field-independent basis, Debye):
    X=              5.2938    Y=              1.8571    Z=             -0.1316  Tot=              5.6117
 Quadrupole moment (field-independent basis, Debye-Ang):
   XX=            -74.1588   YY=            -96.8764   ZZ=            -92.6327
   XY=              1.3716   XZ=             -1.1827   YZ=              2.9056

 Normal termination of Gaussian 16 at Thu May  6 14:16:28 2021.
