 Gaussian 16, Revision A.03,
 Gaussian 16:  EM64L-G16RevA.03 25-Dec-2016

 -------------
 #p 6-31g* mp2
 -------------

 ------------------------------------------------------
 Input file generated by CHIRIPA (05-May-2021 14:51:07)
 ------------------------------------------------------
 Symbolic Z-matrix:
 Charge =  0 Multiplicity = 1

                         Standard orientation:
 ---------------------------------------------------------------------
 Center     Atomic      Atomic             Coordinates (Angstroms)
 Number     Number       Type             X           Y           Z
 ---------------------------------------------------------------------
      1          6           0        3.044202   -0.583929   -0.769463
      2          6           0        2.501083   -1.843638   -0.094081
      3          6           0        2.943695   -3.128098   -0.795545
      4          1           0        2.712096   -0.564731   -1.816498
      5          1           0        4.141773   -0.631792   -0.790511
      6          1           0        1.404914   -1.792769   -0.073074
      7          1           0        2.834362   -1.859743    0.951520
      8          1           0        4.035708   -3.205802   -0.803919
      9          1           0        2.598138   -3.138448   -1.834335
     10          1           0        2.544192   -4.016331   -0.296245
     11          6           0        2.610355    0.708263   -0.079721
     12          6           0        3.153474    1.967972   -0.755103
     13          6           0        2.710863    3.252432   -0.053639
     14          1           0        1.512785    0.756126   -0.058673
     15          1           0        2.942461    0.689064    0.967314
     16          1           0        2.820195    1.984077   -1.800704
     17          1           0        4.249643    1.917103   -0.776110
     18          1           0        3.056419    3.262782    0.985151
     19          1           0        1.618849    3.330136   -0.045265
     20          1           0        3.110365    4.140664   -0.552939
     21          6           0       -2.388170    0.232144    0.975951
     22          6           0       -1.362630   -0.758536    1.528045
     23          6           0       -0.491660   -0.155039    2.630314
     24          1           0       -1.863025    1.115638    0.587870
     25          1           0       -3.026916    0.584154    1.797831
     26          1           0       -0.726897   -1.109625    0.705127
     27          1           0       -1.890266   -1.639858    1.914683
     28          1           0       -1.109580    0.178886    3.470116
     29          1           0        0.060399    0.712132    2.253689
     30          1           0        0.234359   -0.880370    3.010646
     31          6           0       -3.266388   -0.356478   -0.126767
     32          6           0       -4.291927    0.634202   -0.678861
     33          6           0       -5.162898    0.030705   -1.781130
     34          1           0       -2.627641   -0.708488   -0.948647
     35          1           0       -3.791532   -1.239971    0.261314
     36          1           0       -3.764292    1.515525   -1.065499
     37          1           0       -4.927661    0.985291    0.144057
     38          1           0       -5.714956   -0.836465   -1.404504
     39          1           0       -4.544977   -0.303220   -2.620932
     40          1           0       -5.888916    0.756036   -2.161461
 ---------------------------------------------------------------------

 SCF Done:  E(RHF) =  -470.733060002     A.U. after   11 cycles
 E2 =    -0.1583941134D+01 EUMP2 =    -0.47231700113658D+03

 The electronic state is 1-A.
 Alpha  occ. eigenvalues --  -11.21638 -11.21621 -11.21603 -11.21574 -11.21436
 Alpha  occ. eigenvalues --  -11.21423 -11.21377 -11.21363 -11.21115 -11.21088
 Alpha  occ. eigenvalues --  -11.21083 -11.20988  -1.08484  -1.08420  -1.03565
 Alpha  occ. eigenvalues --   -1.03518  -0.96014  -0.95963  -0.87031  -0.86979
 Alpha  occ. eigenvalues --   -0.79687  -0.79532  -0.78312  -0.78228  -0.65249
 Alpha  occ. eigenvalues --   -0.64939  -0.61028  -0.60867  -0.59438  -0.59281
 Alpha  occ. eigenvalues --   -0.57650  -0.57547  -0.55314  -0.55247  -0.52708
 Alpha  occ. eigenvalues --   -0.52648  -0.52462  -0.52367  -0.50002  -0.49878
 Alpha  occ. eigenvalues --   -0.48013  -0.47915  -0.46867  -0.46443  -0.46020
 Alpha  occ. eigenvalues --   -0.45791  -0.45698  -0.45378  -0.43812  -0.43778
 Alpha virt. eigenvalues --    0.20123   0.23317   0.23584   0.24003   0.25653
 Alpha virt. eigenvalues --    0.26453   0.27082   0.27927   0.28125   0.29702
 Alpha virt. eigenvalues --    0.30199   0.31033   0.31598   0.32014   0.32208

 Mulliken charges:
               1
     1  C   -0.297962
     2  C   -0.307547
     3  C   -0.475189
     4  H    0.149118
     5  H    0.149760
     6  H    0.159573
     7  H    0.152252
     8  H    0.155217
     9  H    0.154913
    10  H    0.160413
    11  C   -0.301879
    12  C   -0.299627
    13  C   -0.475947
    14  H    0.152398
    15  H    0.150943
    16  H    0.151760
    17  H    0.152255
    18  H    0.155588
    19  H    0.154446
    20  H    0.160642
    21  C   -0.298111
    22  C   -0.307075
    23  C   -0.477490
    24  H    0.148755
    25  H    0.149906
    26  H    0.157681
    27  H    0.151992
    28  H    0.154373
    29  H    0.158475
    30  H    0.160608
    31  C   -0.298182
    32  C   -0.299624
    33  C   -0.475711
    34  H    0.148802
    35  H    0.149903
    36  H    0.151775
    37  H    0.152119
    38  H    0.155269
    39  H    0.155069
    40  H    0.160337
 Sum of Mulliken charges =  -0.00000

 Dipole moment (field-independent basis, Debye):
    X=              0.0240    Y=             -0.0018    Z=              0.0079  Tot=              0.0253
 Quadrupole moment (field-independent basis, Debye-Ang):
   XX=            -84.1279   YY=            -85.8145   ZZ=            -84.7671
   XY=              0.2393   XZ=             -0.4216   YZ=             -0.8836

 Normal termination of Gaussian 16 at Wed May  5 16:33:03 2021.
