 Gaussian 16, Revision A.03,
 Gaussian 16:  EM64L-G16RevA.03 25-Dec-2016

 -------------
 #p 6-31g* mp2
 -------------

 ------------------------------------------------------
 Input file generated by CHIRIPA (05-May-2021 14:51:08)
 ------------------------------------------------------
 Symbolic Z-matrix:
 Charge =  0 Multiplicity = 1

                         Standard orientation:
 ---------------------------------------------------------------------
 Center     Atomic      Atomic             Coordinates (Angstroms)
 Number     Number       Type             X           Y           Z
 ---------------------------------------------------------------------
      1          6           0       -2.743788    0.321395   -0.164291
      2          6           0       -3.235240   -0.514506    1.017965
      3          6           0       -4.010979   -1.757575    0.581154
      4          1           0       -3.605370    0.621392   -0.776357
      5          1           0       -2.106681   -0.302823   -0.806039
      6          1           0       -3.870110    0.111491    1.658031
      7          1           0       -2.372407   -0.812386    1.627393
      8          1           0       -3.383151   -2.405160   -0.039383
      9          1           0       -4.889363   -1.476033   -0.008572
     10          1           0       -4.352946   -2.340489    1.442043
     11          6           0       -1.966530    1.567465    0.256312
     12          6           0       -1.475078    2.403367   -0.925944
     13          6           0       -0.699339    3.646435   -0.489133
     14          1           0       -2.603637    2.191684    0.898060
     15          1           0       -1.104948    1.267469    0.868378
     16          1           0       -2.337911    2.701247   -1.535372
     17          1           0       -0.840208    1.777370   -1.566010
     18          1           0        0.179045    3.364894    0.100593
     19          1           0       -1.327167    4.294021    0.131404
     20          1           0       -0.357372    4.229349   -1.350022
     21          6           0        2.556586   -0.267296    0.244419
     22          6           0        4.063444   -0.011850    0.198503
     23          6           0        4.450786    1.346836    0.783084
     24          1           0        2.038898    0.530894   -0.304977
     25          1           0        2.212526   -0.203709    1.286040
     26          1           0        4.404795   -0.077270   -0.842562
     27          1           0        4.577617   -0.810846    0.747909
     28          1           0        4.138026    1.419179    1.829769
     29          1           0        3.964223    2.156924    0.230261
     30          1           0        5.532366    1.508718    0.740224
     31          6           0        2.153732   -1.621564   -0.336439
     32          6           0        0.646873   -1.877011   -0.290524
     33          6           0        0.259532   -3.235696   -0.875105
     34          1           0        2.497792   -1.685153   -1.378060
     35          1           0        2.671419   -2.419756    0.212956
     36          1           0        0.132701   -1.078015   -0.839930
     37          1           0        0.305522   -1.811592    0.750541
     38          1           0        0.746095   -4.045786   -0.322282
     39          1           0        0.572292   -3.308040   -1.921790
     40          1           0       -0.822049   -3.397580   -0.832245
 ---------------------------------------------------------------------

 SCF Done:  E(RHF) =  -470.733148441     A.U. after   11 cycles
 E2 =    -0.1584620106D+01 EUMP2 =    -0.47231776854640D+03

 The electronic state is 1-A.
 Alpha  occ. eigenvalues --  -11.21694 -11.21663 -11.21606 -11.21560 -11.21493
 Alpha  occ. eigenvalues --  -11.21433 -11.21340 -11.21274 -11.21170 -11.21114
 Alpha  occ. eigenvalues --  -11.21069 -11.21062  -1.08532  -1.08377  -1.03618
 Alpha  occ. eigenvalues --   -1.03502  -0.96057  -0.95955  -0.87077  -0.86968
 Alpha  occ. eigenvalues --   -0.79685  -0.79572  -0.78350  -0.78196  -0.65248
 Alpha  occ. eigenvalues --   -0.64948  -0.61012  -0.60941  -0.59406  -0.59316
 Alpha  occ. eigenvalues --   -0.57656  -0.57568  -0.55384  -0.55217  -0.52756
 Alpha  occ. eigenvalues --   -0.52657  -0.52492  -0.52367  -0.50005  -0.49904
 Alpha  occ. eigenvalues --   -0.47997  -0.47873  -0.46862  -0.46555  -0.46092
 Alpha  occ. eigenvalues --   -0.45913  -0.45575  -0.45324  -0.43861  -0.43752
 Alpha virt. eigenvalues --    0.19295   0.21259   0.23585   0.24533   0.25198
 Alpha virt. eigenvalues --    0.25877   0.26622   0.27617   0.28658   0.29662
 Alpha virt. eigenvalues --    0.30270   0.31195   0.31659   0.31842   0.32504

 Mulliken charges:
               1
     1  C   -0.302397
     2  C   -0.300422
     3  C   -0.478354
     4  H    0.149114
     5  H    0.154841
     6  H    0.151699
     7  H    0.153242
     8  H    0.156818
     9  H    0.155279
    10  H    0.160186
    11  C   -0.299917
    12  C   -0.300492
    13  C   -0.476665
    14  H    0.149403
    15  H    0.152003
    16  H    0.152074
    17  H    0.151077
    18  H    0.156099
    19  H    0.155457
    20  H    0.159910
    21  C   -0.300332
    22  C   -0.299669
    23  C   -0.476016
    24  H    0.150817
    25  H    0.149427
    26  H    0.152220
    27  H    0.152267
    28  H    0.155245
    29  H    0.155477
    30  H    0.160610
    31  C   -0.297781
    32  C   -0.306333
    33  C   -0.479085
    34  H    0.149813
    35  H    0.150068
    36  H    0.157033
    37  H    0.153124
    38  H    0.156055
    39  H    0.155659
    40  H    0.162447
 Sum of Mulliken charges =  -0.00000

 Dipole moment (field-independent basis, Debye):
    X=              0.0398    Y=             -0.0196    Z=              0.0046  Tot=              0.0446
 Quadrupole moment (field-independent basis, Debye-Ang):
   XX=            -84.5471   YY=            -86.0768   ZZ=            -84.1015
   XY=             -1.4989   XZ=             -0.1848   YZ=             -0.8727

 Normal termination of Gaussian 16 at Thu May  6 05:16:04 2021.
