 Gaussian 16, Revision A.03,
 Gaussian 16:  EM64L-G16RevA.03 25-Dec-2016

 -------------
 #p 6-31g* mp2
 -------------

 ------------------------------------------------------
 Input file generated by CHIRIPA (05-May-2021 14:57:25)
 ------------------------------------------------------
 Symbolic Z-matrix:
 Charge =  0 Multiplicity = 1

                         Standard orientation:
 ---------------------------------------------------------------------
 Center     Atomic      Atomic             Coordinates (Angstroms)
 Number     Number       Type             X           Y           Z
 ---------------------------------------------------------------------
      1          6           0       -3.366418    2.275460    1.040672
      2          6           0       -4.537640    1.749824    0.485274
      3          6           0       -4.547584    0.465096   -0.066018
      4          6           0       -3.363111   -0.269664   -0.044971
      5          6           0       -2.180238    0.226286    0.501046
      6          6           0       -2.193523    1.513358    1.046774
      7          1           0       -3.367716    3.274378    1.466768
      8          1           0       -5.449996    2.339413    0.479150
      9          1           0       -5.440226    0.033677   -0.502465
     10          1           0       -1.286241   -0.385363    0.492564
     11          1           0       -1.282461    1.919007    1.477425
     12          7           0       -3.361343   -1.630988   -0.625654
     13          8           0       -2.304749   -2.258120   -0.594796
     14          8           0       -4.416583   -2.045085   -1.100657
     15          6           0        3.615117   -2.273452    0.911528
     16          6           0        2.340340   -1.744150    0.685026
     17          6           0        2.188928   -0.460493    0.152253
     18          6           0        3.339069    0.269470   -0.143761
     19          6           0        4.622692   -0.230213    0.070517
     20          6           0        4.750223   -1.516129    0.604093
     21          1           0        3.723461   -3.271505    1.325711
     22          1           0        1.457024   -2.330023    0.922832
     23          1           0        1.213980   -0.026306   -0.033150
     24          1           0        5.484509    0.377766   -0.176569
     25          1           0        5.741484   -1.924634    0.778945
     26          7           0        3.191417    1.629616   -0.708209
     27          8           0        4.220492    2.252493   -0.960528
     28          8           0        2.049408    2.047068   -0.887615
 ---------------------------------------------------------------------

 SCF Done:  E(RHF) =  -868.338441197     A.U. after   16 cycles
 E2 =    -0.2599496383D+01 EUMP2 =    -0.87093793757931D+03

 The electronic state is 1-A.
 Alpha  occ. eigenvalues --  -20.61067 -20.61059 -20.61035 -20.61033 -15.86100
 Alpha  occ. eigenvalues --  -15.86096 -11.31368 -11.31341 -11.27967 -11.27963
 Alpha  occ. eigenvalues --  -11.27879 -11.27832 -11.27562 -11.27507 -11.26877
 Alpha  occ. eigenvalues --  -11.26836 -11.26828 -11.26813  -1.60123  -1.60121
 Alpha  occ. eigenvalues --   -1.39684  -1.39682  -1.19506  -1.19468  -1.08905
 Alpha  occ. eigenvalues --   -1.08871  -1.04906  -1.04848  -0.95775  -0.95741
 Alpha  occ. eigenvalues --   -0.86299  -0.86248  -0.82605  -0.82588  -0.77749
 Alpha  occ. eigenvalues --   -0.77607  -0.72333  -0.72312  -0.71442  -0.71433
 Alpha  occ. eigenvalues --   -0.70699  -0.70504  -0.65158  -0.65128  -0.64908
 Alpha  occ. eigenvalues --   -0.64814  -0.62448  -0.62035  -0.55398  -0.55296
 Alpha  occ. eigenvalues --   -0.53219  -0.53174  -0.53030  -0.52881  -0.49097
 Alpha  occ. eigenvalues --   -0.49082  -0.49058  -0.49054  -0.45118  -0.45109
 Alpha  occ. eigenvalues --   -0.37454  -0.37400  -0.36488  -0.36438
 Alpha virt. eigenvalues --    0.04844   0.04856   0.11162   0.11207   0.16387
 Alpha virt. eigenvalues --    0.16400   0.18825   0.22239   0.24727   0.27477
 Alpha virt. eigenvalues --    0.28091   0.29401   0.30891   0.31480   0.32533

 Mulliken charges:
               1
     1  C   -0.170171
     2  C   -0.217789
     3  C   -0.170673
     4  C    0.160701
     5  C   -0.173966
     6  C   -0.215220
     7  H    0.228514
     8  H    0.224634
     9  H    0.275800
    10  H    0.265978
    11  H    0.229235
    12  N    0.488601
    13  O   -0.467316
    14  O   -0.457766
    15  C   -0.170705
    16  C   -0.219670
    17  C   -0.177391
    18  C    0.160085
    19  C   -0.170860
    20  C   -0.218249
    21  H    0.228174
    22  H    0.231892
    23  H    0.271455
    24  H    0.275678
    25  H    0.224411
    26  N    0.488119
    27  O   -0.458737
    28  O   -0.464765
 Sum of Mulliken charges =  -0.00000

 Dipole moment (field-independent basis, Debye):
    X=              0.4818    Y=              0.0502    Z=              4.0764  Tot=              4.1050
 Quadrupole moment (field-independent basis, Debye-Ang):
   XX=            -90.5241   YY=           -110.6731   ZZ=           -106.8905
   XY=            -33.1010   XZ=              0.8204   YZ=              0.3717

 Normal termination of Gaussian 16 at Thu May  6 16:24:58 2021.
