 Gaussian 16, Revision A.03,
 Gaussian 16:  EM64L-G16RevA.03 25-Dec-2016

 -------------
 #p 6-31g* mp2
 -------------

 ------------------------------------------------------
 Input file generated by CHIRIPA (05-May-2021 14:55:19)
 ------------------------------------------------------
 Symbolic Z-matrix:
 Charge =  0 Multiplicity = 1

                         Standard orientation:
 ---------------------------------------------------------------------
 Center     Atomic      Atomic             Coordinates (Angstroms)
 Number     Number       Type             X           Y           Z
 ---------------------------------------------------------------------
      1          6           0       -1.948605    2.644176    0.633803
      2          6           0       -1.048569    1.936593   -0.169804
      3          6           0       -1.378788    0.669573   -0.659869
      4          6           0       -2.623191    0.137861   -0.325158
      5          6           0       -3.541395    0.818092    0.473264
      6          6           0       -3.189957    2.083655    0.952211
      7          1           0       -1.683841    3.627861    1.010179
      8          1           0       -0.083815    2.369427   -0.418699
      9          1           0       -0.700959    0.099948   -1.283963
     10          1           0       -4.495689    0.360554    0.704347
     11          1           0       -3.890922    2.630884    1.576096
     12          7           0       -2.984011   -1.202706   -0.838083
     13          8           0       -4.086597   -1.649137   -0.528826
     14          8           0       -2.157403   -1.781626   -1.539658
     15          6           0        3.016665   -1.038029    0.730243
     16          6           0        1.494807   -1.033717    0.878286
     17          6           0        0.979996   -2.197637    1.725667
     18          1           0        3.332181   -1.989075    0.279790
     19          1           0        3.475257   -0.997378    1.727958
     20          1           0        1.039221   -1.072967   -0.119469
     21          1           0        1.182859   -0.082493    1.328263
     22          1           0        1.407204   -2.159316    2.732952
     23          1           0        1.262749   -3.155418    1.276995
     24          1           0       -0.110298   -2.175197    1.818489
     25          6           0        3.546469    0.119497   -0.114250
     26          6           0        5.068326    0.115184   -0.262294
     27          6           0        5.583138    1.279103   -1.109674
     28          1           0        3.087876    0.078845   -1.111965
     29          1           0        3.230952    1.070541    0.336203
     30          1           0        5.380274   -0.836039   -0.712270
     31          1           0        5.523913    0.154435    0.735462
     32          1           0        5.300385    2.236885   -0.661002
     33          1           0        5.155929    1.240783   -2.116959
     34          1           0        6.673432    1.256663   -1.202497
 ---------------------------------------------------------------------

 SCF Done:  E(RHF) =  -669.535059988     A.U. after   15 cycles
 E2 =    -0.2092759971D+01 EUMP2 =    -0.67162781995862D+03

 The electronic state is 1-A.
 Alpha  occ. eigenvalues --  -20.60782 -20.60777 -15.85831 -11.31165 -11.27747
 Alpha  occ. eigenvalues --  -11.27725 -11.27490 -11.26748 -11.26726 -11.21919
 Alpha  occ. eigenvalues --  -11.21803 -11.21752 -11.21574 -11.21404 -11.20999
 Alpha  occ. eigenvalues --   -1.59854  -1.39409  -1.19348  -1.08747  -1.08707
 Alpha  occ. eigenvalues --   -1.04750  -1.03732  -0.96177  -0.95585  -0.87190
 Alpha  occ. eigenvalues --   -0.86149  -0.82419  -0.79835  -0.78575  -0.77443
 Alpha  occ. eigenvalues --   -0.72049  -0.71177  -0.70468  -0.65352  -0.64999
 Alpha  occ. eigenvalues --   -0.64737  -0.62128  -0.61105  -0.59553  -0.57805
 Alpha  occ. eigenvalues --   -0.55465  -0.55251  -0.53100  -0.52863  -0.52813
 Alpha  occ. eigenvalues --   -0.52596  -0.50110  -0.48808  -0.48806  -0.48122
 Alpha  occ. eigenvalues --   -0.46850  -0.46074  -0.45994  -0.44810  -0.44007
 Alpha  occ. eigenvalues --   -0.37333  -0.36284
 Alpha virt. eigenvalues --    0.05054   0.11234   0.16512   0.20528   0.22821
 Alpha virt. eigenvalues --    0.24056   0.25268   0.25809   0.27578   0.28243
 Alpha virt. eigenvalues --    0.29452   0.30538   0.31380   0.31620   0.31854

 Mulliken charges:
               1
     1  C   -0.171274
     2  C   -0.219948
     3  C   -0.166059
     4  C    0.156354
     5  C   -0.171064
     6  C   -0.218752
     7  H    0.225484
     8  H    0.224791
     9  H    0.277418
    10  H    0.275471
    11  H    0.223249
    12  N    0.488231
    13  O   -0.460262
    14  O   -0.461428
    15  C   -0.297950
    16  C   -0.305010
    17  C   -0.474020
    18  H    0.153300
    19  H    0.150011
    20  H    0.152179
    21  H    0.149326
    22  H    0.153364
    23  H    0.159959
    24  H    0.162413
    25  C   -0.298430
    26  C   -0.299558
    27  C   -0.475976
    28  H    0.146655
    29  H    0.143673
    30  H    0.154756
    31  H    0.152942
    32  H    0.152877
    33  H    0.155235
    34  H    0.162046
 Sum of Mulliken charges =  -0.00000

 Dipole moment (field-independent basis, Debye):
    X=              1.3020    Y=              4.6232    Z=              1.8198  Tot=              5.1363
 Quadrupole moment (field-independent basis, Debye-Ang):
   XX=            -97.7925   YY=            -94.1775   ZZ=            -95.2184
   XY=            -13.2376   XZ=             -7.2433   YZ=             -0.1778

 Normal termination of Gaussian 16 at Thu May  6 04:30:44 2021.
