 Gaussian 16, Revision A.03,
 Gaussian 16:  EM64L-G16RevA.03 25-Dec-2016

 -------------
 #p 6-31g* mp2
 -------------

 ------------------------------------------------------
 Input file generated by CHIRIPA (05-May-2021 14:55:22)
 ------------------------------------------------------
 Symbolic Z-matrix:
 Charge =  0 Multiplicity = 1

                         Standard orientation:
 ---------------------------------------------------------------------
 Center     Atomic      Atomic             Coordinates (Angstroms)
 Number     Number       Type             X           Y           Z
 ---------------------------------------------------------------------
      1          6           0       -2.989131    2.660676   -0.263766
      2          6           0       -2.818587    1.814708   -1.364572
      3          6           0       -2.771950    0.427912   -1.193781
      4          6           0       -2.899727   -0.081161    0.097656
      5          6           0       -3.070735    0.735599    1.214325
      6          6           0       -3.114440    2.119377    1.019906
      7          1           0       -3.024221    3.736800   -0.405618
      8          1           0       -2.720999    2.232291   -2.362642
      9          1           0       -2.640883   -0.250038   -2.028420
     10          1           0       -3.165162    0.289862    2.197086
     11          1           0       -3.246988    2.773953    1.876647
     12          7           0       -2.851906   -1.547702    0.290972
     13          8           0       -2.966887   -1.971315    1.439000
     14          8           0       -2.700350   -2.245794   -0.709196
     15          6           0        4.446400   -0.120507   -0.310212
     16          6           0        5.320405    0.602815    0.714925
     17          6           0        6.767395    0.765219    0.248406
     18          1           0        4.878859   -1.108557   -0.519211
     19          1           0        4.466992    0.436372   -1.257238
     20          1           0        5.297066    0.045484    1.660152
     21          1           0        4.885711    1.589183    0.921653
     22          1           0        6.809878    1.340347   -0.682197
     23          1           0        7.223570   -0.212122    0.060498
     24          1           0        7.374436    1.284789    0.996342
     25          6           0        2.997076   -0.290484    0.141776
     26          6           0        2.123071   -1.013805   -0.883361
     27          6           0        0.676082   -1.176208   -0.416842
     28          1           0        2.976484   -0.847362    1.088802
     29          1           0        2.564617    0.697566    0.350775
     30          1           0        2.557766   -2.000173   -1.090088
     31          1           0        2.146411   -0.456474   -1.828588
     32          1           0        0.219906   -0.198868   -0.228934
     33          1           0        0.633598   -1.751337    0.513762
     34          1           0        0.069041   -1.695779   -1.164778
 ---------------------------------------------------------------------

 SCF Done:  E(RHF) =  -669.535422895     A.U. after   15 cycles
 E2 =    -0.2092860323D+01 EUMP2 =    -0.67162828321772D+03

 The electronic state is 1-A.
 Alpha  occ. eigenvalues --  -20.60800 -20.60795 -15.85823 -11.31164 -11.27749
 Alpha  occ. eigenvalues --  -11.27741 -11.27504 -11.26773 -11.26763 -11.21522
 Alpha  occ. eigenvalues --  -11.21296 -11.21250 -11.21156 -11.21017 -11.20503
 Alpha  occ. eigenvalues --   -1.59852  -1.39413  -1.19359  -1.08755  -1.08243
 Alpha  occ. eigenvalues --   -1.04762  -1.03310  -0.95759  -0.95589  -0.86785
 Alpha  occ. eigenvalues --   -0.86155  -0.82431  -0.79402  -0.78066  -0.77475
 Alpha  occ. eigenvalues --   -0.72063  -0.71148  -0.70471  -0.65015  -0.64881
 Alpha  occ. eigenvalues --   -0.64768  -0.62112  -0.60719  -0.59112  -0.57362
 Alpha  occ. eigenvalues --   -0.55273  -0.55087  -0.53137  -0.52858  -0.52415
 Alpha  occ. eigenvalues --   -0.52138  -0.49683  -0.48819  -0.48815  -0.47695
 Alpha  occ. eigenvalues --   -0.46427  -0.45600  -0.45530  -0.44867  -0.43449
 Alpha  occ. eigenvalues --   -0.37302  -0.36355
 Alpha virt. eigenvalues --    0.05030   0.11277   0.16504   0.21360   0.23039
 Alpha virt. eigenvalues --    0.24532   0.26810   0.27189   0.27637   0.27839
 Alpha virt. eigenvalues --    0.28529   0.30713   0.31545   0.31784   0.31975

 Mulliken charges:
               1
     1  C   -0.171059
     2  C   -0.219041
     3  C   -0.169756
     4  C    0.160696
     5  C   -0.171519
     6  C   -0.218797
     7  H    0.225493
     8  H    0.223358
     9  H    0.275213
    10  H    0.275647
    11  H    0.223403
    12  N    0.491429
    13  O   -0.459839
    14  O   -0.459759
    15  C   -0.297961
    16  C   -0.299307
    17  C   -0.475531
    18  H    0.150523
    19  H    0.147849
    20  H    0.152518
    21  H    0.150186
    22  H    0.154332
    23  H    0.155757
    24  H    0.159629
    25  C   -0.297892
    26  C   -0.299537
    27  C   -0.490937
    28  H    0.150956
    29  H    0.146600
    30  H    0.153841
    31  H    0.147488
    32  H    0.150199
    33  H    0.161182
    34  H    0.174637
 Sum of Mulliken charges =  -0.00000

 Dipole moment (field-independent basis, Debye):
    X=             -0.2787    Y=              5.0647    Z=             -0.6702  Tot=              5.1165
 Quadrupole moment (field-independent basis, Debye-Ang):
   XX=            -95.9651   YY=            -95.2037   ZZ=            -89.9122
   XY=            -15.7437   XZ=              1.6296   YZ=              0.9277

 Normal termination of Gaussian 16 at Thu May  6 17:34:20 2021.
