 Gaussian 16, Revision A.03,
 Gaussian 16:  EM64L-G16RevA.03 25-Dec-2016

 -------------
 #p 6-31g* mp2
 -------------

 ------------------------------------------------------
 Input file generated by CHIRIPA (05-May-2021 14:51:13)
 ------------------------------------------------------
 Symbolic Z-matrix:
 Charge =  0 Multiplicity = 1

                         Standard orientation:
 ---------------------------------------------------------------------
 Center     Atomic      Atomic             Coordinates (Angstroms)
 Number     Number       Type             X           Y           Z
 ---------------------------------------------------------------------
      1          6           0       -4.658667   -0.200996    0.190516
      2          6           0       -5.951608   -0.215565   -0.625619
      3          6           0       -6.935668   -1.287009   -0.155057
      4          1           0       -4.183200   -1.189537    0.130002
      5          1           0       -4.903248   -0.036058    1.248992
      6          1           0       -5.704554   -0.379046   -1.682432
      7          1           0       -6.423954    0.773183   -0.563311
      8          1           0       -7.211016   -1.124031    0.891950
      9          1           0       -6.487529   -2.282807   -0.233530
     10          1           0       -7.852883   -1.279738   -0.752152
     11          6           0       -3.664849    0.864779   -0.267936
     12          6           0       -2.371908    0.879348    0.548199
     13          6           0       -1.387849    1.950791    0.077637
     14          1           0       -3.420268    0.699841   -1.326412
     15          1           0       -4.140316    1.853320   -0.207422
     16          1           0       -1.899563   -0.109401    0.485891
     17          1           0       -2.618962    1.042828    1.605012
     18          1           0       -1.835987    2.946590    0.156110
     19          1           0       -1.112500    1.787814   -0.969370
     20          1           0       -0.470633    1.943520    0.674732
     21          6           0        4.864259   -0.188895    0.302295
     22          6           0        5.925055   -0.133980   -0.797562
     23          6           0        7.325282    0.152934   -0.254570
     24          1           0        4.859632    0.765489    0.846422
     25          1           0        5.141588   -0.962941    1.031222
     26          1           0        5.645092    0.638785   -1.524934
     27          1           0        5.927026   -1.088536   -1.339257
     28          1           0        7.629530   -0.622818    0.455531
     29          1           0        7.345993    1.114318    0.268798
     30          1           0        8.067968    0.187821   -1.057725
     31          6           0        3.459257   -0.474887   -0.224874
     32          6           0        2.398462   -0.529803    0.874982
     33          6           0        0.998235   -0.816717    0.331990
     34          1           0        3.181928    0.299159   -0.953802
     35          1           0        3.463885   -1.429272   -0.769002
     36          1           0        2.396491    0.424753    1.416677
     37          1           0        2.678425   -1.302567    1.602355
     38          1           0        0.977523   -1.778100   -0.191378
     39          1           0        0.693987   -0.040965   -0.378111
     40          1           0        0.255548   -0.851604    1.135146
 ---------------------------------------------------------------------

 SCF Done:  E(RHF) =  -470.731736375     A.U. after   11 cycles
 E2 =    -0.1583674660D+01 EUMP2 =    -0.47231541103418D+03

 The electronic state is 1-A.
 Alpha  occ. eigenvalues --  -11.21596 -11.21589 -11.21571 -11.21481 -11.21397
 Alpha  occ. eigenvalues --  -11.21355 -11.21337 -11.21293 -11.21066 -11.21048
 Alpha  occ. eigenvalues --  -11.21018 -11.20966  -1.08433  -1.08370  -1.03589
 Alpha  occ. eigenvalues --   -1.03420  -0.96084  -0.95834  -0.87051  -0.86905
 Alpha  occ. eigenvalues --   -0.79633  -0.79518  -0.78247  -0.78181  -0.65113
 Alpha  occ. eigenvalues --   -0.64974  -0.61168  -0.60740  -0.59521  -0.59137
 Alpha  occ. eigenvalues --   -0.57670  -0.57465  -0.55506  -0.54973  -0.52714
 Alpha  occ. eigenvalues --   -0.52584  -0.52379  -0.52352  -0.50030  -0.49703
 Alpha  occ. eigenvalues --   -0.47930  -0.47834  -0.46608  -0.46562  -0.45785
 Alpha  occ. eigenvalues --   -0.45742  -0.45689  -0.45659  -0.43785  -0.43646
 Alpha virt. eigenvalues --    0.21750   0.23011   0.23551   0.25113   0.26393
 Alpha virt. eigenvalues --    0.26543   0.26899   0.27511   0.27668   0.29404
 Alpha virt. eigenvalues --    0.30173   0.30615   0.31293   0.32157   0.32324

 Mulliken charges:
               1
     1  C   -0.298336
     2  C   -0.299581
     3  C   -0.475685
     4  H    0.149689
     5  H    0.149296
     6  H    0.151884
     7  H    0.151861
     8  H    0.155094
     9  H    0.155145
    10  H    0.160138
    11  C   -0.297598
    12  C   -0.305091
    13  C   -0.477815
    14  H    0.149259
    15  H    0.149136
    16  H    0.159828
    17  H    0.150751
    18  H    0.155253
    19  H    0.153730
    20  H    0.162501
    21  C   -0.298273
    22  C   -0.299630
    23  C   -0.475696
    24  H    0.149636
    25  H    0.149495
    26  H    0.151958
    27  H    0.151878
    28  H    0.155157
    29  H    0.155196
    30  H    0.160232
    31  C   -0.298616
    32  C   -0.300510
    33  C   -0.481894
    34  H    0.149707
    35  H    0.149571
    36  H    0.151569
    37  H    0.151837
    38  H    0.153836
    39  H    0.162409
    40  H    0.162676
 Sum of Mulliken charges =  -0.00000

 Dipole moment (field-independent basis, Debye):
    X=              0.0122    Y=             -0.0086    Z=             -0.0024  Tot=              0.0151
 Quadrupole moment (field-independent basis, Debye-Ang):
   XX=            -86.6416   YY=            -83.9685   ZZ=            -84.4899
   XY=             -1.1680   XZ=             -0.3460   YZ=              0.4471

 Normal termination of Gaussian 16 at Wed May  5 16:51:14 2021.
