 Gaussian 16, Revision A.03,
 Gaussian 16:  EM64L-G16RevA.03 25-Dec-2016

 -------------
 #p 6-31g* mp2
 -------------

 ------------------------------------------------------
 Input file generated by CHIRIPA (05-May-2021 14:57:27)
 ------------------------------------------------------
 Symbolic Z-matrix:
 Charge =  0 Multiplicity = 1

                         Standard orientation:
 ---------------------------------------------------------------------
 Center     Atomic      Atomic             Coordinates (Angstroms)
 Number     Number       Type             X           Y           Z
 ---------------------------------------------------------------------
      1          6           0        1.755877    2.427824    0.801118
      2          6           0        1.354286    1.279272    1.491099
      3          6           0        1.863373    0.025509    1.139735
      4          6           0        2.776431   -0.043429    0.088610
      5          6           0        3.195993    1.082623   -0.617977
      6          6           0        2.673831    2.326013   -0.249366
      7          1           0        1.355327    3.397749    1.080766
      8          1           0        0.641532    1.355334    2.307335
      9          1           0        1.569635   -0.879790    1.657005
     10          1           0        3.907985    0.975129   -1.427255
     11          1           0        2.987510    3.216304   -0.786984
     12          7           0        3.322300   -1.365241   -0.292493
     13          8           0        4.125452   -1.399236   -1.222239
     14          8           0        2.936664   -2.342254    0.345760
     15          6           0       -2.826598    2.320508   -0.500150
     16          6           0       -1.581060    1.684081   -0.489328
     17          6           0       -1.491457    0.302230   -0.296953
     18          6           0       -2.672917   -0.415623   -0.117707
     19          6           0       -3.928691    0.189598   -0.123392
     20          6           0       -3.994379    1.572554   -0.317469
     21          1           0       -2.886914    3.394392   -0.650252
     22          1           0       -0.672483    2.262421   -0.630944
     23          1           0       -0.540274   -0.215942   -0.284078
     24          1           0       -4.816891   -0.413579    0.020470
     25          1           0       -4.963050    2.064141   -0.325403
     26          7           0       -2.590718   -1.879111    0.086853
     27          8           0       -3.646372   -2.489035    0.242497
     28          8           0       -1.472193   -2.388559    0.087669
 ---------------------------------------------------------------------

 SCF Done:  E(RHF) =  -868.334529165     A.U. after   16 cycles
 E2 =    -0.2605172317D+01 EUMP2 =    -0.87093970148207D+03

 The electronic state is 1-A.
 Alpha  occ. eigenvalues --  -20.60969 -20.60911 -20.60846 -20.60835 -15.86008
 Alpha  occ. eigenvalues --  -15.85891 -11.31808 -11.31345 -11.28380 -11.28258
 Alpha  occ. eigenvalues --  -11.28208 -11.27933 -11.27828 -11.27723 -11.27538
 Alpha  occ. eigenvalues --  -11.27440 -11.26986 -11.26881  -1.60013  -1.59918
 Alpha  occ. eigenvalues --   -1.39549  -1.39468  -1.20045  -1.19536  -1.09363
 Alpha  occ. eigenvalues --   -1.08927  -1.05489  -1.04913  -0.96108  -0.95739
 Alpha  occ. eigenvalues --   -0.86819  -0.86348  -0.82896  -0.82561  -0.77871
 Alpha  occ. eigenvalues --   -0.77587  -0.72214  -0.72097  -0.71356  -0.71254
 Alpha  occ. eigenvalues --   -0.71094  -0.70669  -0.65643  -0.65406  -0.65178
 Alpha  occ. eigenvalues --   -0.64952  -0.62732  -0.62369  -0.55951  -0.55548
 Alpha  occ. eigenvalues --   -0.53768  -0.53485  -0.53179  -0.53066  -0.49013
 Alpha  occ. eigenvalues --   -0.48941  -0.48869  -0.48857  -0.44860  -0.44846
 Alpha  occ. eigenvalues --   -0.38156  -0.37565  -0.37360  -0.36111
 Alpha virt. eigenvalues --    0.04505   0.04978   0.10341   0.11118   0.15937
 Alpha virt. eigenvalues --    0.16448   0.20609   0.21614   0.26774   0.26930
 Alpha virt. eigenvalues --    0.27850   0.28311   0.30524   0.31182   0.32065

 Mulliken charges:
               1
     1  C   -0.185497
     2  C   -0.214192
     3  C   -0.187318
     4  C    0.161623
     5  C   -0.171127
     6  C   -0.219704
     7  H    0.225508
     8  H    0.229875
     9  H    0.288767
    10  H    0.278823
    11  H    0.225218
    12  N    0.487832
    13  O   -0.460223
    14  O   -0.449733
    15  C   -0.173279
    16  C   -0.225951
    17  C   -0.178314
    18  C    0.156882
    19  C   -0.171120
    20  C   -0.218760
    21  H    0.222827
    22  H    0.225361
    23  H    0.283307
    24  H    0.276190
    25  H    0.223289
    26  N    0.487072
    27  O   -0.459797
    28  O   -0.457558
 Sum of Mulliken charges =  -0.00000

 Dipole moment (field-independent basis, Debye):
    X=             -1.9413    Y=              9.4968    Z=              0.7141  Tot=              9.7194
 Quadrupole moment (field-independent basis, Debye-Ang):
   XX=           -107.7106   YY=           -109.7930   ZZ=           -102.8409
   XY=              0.7968   XZ=              3.0300   YZ=             -1.7906

 Normal termination of Gaussian 16 at Thu May  6 10:01:00 2021.
