 Gaussian 16, Revision A.03,
 Gaussian 16:  EM64L-G16RevA.03 25-Dec-2016

 -------------
 #p 6-31g* mp2
 -------------

 ------------------------------------------------------
 Input file generated by CHIRIPA (05-May-2021 14:55:22)
 ------------------------------------------------------
 Symbolic Z-matrix:
 Charge =  0 Multiplicity = 1

                         Standard orientation:
 ---------------------------------------------------------------------
 Center     Atomic      Atomic             Coordinates (Angstroms)
 Number     Number       Type             X           Y           Z
 ---------------------------------------------------------------------
      1          6           0        2.567826    2.486630    0.392333
      2          6           0        2.141275    1.632438    1.414551
      3          6           0        2.343354    0.252490    1.317301
      4          6           0        2.978195   -0.241421    0.178741
      5          6           0        3.414599    0.583833   -0.856535
      6          6           0        3.202009    1.960529   -0.737955
      7          1           0        2.406763    3.557343    0.476164
      8          1           0        1.648484    2.038216    2.293497
      9          1           0        2.023210   -0.431561    2.093831
     10          1           0        3.902925    0.149846   -1.720602
     11          1           0        3.534330    2.621520   -1.533378
     12          7           0        3.197691   -1.700589    0.064496
     13          8           0        3.759445   -2.110832   -0.948801
     14          8           0        2.803822   -2.406412    0.990410
     15          6           0       -4.499076   -0.043021   -0.462081
     16          6           0       -5.453976   -0.247836    0.714441
     17          6           0       -6.917367   -0.334341    0.279932
     18          1           0       -4.778852    0.874447   -0.997732
     19          1           0       -4.622801   -0.870736   -1.174101
     20          1           0       -5.327499    0.579295    1.424705
     21          1           0       -5.171774   -1.164821    1.247469
     22          1           0       -7.065206   -1.170358   -0.411314
     23          1           0       -7.221815    0.583667   -0.233072
     24          1           0       -7.582543   -0.480790    1.136642
     25          6           0       -3.032493    0.045408   -0.043699
     26          6           0       -2.077593    0.250225   -1.220220
     27          6           0       -0.614203    0.336730   -0.785710
     28          1           0       -2.908768    0.873125    0.668322
     29          1           0       -2.752717   -0.872058    0.491953
     30          1           0       -2.359795    1.167209   -1.753248
     31          1           0       -2.204071   -0.576907   -1.930484
     32          1           0       -0.309754   -0.581279   -0.272707
     33          1           0       -0.466363    1.172746   -0.094465
     34          1           0        0.050974    0.483179   -1.642421
 ---------------------------------------------------------------------

 SCF Done:  E(RHF) =  -669.534498910     A.U. after   15 cycles
 E2 =    -0.2093309840D+01 EUMP2 =    -0.67162780875045D+03

 The electronic state is 1-A.
 Alpha  occ. eigenvalues --  -20.60766 -20.60761 -15.85815 -11.31146 -11.27737
 Alpha  occ. eigenvalues --  -11.27718 -11.27482 -11.26752 -11.26730 -11.21655
 Alpha  occ. eigenvalues --  -11.21594 -11.21459 -11.21398 -11.21113 -11.20997
 Alpha  occ. eigenvalues --   -1.59840  -1.39394  -1.19340  -1.08740  -1.08470
 Alpha  occ. eigenvalues --   -1.04749  -1.03554  -0.96009  -0.95575  -0.87028
 Alpha  occ. eigenvalues --   -0.86149  -0.82413  -0.79630  -0.78294  -0.77459
 Alpha  occ. eigenvalues --   -0.72037  -0.71160  -0.70460  -0.65103  -0.64998
 Alpha  occ. eigenvalues --   -0.64757  -0.62098  -0.60956  -0.59385  -0.57637
 Alpha  occ. eigenvalues --   -0.55315  -0.55250  -0.53555  -0.52845  -0.52565
 Alpha  occ. eigenvalues --   -0.52082  -0.49957  -0.48795  -0.48792  -0.47933
 Alpha  occ. eigenvalues --   -0.46668  -0.45825  -0.45762  -0.44800  -0.43802
 Alpha  occ. eigenvalues --   -0.37271  -0.36269
 Alpha virt. eigenvalues --    0.05069   0.11220   0.16554   0.21379   0.22821
 Alpha virt. eigenvalues --    0.24235   0.26582   0.27119   0.27549   0.27885
 Alpha virt. eigenvalues --    0.28339   0.30679   0.31442   0.31773   0.31840

 Mulliken charges:
               1
     1  C   -0.169782
     2  C   -0.217840
     3  C   -0.167980
     4  C    0.162677
     5  C   -0.171844
     6  C   -0.217730
     7  H    0.225299
     8  H    0.223091
     9  H    0.275218
    10  H    0.275400
    11  H    0.223200
    12  N    0.487650
    13  O   -0.460535
    14  O   -0.461095
    15  C   -0.298162
    16  C   -0.299659
    17  C   -0.475721
    18  H    0.148594
    19  H    0.151106
    20  H    0.150264
    21  H    0.153063
    22  H    0.156079
    23  H    0.154595
    24  H    0.160277
    25  C   -0.298146
    26  C   -0.300740
    27  C   -0.475446
    28  H    0.145311
    29  H    0.151854
    30  H    0.149081
    31  H    0.153941
    32  H    0.156149
    33  H    0.152031
    34  H    0.159801
 Sum of Mulliken charges =  -0.00000

 Dipole moment (field-independent basis, Debye):
    X=             -0.7078    Y=              5.1195    Z=              0.4139  Tot=              5.1848
 Quadrupole moment (field-independent basis, Debye-Ang):
   XX=           -100.4205   YY=            -96.7928   ZZ=            -90.8939
   XY=             16.0059   XZ=             -1.3737   YZ=              0.2686

 Normal termination of Gaussian 16 at Thu May  6 04:38:51 2021.
