 Gaussian 16, Revision A.03,
 Gaussian 16:  EM64L-G16RevA.03 25-Dec-2016

 -------------
 #p 6-31g* mp2
 -------------

 ------------------------------------------------------
 Input file generated by CHIRIPA (05-May-2021 14:51:08)
 ------------------------------------------------------
 Symbolic Z-matrix:
 Charge =  0 Multiplicity = 1

                         Standard orientation:
 ---------------------------------------------------------------------
 Center     Atomic      Atomic             Coordinates (Angstroms)
 Number     Number       Type             X           Y           Z
 ---------------------------------------------------------------------
      1          6           0       -4.674512   -0.417116    0.296196
      2          6           0       -4.749017   -1.767435   -0.417297
      3          6           0       -5.738366   -2.729841    0.240546
      4          1           0       -4.388923   -0.578836    1.344638
      5          1           0       -5.674780    0.037453    0.311254
      6          1           0       -3.748637   -2.218693   -0.432223
      7          1           0       -5.034275   -1.602467   -1.464211
      8          1           0       -6.746973   -2.304034    0.241997
      9          1           0       -5.454030   -2.923761    1.279848
     10          1           0       -5.775735   -3.688845   -0.285547
     11          6           0       -3.689683    0.555836   -0.349718
     12          6           0       -3.615179    1.906155    0.363775
     13          6           0       -2.625829    2.868560   -0.294069
     14          1           0       -2.689416    0.101267   -0.364776
     15          1           0       -3.975273    0.717556   -1.398160
     16          1           0       -3.329920    1.741186    1.410689
     17          1           0       -4.615559    2.357413    0.378701
     18          1           0       -2.910166    3.062481   -1.333370
     19          1           0       -1.617222    2.442754   -0.295519
     20          1           0       -2.588461    3.827565    0.232025
     21          6           0        4.769532   -0.399115   -0.333260
     22          6           0        6.049465   -0.435965    0.502441
     23          6           0        7.215720   -1.098656   -0.231374
     24          1           0        4.492808   -1.424586   -0.613935
     25          1           0        4.967353    0.138940   -1.270681
     26          1           0        5.848921   -0.972591    1.438620
     27          1           0        6.323069    0.589697    0.781322
     28          1           0        7.444228   -0.560424   -1.156950
     29          1           0        6.967387   -2.131589   -0.495916
     30          1           0        8.120519   -1.114260    0.384221
     31          6           0        3.594664    0.260395    0.386783
     32          6           0        2.314730    0.297245   -0.448919
     33          6           0        1.148475    0.959936    0.284896
     34          1           0        3.396842   -0.277661    1.324203
     35          1           0        3.871388    1.285865    0.667458
     36          1           0        2.041127   -0.728418   -0.727799
     37          1           0        2.515274    0.833870   -1.385098
     38          1           0        1.396808    1.992868    0.549438
     39          1           0        0.919967    0.421704    1.210472
     40          1           0        0.243677    0.975539   -0.330698
 ---------------------------------------------------------------------

 SCF Done:  E(RHF) =  -470.733233818     A.U. after   11 cycles
 E2 =    -0.1582460941D+01 EUMP2 =    -0.47231569475897D+03

 The electronic state is 1-A.
 Alpha  occ. eigenvalues --  -11.21649 -11.21620 -11.21585 -11.21541 -11.21435
 Alpha  occ. eigenvalues --  -11.21377 -11.21374 -11.21317 -11.21142 -11.21085
 Alpha  occ. eigenvalues --  -11.21059 -11.20958  -1.08463  -1.08395  -1.03573
 Alpha  occ. eigenvalues --   -1.03483  -0.96035  -0.95926  -0.87065  -0.86933
 Alpha  occ. eigenvalues --   -0.79658  -0.79527  -0.78274  -0.78209  -0.65091
 Alpha  occ. eigenvalues --   -0.65031  -0.60968  -0.60914  -0.59444  -0.59262
 Alpha  occ. eigenvalues --   -0.57671  -0.57511  -0.55335  -0.55208  -0.52797
 Alpha  occ. eigenvalues --   -0.52628  -0.52454  -0.52295  -0.49991  -0.49829
 Alpha  occ. eigenvalues --   -0.47986  -0.47831  -0.46667  -0.46570  -0.45815
 Alpha  occ. eigenvalues --   -0.45753  -0.45738  -0.45679  -0.43779  -0.43735
 Alpha virt. eigenvalues --    0.21508   0.23001   0.23580   0.24836   0.26123
 Alpha virt. eigenvalues --    0.26615   0.27220   0.27457   0.27890   0.28797
 Alpha virt. eigenvalues --    0.30460   0.31357   0.31683   0.31836   0.32040

 Mulliken charges:
               1
     1  C   -0.298210
     2  C   -0.299640
     3  C   -0.475685
     4  H    0.149688
     5  H    0.149568
     6  H    0.151834
     7  H    0.151879
     8  H    0.155183
     9  H    0.155133
    10  H    0.160149
    11  C   -0.300104
    12  C   -0.298857
    13  C   -0.483237
    14  H    0.150541
    15  H    0.149426
    16  H    0.152063
    17  H    0.151582
    18  H    0.154300
    19  H    0.163420
    20  H    0.159923
    21  C   -0.298288
    22  C   -0.299651
    23  C   -0.475722
    24  H    0.149680
    25  H    0.149673
    26  H    0.151925
    27  H    0.152016
    28  H    0.155247
    29  H    0.155197
    30  H    0.160318
    31  C   -0.298746
    32  C   -0.299285
    33  C   -0.481917
    34  H    0.149494
    35  H    0.149857
    36  H    0.151954
    37  H    0.152483
    38  H    0.156255
    39  H    0.155236
    40  H    0.165315
 Sum of Mulliken charges =  -0.00000

 Dipole moment (field-independent basis, Debye):
    X=              0.0440    Y=             -0.0032    Z=              0.0042  Tot=              0.0443
 Quadrupole moment (field-independent basis, Debye-Ang):
   XX=            -85.5563   YY=            -84.7327   ZZ=            -84.5781
   XY=             -0.0698   XZ=              0.9373   YZ=             -0.4502

 Normal termination of Gaussian 16 at Thu May  6 02:04:12 2021.
