 Gaussian 16, Revision A.03,
 Gaussian 16:  EM64L-G16RevA.03 25-Dec-2016

 -------------
 #p 6-31g* mp2
 -------------

 ------------------------------------------------------
 Input file generated by CHIRIPA (05-May-2021 14:55:19)
 ------------------------------------------------------
 Symbolic Z-matrix:
 Charge =  0 Multiplicity = 1

                         Standard orientation:
 ---------------------------------------------------------------------
 Center     Atomic      Atomic             Coordinates (Angstroms)
 Number     Number       Type             X           Y           Z
 ---------------------------------------------------------------------
      1          6           0       -4.085501    0.451017    0.106498
      2          6           0       -3.347218    0.270929    1.280818
      3          6           0       -2.125181   -0.407647    1.254181
      4          6           0       -1.669268   -0.895204    0.030367
      5          6           0       -2.381739   -0.731788   -1.156633
      6          6           0       -3.601259   -0.050033   -1.106341
      7          1           0       -5.033830    0.979386    0.136378
      8          1           0       -3.720831    0.658973    2.224153
      9          1           0       -1.533246   -0.561193    2.148303
     10          1           0       -1.983429   -1.129965   -2.081956
     11          1           0       -4.172482    0.088346   -2.019906
     12          7           0       -0.376885   -1.615265   -0.010353
     13          8           0        0.002931   -2.035218   -1.101232
     14          8           0        0.231798   -1.746061    1.049380
     15          6           0        2.845044    0.468458   -0.390115
     16          6           0        3.645035   -0.389231    0.590889
     17          6           0        4.511885   -1.435903   -0.109712
     18          1           0        2.209735   -0.184271   -1.004340
     19          1           0        3.539166    0.968123   -1.079989
     20          1           0        2.949698   -0.886043    1.279583
     21          1           0        4.278371    0.265633    1.202980
     22          1           0        5.228086   -0.954525   -0.783457
     23          1           0        3.891863   -2.112746   -0.706419
     24          1           0        5.075117   -2.037810    0.610245
     25          6           0        1.973563    1.519458    0.295194
     26          6           0        1.173571    2.377147   -0.685809
     27          6           0        0.306722    3.423819    0.014792
     28          1           0        1.279440    1.019793    0.985067
     29          1           0        2.608872    2.172187    0.909419
     30          1           0        0.540235    1.722283   -1.297900
     31          1           0        1.868909    2.873959   -1.374503
     32          1           0        0.926744    4.100662    0.611498
     33          1           0       -0.409479    2.942442    0.688537
     34          1           0       -0.256510    4.025726   -0.705165
 ---------------------------------------------------------------------

 SCF Done:  E(RHF) =  -669.537051877     A.U. after   15 cycles
 E2 =    -0.2094942856D+01 EUMP2 =    -0.67163199473254D+03

 The electronic state is 1-A.
 Alpha  occ. eigenvalues --  -20.61249 -20.61242 -15.86213 -11.31456 -11.28000
 Alpha  occ. eigenvalues --  -11.27990 -11.27703 -11.26980 -11.26965 -11.21119
 Alpha  occ. eigenvalues --  -11.20831 -11.20523 -11.20077 -11.20003 -11.19622
 Alpha  occ. eigenvalues --   -1.60270  -1.39832  -1.19602  -1.09023  -1.07440
 Alpha  occ. eigenvalues --   -1.04981  -1.02545  -0.95882  -0.95044  -0.86386
 Alpha  occ. eigenvalues --   -0.86069  -0.82722  -0.78703  -0.77796  -0.77131
 Alpha  occ. eigenvalues --   -0.72446  -0.71628  -0.70704  -0.65261  -0.64982
 Alpha  occ. eigenvalues --   -0.64010  -0.62329  -0.59936  -0.58494  -0.56626
 Alpha  occ. eigenvalues --   -0.55484  -0.54347  -0.53281  -0.53069  -0.51800
 Alpha  occ. eigenvalues --   -0.51453  -0.49337  -0.49224  -0.48878  -0.46994
 Alpha  occ. eigenvalues --   -0.45834  -0.45547  -0.44672  -0.44063  -0.42790
 Alpha  occ. eigenvalues --   -0.37554  -0.36564
 Alpha virt. eigenvalues --    0.04657   0.11019   0.16117   0.21151   0.23339
 Alpha virt. eigenvalues --    0.25391   0.26960   0.27309   0.28233   0.28532
 Alpha virt. eigenvalues --    0.28893   0.31094   0.32103   0.32244   0.32408

 Mulliken charges:
               1
     1  C   -0.169723
     2  C   -0.218520
     3  C   -0.171827
     4  C    0.159936
     5  C   -0.170953
     6  C   -0.218138
     7  H    0.226868
     8  H    0.224823
     9  H    0.276434
    10  H    0.276364
    11  H    0.224608
    12  N    0.489006
    13  O   -0.457391
    14  O   -0.457599
    15  C   -0.304749
    16  C   -0.304192
    17  C   -0.477096
    18  H    0.164580
    19  H    0.142809
    20  H    0.173807
    21  H    0.141608
    22  H    0.147371
    23  H    0.165749
    24  H    0.155395
    25  C   -0.303939
    26  C   -0.298685
    27  C   -0.474456
    28  H    0.150916
    29  H    0.146411
    30  H    0.147385
    31  H    0.151583
    32  H    0.154737
    33  H    0.150671
    34  H    0.156207
 Sum of Mulliken charges =  -0.00000

 Dipole moment (field-independent basis, Debye):
    X=             -4.8638    Y=              2.2119    Z=              0.1623  Tot=              5.3456
 Quadrupole moment (field-independent basis, Debye-Ang):
   XX=            -80.7264   YY=           -100.6093   ZZ=            -89.9763
   XY=              0.4895   XZ=              0.4495   YZ=              0.4240

 Normal termination of Gaussian 16 at Thu May  6 19:02:57 2021.
