 Gaussian 16, Revision A.03,
 Gaussian 16:  EM64L-G16RevA.03 25-Dec-2016

 -------------
 #p 6-31g* mp2
 -------------

 ------------------------------------------------------
 Input file generated by CHIRIPA (05-May-2021 14:57:23)
 ------------------------------------------------------
 Symbolic Z-matrix:
 Charge =  0 Multiplicity = 1

                         Standard orientation:
 ---------------------------------------------------------------------
 Center     Atomic      Atomic             Coordinates (Angstroms)
 Number     Number       Type             X           Y           Z
 ---------------------------------------------------------------------
      1          6           0        5.501841    1.455370   -1.264429
      2          6           0        6.036634    0.242091   -0.818928
      3          6           0        5.243753   -0.665967   -0.110889
      4          6           0        3.914159   -0.326956    0.135167
      5          6           0        3.352300    0.873909   -0.295559
      6          6           0        4.163740    1.766858   -1.001786
      7          1           0        6.124979    2.154902   -1.813747
      8          1           0        7.075489   -0.002466   -1.021455
      9          1           0        5.632154   -1.612266    0.245595
     10          1           0        2.313218    1.089757   -0.078446
     11          1           0        3.745727    2.708371   -1.346553
     12          7           0        3.064948   -1.280278    0.883777
     13          8           0        1.896529   -0.958022    1.087701
     14          8           0        3.583835   -2.331697    1.252439
     15          6           0       -2.536152    1.780622    1.199438
     16          6           0       -3.900971    2.061725    1.077911
     17          6           0       -4.751406    1.176426    0.408914
     18          6           0       -4.200871    0.014112   -0.128884
     19          6           0       -2.845351   -0.293996   -0.024365
     20          6           0       -2.013618    0.605730    0.648883
     21          1           0       -1.882777    2.473946    1.720783
     22          1           0       -4.309545    2.973396    1.504487
     23          1           0       -5.811783    1.369307    0.300220
     24          1           0       -2.467226   -1.210844   -0.460057
     25          1           0       -0.954077    0.384829    0.741731
     26          7           0       -5.091289   -0.930750   -0.839371
     27          8           0       -4.581648   -1.947954   -1.304342
     28          8           0       -6.281980   -0.636238   -0.917827
 ---------------------------------------------------------------------

 SCF Done:  E(RHF) =  -868.339121815     A.U. after   16 cycles
 E2 =    -0.2598650943D+01 EUMP2 =    -0.87093777275819D+03

 The electronic state is 1-A.
 Alpha  occ. eigenvalues --  -20.61620 -20.61559 -20.60326 -20.60314 -15.86640
 Alpha  occ. eigenvalues --  -15.85370 -11.31850 -11.30671 -11.28456 -11.28357
 Alpha  occ. eigenvalues --  -11.28083 -11.27390 -11.27339 -11.27260 -11.27145
 Alpha  occ. eigenvalues --  -11.26971 -11.26297 -11.26088  -1.60648  -1.59399
 Alpha  occ. eigenvalues --   -1.40214  -1.38953  -1.20000  -1.18829  -1.09415
 Alpha  occ. eigenvalues --   -1.08247  -1.05385  -1.04201  -0.96281  -0.95094
 Alpha  occ. eigenvalues --   -0.86789  -0.85610  -0.83128  -0.81908  -0.78202
 Alpha  occ. eigenvalues --   -0.76957  -0.72868  -0.71956  -0.71591  -0.71108
 Alpha  occ. eigenvalues --   -0.70721  -0.69961  -0.65660  -0.65384  -0.64476
 Alpha  occ. eigenvalues --   -0.64176  -0.62746  -0.61526  -0.55874  -0.54745
 Alpha  occ. eigenvalues --   -0.53712  -0.53478  -0.52565  -0.52267  -0.49628
 Alpha  occ. eigenvalues --   -0.49577  -0.48350  -0.48341  -0.45651  -0.44372
 Alpha  occ. eigenvalues --   -0.37956  -0.36979  -0.36838  -0.35805
 Alpha virt. eigenvalues --    0.04341   0.05542   0.10679   0.11831   0.15872
 Alpha virt. eigenvalues --    0.17048   0.20189   0.21958   0.25501   0.27081
 Alpha virt. eigenvalues --    0.28678   0.28801   0.30109   0.31170   0.32434

 Mulliken charges:
               1
     1  C   -0.170037
     2  C   -0.218146
     3  C   -0.170229
     4  C    0.158995
     5  C   -0.169788
     6  C   -0.218121
     7  H    0.227910
     8  H    0.225943
     9  H    0.277413
    10  H    0.268602
    11  H    0.224309
    12  N    0.493575
    13  O   -0.474361
    14  O   -0.454148
    15  C   -0.172663
    16  C   -0.218514
    17  C   -0.172442
    18  C    0.158394
    19  C   -0.172436
    20  C   -0.227852
    21  H    0.222555
    22  H    0.220710
    23  H    0.273650
    24  H    0.278867
    25  H    0.242183
    26  N    0.487990
    27  O   -0.459837
    28  O   -0.462525
 Sum of Mulliken charges =  -0.00000

 Dipole moment (field-independent basis, Debye):
    X=              6.5821    Y=              6.5747    Z=             -0.1677  Tot=              9.3048
 Quadrupole moment (field-independent basis, Debye-Ang):
   XX=           -101.5720   YY=           -103.9608   ZZ=           -107.5934
   XY=             -7.0202   XZ=            -21.6987   YZ=              1.0556

 Normal termination of Gaussian 16 at Thu May  6 08:12:33 2021.
