 Gaussian 16, Revision A.03,
 Gaussian 16:  EM64L-G16RevA.03 25-Dec-2016

 -------------
 #p 6-31g* mp2
 -------------

 ------------------------------------------------------
 Input file generated by CHIRIPA (05-May-2021 14:55:19)
 ------------------------------------------------------
 Symbolic Z-matrix:
 Charge =  0 Multiplicity = 1

                         Standard orientation:
 ---------------------------------------------------------------------
 Center     Atomic      Atomic             Coordinates (Angstroms)
 Number     Number       Type             X           Y           Z
 ---------------------------------------------------------------------
      1          6           0       -2.256633    0.646897    2.455368
      2          6           0       -1.162033    0.829073    1.603790
      3          6           0       -1.241554    0.462643    0.256959
      4          6           0       -2.436386   -0.085569   -0.206863
      5          6           0       -3.544297   -0.279592    0.616653
      6          6           0       -3.442181    0.094121    1.959954
      7          1           0       -2.186083    0.934378    3.500247
      8          1           0       -0.240059    1.258132    1.985781
      9          1           0       -0.409447    0.592633   -0.424302
     10          1           0       -4.450073   -0.709768    0.206852
     11          1           0       -4.293865   -0.048517    2.618995
     12          7           0       -2.532532   -0.477347   -1.630824
     13          8           0       -3.596403   -0.958237   -2.014958
     14          8           0       -1.542198   -0.296113   -2.335829
     15          6           0        2.817798   -0.669601    0.104644
     16          6           0        3.900560   -1.723224    0.340204
     17          6           0        3.323767   -3.111426    0.619486
     18          1           0        2.160884   -0.625143    0.984094
     19          1           0        2.188620   -0.982966   -0.739946
     20          1           0        4.528357   -1.407289    1.183218
     21          1           0        4.555088   -1.765043   -0.539831
     22          1           0        2.713431   -3.451694   -0.223312
     23          1           0        2.686548   -3.091907    1.509526
     24          1           0        4.115142   -3.849134    0.784933
     25          6           0        3.378785    0.723358   -0.175871
     26          6           0        2.296022    1.776981   -0.411431
     27          6           0        2.872816    3.165183   -0.690713
     28          1           0        4.007963    1.036723    0.668719
     29          1           0        4.035699    0.678900   -1.055322
     30          1           0        1.641495    1.818800    0.468604
     31          1           0        1.668225    1.461046   -1.254445
     32          1           0        3.510035    3.145664   -1.580753
     33          1           0        3.483152    3.505451    0.152085
     34          1           0        2.081441    3.902891   -0.856160
 ---------------------------------------------------------------------

 SCF Done:  E(RHF) =  -669.535020615     A.U. after   15 cycles
 E2 =    -0.2093197645D+01 EUMP2 =    -0.67162821825950D+03

 The electronic state is 1-A.
 Alpha  occ. eigenvalues --  -20.60721 -20.60715 -15.85769 -11.31066 -11.27675
 Alpha  occ. eigenvalues --  -11.27559 -11.27421 -11.26679 -11.26645 -11.22364
 Alpha  occ. eigenvalues --  -11.21874 -11.21855 -11.21753 -11.21566 -11.21206
 Alpha  occ. eigenvalues --   -1.59793  -1.39349  -1.19258  -1.08901  -1.08670
 Alpha  occ. eigenvalues --   -1.04661  -1.03950  -0.96356  -0.95509  -0.87383
 Alpha  occ. eigenvalues --   -0.86062  -0.82362  -0.80101  -0.78764  -0.77342
 Alpha  occ. eigenvalues --   -0.71991  -0.71113  -0.70373  -0.65567  -0.64907
 Alpha  occ. eigenvalues --   -0.64650  -0.62061  -0.61333  -0.59718  -0.57986
 Alpha  occ. eigenvalues --   -0.55624  -0.55184  -0.53080  -0.53000  -0.52790
 Alpha  occ. eigenvalues --   -0.52731  -0.50296  -0.48755  -0.48745  -0.48337
 Alpha  occ. eigenvalues --   -0.47097  -0.46216  -0.46111  -0.44767  -0.44200
 Alpha  occ. eigenvalues --   -0.37253  -0.36246
 Alpha virt. eigenvalues --    0.05117   0.11379   0.16562   0.19932   0.22907
 Alpha virt. eigenvalues --    0.24000   0.24538   0.25313   0.27638   0.28282
 Alpha virt. eigenvalues --    0.29649   0.30392   0.31534   0.31556   0.32023

 Mulliken charges:
               1
     1  C   -0.170363
     2  C   -0.227969
     3  C   -0.175879
     4  C    0.156665
     5  C   -0.169761
     6  C   -0.219478
     7  H    0.225198
     8  H    0.226105
     9  H    0.289603
    10  H    0.275176
    11  H    0.222972
    12  N    0.487788
    13  O   -0.460523
    14  O   -0.462257
    15  C   -0.304452
    16  C   -0.299753
    17  C   -0.476505
    18  H    0.143401
    19  H    0.158458
    20  H    0.150916
    21  H    0.154734
    22  H    0.159600
    23  H    0.153677
    24  H    0.161117
    25  C   -0.296562
    26  C   -0.314817
    27  C   -0.474323
    28  H    0.149267
    29  H    0.154951
    30  H    0.141965
    31  H    0.163157
    32  H    0.160437
    33  H    0.155122
    34  H    0.162337
 Sum of Mulliken charges =  -0.00000

 Dipole moment (field-independent basis, Debye):
    X=              0.5290    Y=              1.3571    Z=              4.8607  Tot=              5.0742
 Quadrupole moment (field-independent basis, Debye-Ang):
   XX=            -91.6343   YY=            -96.0900   ZZ=            -96.3988
   XY=             -2.0082   XZ=            -13.6167   YZ=             -0.6341

 Normal termination of Gaussian 16 at Wed May  5 15:49:32 2021.
