 Gaussian 16, Revision A.03,
 Gaussian 16:  EM64L-G16RevA.03 25-Dec-2016

 -------------
 #p 6-31g* mp2
 -------------

 ------------------------------------------------------
 Input file generated by CHIRIPA (05-May-2021 14:51:13)
 ------------------------------------------------------
 Symbolic Z-matrix:
 Charge =  0 Multiplicity = 1

                         Standard orientation:
 ---------------------------------------------------------------------
 Center     Atomic      Atomic             Coordinates (Angstroms)
 Number     Number       Type             X           Y           Z
 ---------------------------------------------------------------------
      1          6           0        4.078554    0.718152    0.336037
      2          6           0        3.964929    1.916420   -0.606951
      3          6           0        4.795798    3.113657   -0.144267
      4          1           0        3.759586    1.020480    1.342915
      5          1           0        5.133978    0.423550    0.417797
      6          1           0        2.909873    2.207806   -0.687990
      7          1           0        4.284023    1.611154   -1.611743
      8          1           0        5.855462    2.845842   -0.081122
      9          1           0        4.473505    3.445884    0.847879
     10          1           0        4.699960    3.958976   -0.832825
     11          6           0        3.253542   -0.486574   -0.113096
     12          6           0        3.367167   -1.684843    0.829892
     13          6           0        2.536299   -2.882079    0.367209
     14          1           0        2.198118   -0.191972   -0.194856
     15          1           0        3.572511   -0.788902   -1.119973
     16          1           0        3.048073   -1.379576    1.834684
     17          1           0        4.422223   -1.976228    0.910932
     18          1           0        2.858592   -3.214306   -0.624937
     19          1           0        1.476634   -2.614264    0.304064
     20          1           0        2.632136   -3.727398    1.055766
     21          6           0       -3.884714    0.614669   -0.066223
     22          6           0       -5.343550    0.785707    0.358664
     23          6           0       -5.766123    2.252619    0.444658
     24          1           0       -3.237362    1.143005    0.647039
     25          1           0       -3.735069    1.098100   -1.041568
     26          1           0       -5.490724    0.300900    1.332275
     27          1           0       -5.987492    0.256743   -0.355585
     28          1           0       -5.647721    2.745161   -0.525900
     29          1           0       -5.148130    2.789568    1.171550
     30          1           0       -6.812444    2.351758    0.750017
     31          6           0       -3.447382   -0.846248   -0.156718
     32          6           0       -1.988547   -1.017285   -0.581606
     33          6           0       -1.565974   -2.484197   -0.667600
     34          1           0       -3.597026   -1.329678    0.818626
     35          1           0       -4.094735   -1.374582   -0.869980
     36          1           0       -1.344604   -0.488321    0.132644
     37          1           0       -1.841372   -0.532478   -1.555217
     38          1           0       -2.183965   -3.021147   -1.394491
     39          1           0       -1.684375   -2.976739    0.302958
     40          1           0       -0.519652   -2.583335   -0.972959
 ---------------------------------------------------------------------

 SCF Done:  E(RHF) =  -470.733246374     A.U. after   11 cycles
 E2 =    -0.1582472075D+01 EUMP2 =    -0.47231571844884D+03

 The electronic state is 1-A.
 Alpha  occ. eigenvalues --  -11.21640 -11.21618 -11.21594 -11.21585 -11.21428
 Alpha  occ. eigenvalues --  -11.21398 -11.21369 -11.21339 -11.21086 -11.21066
 Alpha  occ. eigenvalues --  -11.21059 -11.21015  -1.08455  -1.08419  -1.03561
 Alpha  occ. eigenvalues --   -1.03507  -0.96026  -0.95940  -0.87062  -0.86939
 Alpha  occ. eigenvalues --   -0.79640  -0.79554  -0.78267  -0.78234  -0.65098
 Alpha  occ. eigenvalues --   -0.65040  -0.61006  -0.60880  -0.59438  -0.59288
 Alpha  occ. eigenvalues --   -0.57716  -0.57481  -0.55353  -0.55190  -0.52818
 Alpha  occ. eigenvalues --   -0.52652  -0.52471  -0.52231  -0.49998  -0.49828
 Alpha  occ. eigenvalues --   -0.47997  -0.47812  -0.46655  -0.46593  -0.45817
 Alpha  occ. eigenvalues --   -0.45771  -0.45737  -0.45684  -0.43777  -0.43771
 Alpha virt. eigenvalues --    0.21274   0.23103   0.23496   0.24977   0.26191
 Alpha virt. eigenvalues --    0.26790   0.27006   0.27243   0.28034   0.28973
 Alpha virt. eigenvalues --    0.30968   0.31328   0.31642   0.31774   0.32003

 Mulliken charges:
               1
     1  C   -0.298220
     2  C   -0.299708
     3  C   -0.475696
     4  H    0.149514
     5  H    0.149576
     6  H    0.152116
     7  H    0.151919
     8  H    0.155158
     9  H    0.155123
    10  H    0.160255
    11  C   -0.299003
    12  C   -0.299212
    13  C   -0.482780
    14  H    0.149903
    15  H    0.149559
    16  H    0.151599
    17  H    0.151824
    18  H    0.154576
    19  H    0.163186
    20  H    0.160274
    21  C   -0.298288
    22  C   -0.299680
    23  C   -0.475718
    24  H    0.149427
    25  H    0.149606
    26  H    0.151960
    27  H    0.152036
    28  H    0.155224
    29  H    0.155131
    30  H    0.160329
    31  C   -0.298260
    32  C   -0.300559
    33  C   -0.480889
    34  H    0.149618
    35  H    0.149980
    36  H    0.151207
    37  H    0.152332
    38  H    0.155576
    39  H    0.155144
    40  H    0.165862
 Sum of Mulliken charges =  -0.00000

 Dipole moment (field-independent basis, Debye):
    X=             -0.0187    Y=             -0.0096    Z=             -0.0099  Tot=              0.0233
 Quadrupole moment (field-independent basis, Debye-Ang):
   XX=            -84.6135   YY=            -86.5878   ZZ=            -83.5601
   XY=             -0.3009   XZ=             -0.2068   YZ=             -0.0687

 Normal termination of Gaussian 16 at Wed May  5 15:19:54 2021.
