 Gaussian 16, Revision A.03,
 Gaussian 16:  EM64L-G16RevA.03 25-Dec-2016

 -------------
 #p 6-31g* mp2
 -------------

 ------------------------------------------------------
 Input file generated by CHIRIPA (05-May-2021 14:55:23)
 ------------------------------------------------------
 Symbolic Z-matrix:
 Charge =  0 Multiplicity = 1

                         Standard orientation:
 ---------------------------------------------------------------------
 Center     Atomic      Atomic             Coordinates (Angstroms)
 Number     Number       Type             X           Y           Z
 ---------------------------------------------------------------------
      1          6           0        0.482138   -0.898901    0.075410
      2          6           0        1.403521   -1.648249    0.814363
      3          6           0        2.769234   -1.355881    0.751940
      4          6           0        3.180552   -0.302575   -0.063323
      5          6           0        2.287035    0.462375   -0.811501
      6          6           0        0.926053    0.152166   -0.733737
      7          1           0       -0.576944   -1.132948    0.129860
      8          1           0        1.061634   -2.465086    1.443597
      9          1           0        3.504138   -1.919805    1.313477
     10          1           0        2.658022    1.270691   -1.429894
     11          1           0        0.212759    0.735818   -1.308722
     12          7           0        4.623867    0.016385   -0.137527
     13          8           0        4.960760    0.949370   -0.863254
     14          8           0        5.390914   -0.672639    0.531442
     15          6           0       -3.227279    0.942320   -0.168376
     16          6           0       -2.823223    1.957707    0.901069
     17          6           0       -1.743371    2.926586    0.418381
     18          1           0       -2.339164    0.376957   -0.482321
     19          1           0       -3.586126    1.479558   -1.057195
     20          1           0       -2.466546    1.418690    1.788119
     21          1           0       -3.712439    2.520586    1.212642
     22          1           0       -2.092848    3.489993   -0.452848
     23          1           0       -0.839877    2.381835    0.125900
     24          1           0       -1.469557    3.643648    1.198578
     25          6           0       -4.305971   -0.033153    0.299174
     26          6           0       -4.710027   -1.048540   -0.770271
     27          6           0       -5.789879   -2.017419   -0.287583
     28          1           0       -3.947125   -0.570391    1.187994
     29          1           0       -5.194087    0.532210    0.613119
     30          1           0       -3.820811   -1.611420   -1.081843
     31          1           0       -5.066704   -0.509523   -1.657321
     32          1           0       -6.693373   -1.472668    0.004898
     33          1           0       -5.440402   -2.580826    0.583646
     34          1           0       -6.063694   -2.734482   -1.067780
 ---------------------------------------------------------------------

 SCF Done:  E(RHF) =  -669.534585780     A.U. after   15 cycles
 E2 =    -0.2093153577D+01 EUMP2 =    -0.67162773935758D+03

 The electronic state is 1-A.
 Alpha  occ. eigenvalues --  -20.60772 -20.60767 -15.85826 -11.31208 -11.27784
 Alpha  occ. eigenvalues --  -11.27780 -11.27514 -11.26795 -11.26763 -11.22591
 Alpha  occ. eigenvalues --  -11.22545 -11.22503 -11.22383 -11.21862 -11.21844
 Alpha  occ. eigenvalues --   -1.59847  -1.39400  -1.19387  -1.09460  -1.08777
 Alpha  occ. eigenvalues --   -1.04798  -1.04434  -0.96892  -0.95612  -0.87904
 Alpha  occ. eigenvalues --   -0.86198  -0.82443  -0.80505  -0.79298  -0.77483
 Alpha  occ. eigenvalues --   -0.72045  -0.71170  -0.70534  -0.66154  -0.65033
 Alpha  occ. eigenvalues --   -0.64782  -0.62224  -0.61742  -0.60240  -0.58510
 Alpha  occ. eigenvalues --   -0.56285  -0.55240  -0.53524  -0.53368  -0.53082
 Alpha  occ. eigenvalues --   -0.52867  -0.50822  -0.48853  -0.48798  -0.48752
 Alpha  occ. eigenvalues --   -0.47532  -0.46803  -0.46736  -0.44802  -0.44724
 Alpha  occ. eigenvalues --   -0.37353  -0.36374
 Alpha virt. eigenvalues --    0.05045   0.11115   0.16473   0.18795   0.22327
 Alpha virt. eigenvalues --    0.23673   0.25059   0.25919   0.26375   0.28225
 Alpha virt. eigenvalues --    0.29689   0.30938   0.31185   0.31395   0.31706

 Mulliken charges:
               1
     1  C   -0.174826
     2  C   -0.218633
     3  C   -0.170268
     4  C    0.158306
     5  C   -0.171941
     6  C   -0.219998
     7  H    0.229667
     8  H    0.223572
     9  H    0.275753
    10  H    0.276186
    11  H    0.226837
    12  N    0.488069
    13  O   -0.460170
    14  O   -0.460365
    15  C   -0.303115
    16  C   -0.299854
    17  C   -0.481904
    18  H    0.138597
    19  H    0.154063
    20  H    0.152722
    21  H    0.156487
    22  H    0.155825
    23  H    0.154263
    24  H    0.166040
    25  C   -0.299424
    26  C   -0.299723
    27  C   -0.476075
    28  H    0.147810
    29  H    0.154884
    30  H    0.146484
    31  H    0.155028
    32  H    0.157869
    33  H    0.154928
    34  H    0.162907
 Sum of Mulliken charges =  -0.00000

 Dipole moment (field-independent basis, Debye):
    X=             -5.2608    Y=             -1.0658    Z=              0.3031  Tot=              5.3762
 Quadrupole moment (field-independent basis, Debye-Ang):
   XX=           -126.5262   YY=            -91.5643   ZZ=            -93.1323
   XY=             -4.0897   XZ=              2.2190   YZ=             -2.7611

 Normal termination of Gaussian 16 at Wed May  5 20:41:31 2021.
