 Gaussian 16, Revision A.03,
 Gaussian 16:  EM64L-G16RevA.03 25-Dec-2016

 -------------
 #p 6-31g* mp2
 -------------

 ------------------------------------------------------
 Input file generated by CHIRIPA (05-May-2021 14:57:22)
 ------------------------------------------------------
 Symbolic Z-matrix:
 Charge =  0 Multiplicity = 1

                         Standard orientation:
 ---------------------------------------------------------------------
 Center     Atomic      Atomic             Coordinates (Angstroms)
 Number     Number       Type             X           Y           Z
 ---------------------------------------------------------------------
      1          6           0        2.675004   -2.380323   -0.665043
      2          6           0        3.876898   -1.665284   -0.691339
      3          6           0        3.889264   -0.288275   -0.450012
      4          6           0        2.675911    0.344628   -0.184495
      5          6           0        1.462120   -0.340136   -0.151350
      6          6           0        1.473569   -1.716637   -0.395608
      7          1           0        2.674648   -3.449820   -0.853650
      8          1           0        4.811459   -2.178090   -0.900316
      9          1           0        4.805334    0.289679   -0.464241
     10          1           0        0.546421    0.198677    0.059822
     11          1           0        0.538654   -2.269389   -0.374543
     12          7           0        2.676396    1.802138    0.072539
     13          8           0        1.593992    2.336404    0.304050
     14          8           0        3.759171    2.382669    0.037623
     15          6           0       -1.334935   -1.047915    2.144596
     16          6           0       -1.784652   -1.891161    1.123219
     17          6           0       -2.528392   -1.379330    0.055780
     18          6           0       -2.805465   -0.013199    0.041457
     19          6           0       -2.371452    0.852590    1.044121
     20          6           0       -1.629251    0.318860    2.101863
     21          1           0       -0.757778   -1.454023    2.970043
     22          1           0       -1.557577   -2.953021    1.153794
     23          1           0       -2.888948   -2.009518   -0.748137
     24          1           0       -2.613564    1.906835    0.986107
     25          1           0       -1.281295    0.976107    2.893694
     26          7           0       -3.592013    0.540245   -1.083460
     27          8           0       -3.822815    1.747413   -1.072831
     28          8           0       -3.962817   -0.243613   -1.954499
 ---------------------------------------------------------------------

 SCF Done:  E(RHF) =  -868.336612423     A.U. after   16 cycles
 E2 =    -0.2604221134D+01 EUMP2 =    -0.87094083355725D+03

 The electronic state is 1-A.
 Alpha  occ. eigenvalues --  -20.61145 -20.61115 -20.60995 -20.60974 -15.86197
 Alpha  occ. eigenvalues --  -15.86038 -11.31815 -11.31329 -11.28486 -11.28297
 Alpha  occ. eigenvalues --  -11.28143 -11.27925 -11.27798 -11.27674 -11.27528
 Alpha  occ. eigenvalues --  -11.27290 -11.26931 -11.26826  -1.60204  -1.60062
 Alpha  occ. eigenvalues --   -1.39749  -1.39618  -1.20053  -1.19510  -1.09366
 Alpha  occ. eigenvalues --   -1.08934  -1.05455  -1.04891  -0.96138  -0.95772
 Alpha  occ. eigenvalues --   -0.86820  -0.86299  -0.82953  -0.82602  -0.77979
 Alpha  occ. eigenvalues --   -0.77650  -0.72402  -0.72262  -0.71540  -0.71386
 Alpha  occ. eigenvalues --   -0.71042  -0.70646  -0.65634  -0.65459  -0.65167
 Alpha  occ. eigenvalues --   -0.64874  -0.62755  -0.62314  -0.55871  -0.55521
 Alpha  occ. eigenvalues --   -0.53665  -0.53483  -0.53204  -0.52975  -0.49186
 Alpha  occ. eigenvalues --   -0.49143  -0.49014  -0.49006  -0.45098  -0.45039
 Alpha  occ. eigenvalues --   -0.38176  -0.37543  -0.37031  -0.36332
 Alpha virt. eigenvalues --    0.04418   0.04972   0.10268   0.11382   0.15759
 Alpha virt. eigenvalues --    0.16450   0.20368   0.21846   0.25972   0.27864
 Alpha virt. eigenvalues --    0.28132   0.28223   0.30172   0.31513   0.32142

 Mulliken charges:
               1
     1  C   -0.171317
     2  C   -0.219243
     3  C   -0.170517
     4  C    0.155237
     5  C   -0.176045
     6  C   -0.223059
     7  H    0.223952
     8  H    0.223364
     9  H    0.275656
    10  H    0.284185
    11  H    0.221021
    12  N    0.487825
    13  O   -0.463122
    14  O   -0.459521
    15  C   -0.170792
    16  C   -0.231338
    17  C   -0.175101
    18  C    0.157730
    19  C   -0.168868
    20  C   -0.221162
    21  H    0.229913
    22  H    0.221947
    23  H    0.276854
    24  H    0.284800
    25  H    0.233928
    26  N    0.488446
    27  O   -0.454107
    28  O   -0.460666
 Sum of Mulliken charges =  -0.00000

 Dipole moment (field-independent basis, Debye):
    X=              2.4930    Y=             -6.7770    Z=              3.2055  Tot=              7.9005
 Quadrupole moment (field-independent basis, Debye-Ang):
   XX=           -115.7988   YY=           -105.0683   ZZ=           -104.1746
   XY=             -8.3993   XZ=            -14.2956   YZ=              2.7403

 Normal termination of Gaussian 16 at Thu May  6 03:22:28 2021.
