 Gaussian 16, Revision A.03,
 Gaussian 16:  EM64L-G16RevA.03 25-Dec-2016

 -------------
 #p 6-31g* mp2
 -------------

 ------------------------------------------------------
 Input file generated by CHIRIPA (05-May-2021 14:51:10)
 ------------------------------------------------------
 Symbolic Z-matrix:
 Charge =  0 Multiplicity = 1

                         Standard orientation:
 ---------------------------------------------------------------------
 Center     Atomic      Atomic             Coordinates (Angstroms)
 Number     Number       Type             X           Y           Z
 ---------------------------------------------------------------------
      1          6           0       -3.449313    0.729329   -0.178541
      2          6           0       -4.755419    1.280514    0.394405
      3          6           0       -4.854335    2.802198    0.282658
      4          1           0       -2.602110    1.192728    0.345343
      5          1           0       -3.365249    1.026712   -1.233004
      6          1           0       -4.837654    0.981009    1.447092
      7          1           0       -5.599613    0.815606   -0.130774
      8          1           0       -4.797844    3.116042   -0.764677
      9          1           0       -4.031555    3.282385    0.822153
     10          1           0       -5.795753    3.174909    0.698203
     11          6           0       -3.335660   -0.790508   -0.074104
     12          6           0       -2.029554   -1.341692   -0.647050
     13          6           0       -1.930638   -2.863376   -0.535303
     14          1           0       -3.419724   -1.087890    0.980359
     15          1           0       -4.182862   -1.253907   -0.597988
     16          1           0       -1.185360   -0.876784   -0.121871
     17          1           0       -1.947319   -1.042187   -1.699737
     18          1           0       -2.753418   -3.343564   -1.074799
     19          1           0       -1.987129   -3.177221    0.512032
     20          1           0       -0.989220   -3.236088   -0.950848
     21          6           0        2.817856   -0.392181    0.399265
     22          6           0        2.996164   -1.890362    0.150977
     23          6           0        1.838509   -2.722919    0.702773
     24          1           0        2.719025   -0.215132    1.479001
     25          1           0        1.875746   -0.061181   -0.059278
     26          1           0        3.938336   -2.218159    0.608662
     27          1           0        3.094775   -2.063845   -0.928280
     28          1           0        0.893314   -2.424091    0.238112
     29          1           0        1.741670   -2.579282    1.783787
     30          1           0        1.986475   -3.790841    0.514337
     31          6           0        3.967116    0.453360   -0.146620
     32          6           0        3.788809    1.951540    0.101668
     33          6           0        4.946464    2.784098   -0.450127
     34          1           0        4.909227    0.122360    0.311922
     35          1           0        4.065948    0.276310   -1.226356
     36          1           0        3.690199    2.125023    1.180925
     37          1           0        2.846637    2.279338   -0.356017
     38          1           0        5.043304    2.640461   -1.531142
     39          1           0        5.891658    2.485269    0.014533
     40          1           0        4.798496    3.852020   -0.261692
 ---------------------------------------------------------------------

 SCF Done:  E(RHF) =  -470.732824790     A.U. after   11 cycles
 E2 =    -0.1583137482D+01 EUMP2 =    -0.47231596227263D+03

 The electronic state is 1-A.
 Alpha  occ. eigenvalues --  -11.21638 -11.21610 -11.21599 -11.21572 -11.21422
 Alpha  occ. eigenvalues --  -11.21401 -11.21362 -11.21342 -11.21077 -11.21068
 Alpha  occ. eigenvalues --  -11.21047 -11.20973  -1.08454  -1.08414  -1.03578
 Alpha  occ. eigenvalues --   -1.03484  -0.96050  -0.95907  -0.87070  -0.86916
 Alpha  occ. eigenvalues --   -0.79613  -0.79575  -0.78282  -0.78216  -0.65135
 Alpha  occ. eigenvalues --   -0.65007  -0.61109  -0.60811  -0.59386  -0.59320
 Alpha  occ. eigenvalues --   -0.57728  -0.57478  -0.55405  -0.55104  -0.52782
 Alpha  occ. eigenvalues --   -0.52606  -0.52478  -0.52260  -0.49971  -0.49808
 Alpha  occ. eigenvalues --   -0.47925  -0.47880  -0.46699  -0.46552  -0.45889
 Alpha  occ. eigenvalues --   -0.45761  -0.45742  -0.45571  -0.43822  -0.43737
 Alpha virt. eigenvalues --    0.21193   0.23109   0.23507   0.24997   0.25695
 Alpha virt. eigenvalues --    0.26860   0.27063   0.27217   0.28256   0.29119
 Alpha virt. eigenvalues --    0.30678   0.31304   0.31646   0.31856   0.32001

 Mulliken charges:
               1
     1  C   -0.298479
     2  C   -0.299682
     3  C   -0.475741
     4  H    0.149846
     5  H    0.149370
     6  H    0.152051
     7  H    0.151964
     8  H    0.155130
     9  H    0.155264
    10  H    0.160303
    11  C   -0.297866
    12  C   -0.305103
    13  C   -0.478895
    14  H    0.149948
    15  H    0.149901
    16  H    0.154804
    17  H    0.151798
    18  H    0.155988
    19  H    0.156593
    20  H    0.162140
    21  C   -0.299927
    22  C   -0.299126
    23  C   -0.485497
    24  H    0.149336
    25  H    0.150595
    26  H    0.151713
    27  H    0.151522
    28  H    0.167904
    29  H    0.154279
    30  H    0.159707
    31  C   -0.298202
    32  C   -0.299720
    33  C   -0.475697
    34  H    0.149626
    35  H    0.149719
    36  H    0.151783
    37  H    0.152031
    38  H    0.155216
    39  H    0.155168
    40  H    0.160238
 Sum of Mulliken charges =  -0.00000

 Dipole moment (field-independent basis, Debye):
    X=             -0.0297    Y=             -0.0075    Z=             -0.0014  Tot=              0.0306
 Quadrupole moment (field-independent basis, Debye-Ang):
   XX=            -85.0417   YY=            -86.5069   ZZ=            -83.2546
   XY=             -0.2606   XZ=              1.0697   YZ=              0.2852

 Normal termination of Gaussian 16 at Wed May  5 18:11:29 2021.
