 Gaussian 16, Revision A.03,
 Gaussian 16:  EM64L-G16RevA.03 25-Dec-2016

 -------------
 #p 6-31g* mp2
 -------------

 ------------------------------------------------------
 Input file generated by CHIRIPA (05-May-2021 14:51:09)
 ------------------------------------------------------
 Symbolic Z-matrix:
 Charge =  0 Multiplicity = 1

                         Standard orientation:
 ---------------------------------------------------------------------
 Center     Atomic      Atomic             Coordinates (Angstroms)
 Number     Number       Type             X           Y           Z
 ---------------------------------------------------------------------
      1          6           0        3.272528    0.260243   -0.175432
      2          6           0        3.991654   -0.482110    0.951403
      3          6           0        4.914461   -1.587197    0.436616
      4          1           0        2.690425   -0.459526   -0.767068
      5          1           0        4.019542    0.692310   -0.855641
      6          1           0        3.243520   -0.911477    1.630046
      7          1           0        4.571961    0.239537    1.540541
      8          1           0        5.682202   -1.171405   -0.223908
      9          1           0        4.346213   -2.328959   -0.133895
     10          1           0        5.418376   -2.104856    1.258784
     11          6           0        2.346340    1.367988    0.323370
     12          6           0        1.627215    2.110341   -0.803464
     13          6           0        0.704407    3.215427   -0.288678
     14          1           0        1.599327    0.935921    1.003579
     15          1           0        2.928444    2.087756    0.915007
     16          1           0        1.046908    1.388693   -1.392603
     17          1           0        2.375349    2.539708   -1.482107
     18          1           0        1.272655    3.957190    0.281834
     19          1           0       -0.063333    2.799635    0.371846
     20          1           0        0.200493    3.733086   -1.110845
     21          6           0       -2.162567   -0.897153   -0.471585
     22          6           0       -1.408249   -2.185253   -0.140245
     23          6           0       -0.116294   -2.337091   -0.943732
     24          1           0       -2.392972   -0.880630   -1.545636
     25          1           0       -1.506823   -0.036675   -0.279303
     26          1           0       -2.065690   -3.042983   -0.331782
     27          1           0       -1.179780   -2.198802    0.933177
     28          1           0        0.561336   -1.500396   -0.745340
     29          1           0       -0.329607   -2.349374   -2.017486
     30          1           0        0.406902   -3.264630   -0.691149
     31          6           0       -3.456302   -0.731078    0.323647
     32          6           0       -4.210619    0.557023   -0.007693
     33          6           0       -5.502575    0.708861    0.795793
     34          1           0       -4.112045   -1.591556    0.131364
     35          1           0       -3.225896   -0.747602    1.397698
     36          1           0       -4.439089    0.570571   -1.081116
     37          1           0       -3.553179    1.414753    0.183843
     38          1           0       -5.289261    0.721144    1.869547
     39          1           0       -6.180205   -0.127835    0.597401
     40          1           0       -6.025771    1.636399    0.543211
 ---------------------------------------------------------------------

 SCF Done:  E(RHF) =  -470.733323417     A.U. after   11 cycles
 E2 =    -0.1583669340D+01 EUMP2 =    -0.47231699275709D+03

 The electronic state is 1-A.
 Alpha  occ. eigenvalues --  -11.21672 -11.21626 -11.21622 -11.21594 -11.21461
 Alpha  occ. eigenvalues --  -11.21422 -11.21398 -11.21342 -11.21144 -11.21110
 Alpha  occ. eigenvalues --  -11.21087 -11.21050  -1.08493  -1.08436  -1.03580
 Alpha  occ. eigenvalues --   -1.03537  -0.96048  -0.95975  -0.87058  -0.86998
 Alpha  occ. eigenvalues --   -0.79650  -0.79597  -0.78317  -0.78234  -0.65294
 Alpha  occ. eigenvalues --   -0.64937  -0.60970  -0.60941  -0.59400  -0.59350
 Alpha  occ. eigenvalues --   -0.57669  -0.57578  -0.55501  -0.55114  -0.52725
 Alpha  occ. eigenvalues --   -0.52683  -0.52492  -0.52373  -0.50062  -0.49855
 Alpha  occ. eigenvalues --   -0.47984  -0.47918  -0.46744  -0.46627  -0.45975
 Alpha  occ. eigenvalues --   -0.45800  -0.45730  -0.45455  -0.43835  -0.43792
 Alpha virt. eigenvalues --    0.19076   0.22575   0.23782   0.24719   0.25782
 Alpha virt. eigenvalues --    0.26397   0.27031   0.27578   0.28653   0.29406
 Alpha virt. eigenvalues --    0.30977   0.31581   0.31739   0.31768   0.32042

 Mulliken charges:
               1
     1  C   -0.304575
     2  C   -0.299358
     3  C   -0.475947
     4  H    0.155620
     5  H    0.149997
     6  H    0.151768
     7  H    0.151855
     8  H    0.155120
     9  H    0.155916
    10  H    0.160090
    11  C   -0.299005
    12  C   -0.302283
    13  C   -0.476311
    14  H    0.148732
    15  H    0.150123
    16  H    0.154226
    17  H    0.152400
    18  H    0.155402
    19  H    0.154727
    20  H    0.160823
    21  C   -0.301239
    22  C   -0.299154
    23  C   -0.484210
    24  H    0.149981
    25  H    0.151628
    26  H    0.152429
    27  H    0.151748
    28  H    0.162644
    29  H    0.155711
    30  H    0.160439
    31  C   -0.298320
    32  C   -0.299915
    33  C   -0.475745
    34  H    0.149816
    35  H    0.149606
    36  H    0.152087
    37  H    0.152283
    38  H    0.155211
    39  H    0.155195
    40  H    0.160486
 Sum of Mulliken charges =  -0.00000

 Dipole moment (field-independent basis, Debye):
    X=             -0.0079    Y=             -0.0049    Z=             -0.0196  Tot=              0.0217
 Quadrupole moment (field-independent basis, Debye-Ang):
   XX=            -85.2722   YY=            -84.8224   ZZ=            -84.5322
   XY=              1.6163   XZ=              0.9596   YZ=              0.0178

 Normal termination of Gaussian 16 at Thu May  6 02:09:27 2021.
