 Gaussian 16, Revision A.03,
 Gaussian 16:  EM64L-G16RevA.03 25-Dec-2016

 -------------
 #p 6-31g* mp2
 -------------

 ------------------------------------------------------
 Input file generated by CHIRIPA (05-May-2021 14:57:23)
 ------------------------------------------------------
 Symbolic Z-matrix:
 Charge =  0 Multiplicity = 1

                         Standard orientation:
 ---------------------------------------------------------------------
 Center     Atomic      Atomic             Coordinates (Angstroms)
 Number     Number       Type             X           Y           Z
 ---------------------------------------------------------------------
      1          6           0       -0.880433   -1.820139    0.463832
      2          6           0       -2.068147   -1.963722    1.188567
      3          6           0       -3.173809   -1.155779    0.906987
      4          6           0       -3.056323   -0.210208   -0.110551
      5          6           0       -1.886672   -0.043130   -0.850342
      6          6           0       -0.793639   -0.861991   -0.551520
      7          1           0       -0.026434   -2.452010    0.689267
      8          1           0       -2.138421   -2.706996    1.977650
      9          1           0       -4.105384   -1.245738    1.452417
     10          1           0       -1.846842    0.706628   -1.631172
     11          1           0        0.127488   -0.748261   -1.115997
     12          7           0       -4.220152    0.650904   -0.417774
     13          8           0       -4.091131    1.476501   -1.319096
     14          8           0       -5.239346    0.483942    0.248563
     15          6           0        2.132791    2.519524    1.124302
     16          6           0        2.281612    1.370236    1.907571
     17          6           0        2.686509    0.163886    1.328499
     18          6           0        2.935250    0.142594   -0.042984
     19          6           0        2.795956    1.270682   -0.850019
     20          6           0        2.389984    2.466172   -0.249571
     21          1           0        1.817839    3.452428    1.582441
     22          1           0        2.082567    1.408722    2.974785
     23          1           0        2.809646   -0.740834    1.911370
     24          1           0        3.001691    1.201264   -1.911278
     25          1           0        2.275237    3.357155   -0.860332
     26          7           0        3.364465   -1.128767   -0.667336
     27          8           0        3.577426   -1.121307   -1.877802
     28          8           0        3.479794   -2.108646    0.065585
 ---------------------------------------------------------------------

 SCF Done:  E(RHF) =  -868.338698389     A.U. after   16 cycles
 E2 =    -0.2601165933D+01 EUMP2 =    -0.87093986432184D+03

 The electronic state is 1-A.
 Alpha  occ. eigenvalues --  -20.61879 -20.61849 -20.60820 -20.60813 -15.86892
 Alpha  occ. eigenvalues --  -15.85870 -11.32082 -11.31153 -11.28623 -11.28603
 Alpha  occ. eigenvalues --  -11.28241 -11.27713 -11.27703 -11.27548 -11.27537
 Alpha  occ. eigenvalues --  -11.27346 -11.26692 -11.26646  -1.60947  -1.59897
 Alpha  occ. eigenvalues --   -1.40499  -1.39453  -1.20231  -1.19306  -1.09643
 Alpha  occ. eigenvalues --   -1.08703  -1.05584  -1.04699  -0.96504  -0.95554
 Alpha  occ. eigenvalues --   -0.86989  -0.86098  -0.83328  -0.82392  -0.78421
 Alpha  occ. eigenvalues --   -0.77472  -0.73092  -0.72320  -0.72081  -0.71286
 Alpha  occ. eigenvalues --   -0.71222  -0.70363  -0.65859  -0.65554  -0.64950
 Alpha  occ. eigenvalues --   -0.64700  -0.62930  -0.62063  -0.56039  -0.55146
 Alpha  occ. eigenvalues --   -0.54018  -0.53652  -0.52989  -0.52730  -0.49874
 Alpha  occ. eigenvalues --   -0.49840  -0.48849  -0.48837  -0.45920  -0.44877
 Alpha  occ. eigenvalues --   -0.38198  -0.37391  -0.37020  -0.36291
 Alpha virt. eigenvalues --    0.04051   0.05064   0.10385   0.11344   0.15615
 Alpha virt. eigenvalues --    0.16597   0.20620   0.21412   0.26503   0.26880
 Alpha virt. eigenvalues --    0.27496   0.28433   0.30490   0.30602   0.32298

 Mulliken charges:
               1
     1  C   -0.175886
     2  C   -0.219716
     3  C   -0.172034
     4  C    0.157769
     5  C   -0.172959
     6  C   -0.216987
     7  H    0.234097
     8  H    0.223311
     9  H    0.274645
    10  H    0.273375
    11  H    0.224992
    12  N    0.488040
    13  O   -0.461981
    14  O   -0.460849
    15  C   -0.168833
    16  C   -0.215551
    17  C   -0.172272
    18  C    0.152502
    19  C   -0.177885
    20  C   -0.217201
    21  H    0.230822
    22  H    0.226709
    23  H    0.273810
    24  H    0.277001
    25  H    0.228121
    26  N    0.486597
    27  O   -0.457254
    28  O   -0.462384
 Sum of Mulliken charges =  -0.00000

 Dipole moment (field-independent basis, Debye):
    X=              2.7760    Y=              1.6140    Z=              3.3805  Tot=              4.6625
 Quadrupole moment (field-independent basis, Debye-Ang):
   XX=           -139.0030   YY=           -100.6528   ZZ=            -99.0117
   XY=             23.4226   XZ=              0.4576   YZ=             -3.7820

 Normal termination of Gaussian 16 at Thu May  6 00:15:59 2021.
