 Gaussian 16, Revision A.03,
 Gaussian 16:  EM64L-G16RevA.03 25-Dec-2016

 -------------
 #p 6-31g* mp2
 -------------

 ------------------------------------------------------
 Input file generated by CHIRIPA (05-May-2021 14:51:09)
 ------------------------------------------------------
 Symbolic Z-matrix:
 Charge =  0 Multiplicity = 1

                         Standard orientation:
 ---------------------------------------------------------------------
 Center     Atomic      Atomic             Coordinates (Angstroms)
 Number     Number       Type             X           Y           Z
 ---------------------------------------------------------------------
      1          6           0        2.463878   -0.279140   -0.195586
      2          6           0        3.226319   -1.401752    0.508979
      3          6           0        2.728613   -2.792581    0.114420
      4          1           0        1.394256   -0.367579    0.039000
      5          1           0        2.557143   -0.408190   -1.282804
      6          1           0        3.132798   -1.269833    1.594551
      7          1           0        4.294276   -1.310517    0.272842
      8          1           0        2.837375   -2.949169   -0.963658
      9          1           0        1.669297   -2.908255    0.365561
     10          1           0        3.287389   -3.580059    0.629695
     11          6           0        2.949955    1.117239    0.188582
     12          6           0        2.187514    2.239851   -0.515983
     13          6           0        2.685220    3.630680   -0.121424
     14          1           0        2.856691    1.246289    1.275800
     15          1           0        4.019578    1.205677   -0.046004
     16          1           0        1.119558    2.148615   -0.279846
     17          1           0        2.281035    2.107932   -1.601555
     18          1           0        3.744536    3.746354   -0.372565
     19          1           0        2.576459    3.787268    0.956654
     20          1           0        2.126444    4.418157   -0.636699
     21          6           0       -2.586772   -1.071827   -0.374491
     22          6           0       -1.605720   -2.009056    0.330578
     23          6           0       -1.375652   -3.310744   -0.437843
     24          1           0       -3.544718   -1.591371   -0.513623
     25          1           0       -2.206420   -0.843000   -1.379661
     26          1           0       -1.987124   -2.234942    1.334632
     27          1           0       -0.650059   -1.487154    0.468219
     28          1           0       -0.972228   -3.103694   -1.434326
     29          1           0       -2.316889   -3.855730   -0.562991
     30          1           0       -0.671113   -3.965848    0.084006
     31          6           0       -2.827061    0.233728    0.381495
     32          6           0       -3.808113    1.170957   -0.323575
     33          6           0       -4.038182    2.472645    0.444846
     34          1           0       -3.207413    0.004901    1.386665
     35          1           0       -1.869115    0.753272    0.520628
     36          1           0       -4.763774    0.649055   -0.461215
     37          1           0       -3.426709    1.396843   -1.327628
     38          1           0       -3.096944    3.017632    0.569995
     39          1           0       -4.441606    2.265595    1.441330
     40          1           0       -4.742720    3.127749   -0.077001
 ---------------------------------------------------------------------

 SCF Done:  E(RHF) =  -470.732890402     A.U. after   11 cycles
 E2 =    -0.1584129530D+01 EUMP2 =    -0.47231701993156D+03

 The electronic state is 1-A.
 Alpha  occ. eigenvalues --  -11.21660 -11.21624 -11.21621 -11.21609 -11.21439
 Alpha  occ. eigenvalues --  -11.21439 -11.21379 -11.21377 -11.21109 -11.21090
 Alpha  occ. eigenvalues --  -11.21066 -11.21026  -1.08489  -1.08437  -1.03594
 Alpha  occ. eigenvalues --   -1.03515  -0.96040  -0.95962  -0.87070  -0.86962
 Alpha  occ. eigenvalues --   -0.79644  -0.79599  -0.78369  -0.78196  -0.65280
 Alpha  occ. eigenvalues --   -0.64932  -0.61144  -0.60796  -0.59434  -0.59304
 Alpha  occ. eigenvalues --   -0.57719  -0.57518  -0.55353  -0.55218  -0.52748
 Alpha  occ. eigenvalues --   -0.52681  -0.52514  -0.52300  -0.50032  -0.49841
 Alpha  occ. eigenvalues --   -0.47970  -0.47899  -0.46875  -0.46532  -0.46152
 Alpha  occ. eigenvalues --   -0.45783  -0.45769  -0.45239  -0.43819  -0.43797
 Alpha virt. eigenvalues --    0.19945   0.22366   0.23554   0.24937   0.25200
 Alpha virt. eigenvalues --    0.26546   0.26847   0.27292   0.29021   0.29837
 Alpha virt. eigenvalues --    0.30510   0.30656   0.31476   0.31822   0.31968

 Mulliken charges:
               1
     1  C   -0.306816
     2  C   -0.299016
     3  C   -0.482836
     4  H    0.156597
     5  H    0.149462
     6  H    0.151725
     7  H    0.152021
     8  H    0.155004
     9  H    0.163609
    10  H    0.159947
    11  C   -0.297568
    12  C   -0.300306
    13  C   -0.475765
    14  H    0.149695
    15  H    0.150008
    16  H    0.151371
    17  H    0.152066
    18  H    0.155452
    19  H    0.155415
    20  H    0.160332
    21  C   -0.297626
    22  C   -0.310393
    23  C   -0.477071
    24  H    0.149956
    25  H    0.150115
    26  H    0.152023
    27  H    0.159975
    28  H    0.156291
    29  H    0.155531
    30  H    0.161547
    31  C   -0.299281
    32  C   -0.299705
    33  C   -0.475729
    34  H    0.149678
    35  H    0.149180
    36  H    0.152133
    37  H    0.152285
    38  H    0.155102
    39  H    0.155171
    40  H    0.160419
 Sum of Mulliken charges =  -0.00000

 Dipole moment (field-independent basis, Debye):
    X=             -0.0076    Y=             -0.0106    Z=             -0.0097  Tot=              0.0163
 Quadrupole moment (field-independent basis, Debye-Ang):
   XX=            -83.8344   YY=            -86.6766   ZZ=            -84.1529
   XY=              0.3695   XZ=             -0.8315   YZ=             -0.8210

 Normal termination of Gaussian 16 at Thu May  6 00:33:05 2021.
