 Gaussian 16, Revision A.03,
 Gaussian 16:  EM64L-G16RevA.03 25-Dec-2016

 -------------
 #p 6-31g* mp2
 -------------

 ------------------------------------------------------
 Input file generated by CHIRIPA (05-May-2021 14:57:26)
 ------------------------------------------------------
 Symbolic Z-matrix:
 Charge =  0 Multiplicity = 1

                         Standard orientation:
 ---------------------------------------------------------------------
 Center     Atomic      Atomic             Coordinates (Angstroms)
 Number     Number       Type             X           Y           Z
 ---------------------------------------------------------------------
      1          6           0       -1.616987   -2.129337    0.257762
      2          6           0       -3.000386   -2.295549    0.380652
      3          6           0       -3.863829   -1.209059    0.211672
      4          6           0       -3.307216    0.035104   -0.080783
      5          6           0       -1.933282    0.232639   -0.209532
      6          6           0       -1.088782   -0.867997   -0.036419
      7          1           0       -0.953602   -2.978843    0.390635
      8          1           0       -3.413404   -3.273962    0.609057
      9          1           0       -4.938676   -1.309558    0.301241
     10          1           0       -1.551142    1.220191   -0.437846
     11          1           0       -0.014821   -0.735961   -0.132441
     12          7           0       -4.211277    1.192810   -0.261862
     13          8           0       -3.695929    2.278601   -0.518983
     14          8           0       -5.418110    0.992508   -0.143241
     15          6           0        3.136685    2.635826    0.514006
     16          6           0        3.619776    2.156032   -0.707854
     17          6           0        3.636434    0.783894   -0.975267
     18          6           0        3.160297   -0.084070    0.006171
     19          6           0        2.672742    0.363188    1.233176
     20          6           0        2.665540    1.739453    1.478920
     21          1           0        3.127417    3.703339    0.713321
     22          1           0        3.986295    2.849845   -1.459075
     23          1           0        4.004922    0.385301   -1.912688
     24          1           0        2.313930   -0.352913    1.962471
     25          1           0        2.289788    2.109223    2.428723
     26          7           0        3.172927   -1.538875   -0.265457
     27          8           0        2.747917   -2.282890    0.615704
     28          8           0        3.607596   -1.907590   -1.354378
 ---------------------------------------------------------------------

 SCF Done:  E(RHF) =  -868.339403791     A.U. after   16 cycles
 E2 =    -0.2599969547D+01 EUMP2 =    -0.87093937333784D+03

 The electronic state is 1-A.
 Alpha  occ. eigenvalues --  -20.61865 -20.61820 -20.60669 -20.60656 -15.86874
 Alpha  occ. eigenvalues --  -15.85715 -11.32092 -11.30945 -11.28628 -11.28579
 Alpha  occ. eigenvalues --  -11.28249 -11.27546 -11.27522 -11.27520 -11.27503
 Alpha  occ. eigenvalues --  -11.27082 -11.26437 -11.26412  -1.60922  -1.59744
 Alpha  occ. eigenvalues --   -1.40474  -1.39302  -1.20234  -1.19094  -1.09640
 Alpha  occ. eigenvalues --   -1.08483  -1.05581  -1.04485  -0.96497  -0.95345
 Alpha  occ. eigenvalues --   -0.86981  -0.85871  -0.83317  -0.82194  -0.78405
 Alpha  occ. eigenvalues --   -0.77291  -0.73078  -0.72276  -0.71932  -0.71274
 Alpha  occ. eigenvalues --   -0.71067  -0.70120  -0.65855  -0.65539  -0.64729
 Alpha  occ. eigenvalues --   -0.64471  -0.62911  -0.61847  -0.56035  -0.54884
 Alpha  occ. eigenvalues --   -0.53960  -0.53635  -0.52816  -0.52540  -0.49856
 Alpha  occ. eigenvalues --   -0.49824  -0.48700  -0.48678  -0.45893  -0.44739
 Alpha  occ. eigenvalues --   -0.38184  -0.37200  -0.37013  -0.36098
 Alpha virt. eigenvalues --    0.04078   0.05255   0.10371   0.11581   0.15610
 Alpha virt. eigenvalues --    0.16798   0.20753   0.21715   0.26630   0.27077
 Alpha virt. eigenvalues --    0.27705   0.28748   0.30407   0.31161   0.31814

 Mulliken charges:
               1
     1  C   -0.172619
     2  C   -0.219267
     3  C   -0.171517
     4  C    0.157998
     5  C   -0.174067
     6  C   -0.222192
     7  H    0.238164
     8  H    0.223851
     9  H    0.274479
    10  H    0.272165
    11  H    0.224075
    12  N    0.488306
    13  O   -0.463549
    14  O   -0.460845
    15  C   -0.170110
    16  C   -0.218197
    17  C   -0.171513
    18  C    0.151721
    19  C   -0.178313
    20  C   -0.218086
    21  H    0.230978
    22  H    0.227886
    23  H    0.278071
    24  H    0.276123
    25  H    0.228379
    26  N    0.488106
    27  O   -0.465372
    28  O   -0.454655
 Sum of Mulliken charges =  -0.00000

 Dipole moment (field-independent basis, Debye):
    X=              3.4664    Y=              1.0948    Z=              1.5924  Tot=              3.9686
 Quadrupole moment (field-independent basis, Debye-Ang):
   XX=           -122.9013   YY=           -104.2906   ZZ=           -101.4555
   XY=             33.9405   XZ=             -2.3679   YZ=             -1.0418

 Normal termination of Gaussian 16 at Thu May  6 16:30:34 2021.
