 Gaussian 16, Revision A.03,
 Gaussian 16:  EM64L-G16RevA.03 25-Dec-2016

 -------------
 #p 6-31g* mp2
 -------------

 ------------------------------------------------------
 Input file generated by CHIRIPA (05-May-2021 14:53:17)
 ------------------------------------------------------
 Symbolic Z-matrix:
 Charge =  0 Multiplicity = 1

                         Standard orientation:
 ---------------------------------------------------------------------
 Center     Atomic      Atomic             Coordinates (Angstroms)
 Number     Number       Type             X           Y           Z
 ---------------------------------------------------------------------
      1          6           0       -3.737040    0.646821    0.355257
      2          6           0       -3.088178    1.786713   -0.430625
      3          6           0       -2.775966    3.003192    0.441438
      4          1           0       -4.661925    1.011989    0.822362
      5          1           0       -3.068968    0.349439    1.175402
      6          1           0       -3.756661    2.080925   -1.249884
      7          1           0       -2.164831    1.418737   -0.896070
      8          1           0       -2.090383    2.731388    1.250574
      9          1           0       -3.691258    3.397338    0.894749
     10          1           0       -2.312645    3.806041   -0.140480
     11          6           0       -4.055140   -0.576360   -0.502862
     12          6           0       -4.704002   -1.716251    0.283020
     13          6           0       -5.016215   -2.932731   -0.589043
     14          1           0       -4.723213   -0.278978   -1.323007
     15          1           0       -3.130256   -0.941527   -0.969967
     16          1           0       -5.627350   -1.348276    0.748465
     17          1           0       -4.035520   -2.010463    1.102279
     18          1           0       -4.100923   -3.326877   -1.042354
     19          1           0       -5.701797   -2.660927   -1.398179
     20          1           0       -5.479535   -3.735580   -0.007125
     21          6           0        0.876002    1.242024    0.291616
     22          6           0        1.889491    1.734200   -0.537314
     23          6           0        3.094731    1.039129   -0.674517
     24          6           0        3.253397   -0.150259    0.035040
     25          6           0        2.262460   -0.666400    0.868666
     26          6           0        1.065388    0.045405    0.990727
     27          1           0       -0.057084    1.788471    0.392318
     28          1           0        1.745189    2.663247   -1.081456
     29          1           0        3.895953    1.397412   -1.309414
     30          1           0        2.435566   -1.595282    1.398411
     31          1           0        0.280040   -0.339209    1.635201
     32          7           0        4.525007   -0.894957   -0.102195
     33          8           0        4.640090   -1.940478    0.533633
     34          8           0        5.382533   -0.419029   -0.842992
 ---------------------------------------------------------------------

 SCF Done:  E(RHF) =  -669.535185748     A.U. after   15 cycles
 E2 =    -0.2092038818D+01 EUMP2 =    -0.67162722456585D+03

 The electronic state is 1-A.
 Alpha  occ. eigenvalues --  -20.60749 -20.60743 -15.85803 -11.31166 -11.27739
 Alpha  occ. eigenvalues --  -11.27732 -11.27405 -11.26750 -11.26732 -11.22783
 Alpha  occ. eigenvalues --  -11.22436 -11.22427 -11.22268 -11.22157 -11.21583
 Alpha  occ. eigenvalues --   -1.59824  -1.39378  -1.19337  -1.09381  -1.08726
 Alpha  occ. eigenvalues --   -1.04741  -1.04480  -0.96929  -0.95562  -0.87933
 Alpha  occ. eigenvalues --   -0.86136  -0.82401  -0.80545  -0.79131  -0.77450
 Alpha  occ. eigenvalues --   -0.72020  -0.71148  -0.70510  -0.66024  -0.64985
 Alpha  occ. eigenvalues --   -0.64739  -0.62092  -0.61903  -0.60315  -0.58503
 Alpha  occ. eigenvalues --   -0.56405  -0.54991  -0.53607  -0.53320  -0.53071
 Alpha  occ. eigenvalues --   -0.52831  -0.50872  -0.48844  -0.48775  -0.48769
 Alpha  occ. eigenvalues --   -0.47609  -0.46673  -0.46584  -0.44784  -0.44704
 Alpha  occ. eigenvalues --   -0.37299  -0.36351
 Alpha virt. eigenvalues --    0.05059   0.11295   0.16457   0.18805   0.22776
 Alpha virt. eigenvalues --    0.23891   0.25092   0.26193   0.26543   0.28100
 Alpha virt. eigenvalues --    0.29588   0.30339   0.30790   0.31029   0.31734

 Mulliken charges:
               1
     1  C   -0.296889
     2  C   -0.306989
     3  C   -0.482886
     4  H    0.153830
     5  H    0.142696
     6  H    0.158826
     7  H    0.149858
     8  H    0.147771
     9  H    0.164913
    10  H    0.161635
    11  C   -0.299629
    12  C   -0.299852
    13  C   -0.476363
    14  H    0.152251
    15  H    0.151229
    16  H    0.153384
    17  H    0.150305
    18  H    0.156560
    19  H    0.156535
    20  H    0.162347
    21  C   -0.178605
    22  C   -0.222343
    23  C   -0.170504
    24  C    0.158290
    25  C   -0.170593
    26  C   -0.223309
    27  H    0.242596
    28  H    0.223898
    29  H    0.275497
    30  H    0.275454
    31  H    0.223103
    32  N    0.487983
    33  O   -0.460549
    34  O   -0.460450
 Sum of Mulliken charges =  -0.00000

 Dipole moment (field-independent basis, Debye):
    X=             -4.7380    Y=              2.6191    Z=              0.4176  Tot=              5.4298
 Quadrupole moment (field-independent basis, Debye-Ang):
   XX=           -122.1062   YY=            -93.9483   ZZ=            -93.4977
   XY=              9.9119   XZ=              0.3768   YZ=             -3.1242

 Normal termination of Gaussian 16 at Thu May  6 01:14:14 2021.
