 Gaussian 16, Revision A.03,
 Gaussian 16:  EM64L-G16RevA.03 25-Dec-2016

 -------------
 #p 6-31g* mp2
 -------------

 ------------------------------------------------------
 Input file generated by CHIRIPA (05-May-2021 14:51:10)
 ------------------------------------------------------
 Symbolic Z-matrix:
 Charge =  0 Multiplicity = 1

                         Standard orientation:
 ---------------------------------------------------------------------
 Center     Atomic      Atomic             Coordinates (Angstroms)
 Number     Number       Type             X           Y           Z
 ---------------------------------------------------------------------
      1          6           0        2.559704   -0.439943    0.014653
      2          6           0        1.888504   -1.348501    1.045186
      3          6           0        0.398375   -1.553637    0.770907
      4          1           0        2.049713    0.533081    0.005709
      5          1           0        2.426338   -0.871961   -0.986831
      6          1           0        2.024290   -0.915609    2.044577
      7          1           0        2.400274   -2.319410    1.051813
      8          1           0        0.246815   -2.007368   -0.213856
      9          1           0       -0.131304   -0.595590    0.784547
     10          1           0       -0.061515   -2.206247    1.519547
     11          6           0        4.049561   -0.225299    0.275384
     12          6           0        4.720761    0.683260   -0.755149
     13          6           0        6.210890    0.888396   -0.480871
     14          1           0        4.182927    0.206719    1.276867
     15          1           0        4.559552   -1.198322    0.284328
     16          1           0        4.208991    1.654169   -0.761777
     17          1           0        4.584975    0.250367   -1.754540
     18          1           0        6.740570   -0.069651   -0.494511
     19          1           0        6.362450    1.342126    0.503893
     20          1           0        6.670780    1.541005   -1.229511
     21          6           0       -3.386043   -0.269267   -0.608197
     22          6           0       -3.421481   -1.605425    0.134376
     23          6           0       -3.584779   -2.800085   -0.805791
     24          1           0       -4.310858   -0.155880   -1.190268
     25          1           0       -2.560202   -0.282280   -1.332912
     26          1           0       -4.246151   -1.589377    0.858446
     27          1           0       -2.496559   -1.715559    0.714897
     28          1           0       -2.756305   -2.844202   -1.520135
     29          1           0       -4.515838   -2.717305   -1.375771
     30          1           0       -3.607655   -3.745008   -0.254014
     31          6           0       -3.223222    0.934508    0.318161
     32          6           0       -3.187784    2.270666   -0.424412
     33          6           0       -3.024486    3.465326    0.515755
     34          1           0       -4.049063    0.947521    1.042875
     35          1           0       -2.298407    0.821121    0.900231
     36          1           0       -4.112706    2.380800   -1.004934
     37          1           0       -2.363114    2.254618   -1.148482
     38          1           0       -2.093427    3.382546    1.085734
     39          1           0       -3.852960    3.509444    1.230099
     40          1           0       -3.001611    4.410249   -0.036022
 ---------------------------------------------------------------------

 SCF Done:  E(RHF) =  -470.732840702     A.U. after   11 cycles
 E2 =    -0.1583568986D+01 EUMP2 =    -0.47231640968821D+03

 The electronic state is 1-A.
 Alpha  occ. eigenvalues --  -11.21677 -11.21642 -11.21577 -11.21470 -11.21406
 Alpha  occ. eigenvalues --  -11.21403 -11.21344 -11.21262 -11.21190 -11.21102
 Alpha  occ. eigenvalues --  -11.21067 -11.20971  -1.08499  -1.08353  -1.03609
 Alpha  occ. eigenvalues --   -1.03445  -0.96060  -0.95915  -0.87096  -0.86920
 Alpha  occ. eigenvalues --   -0.79712  -0.79489  -0.78320  -0.78150  -0.65151
 Alpha  occ. eigenvalues --   -0.64979  -0.60999  -0.60870  -0.59443  -0.59260
 Alpha  occ. eigenvalues --   -0.57672  -0.57513  -0.55434  -0.55126  -0.52794
 Alpha  occ. eigenvalues --   -0.52605  -0.52469  -0.52334  -0.50006  -0.49854
 Alpha  occ. eigenvalues --   -0.48000  -0.47829  -0.46730  -0.46553  -0.45938
 Alpha  occ. eigenvalues --   -0.45781  -0.45670  -0.45479  -0.43808  -0.43703
 Alpha virt. eigenvalues --    0.20823   0.22985   0.23735   0.24591   0.25726
 Alpha virt. eigenvalues --    0.26557   0.27246   0.27458   0.27858   0.29416
 Alpha virt. eigenvalues --    0.29969   0.30812   0.31808   0.32084   0.32340

 Mulliken charges:
               1
     1  C   -0.298565
     2  C   -0.300599
     3  C   -0.481541
     4  H    0.149349
     5  H    0.149561
     6  H    0.152260
     7  H    0.152409
     8  H    0.156446
     9  H    0.159500
    10  H    0.160950
    11  C   -0.298374
    12  C   -0.299686
    13  C   -0.475748
    14  H    0.149681
    15  H    0.149861
    16  H    0.151990
    17  H    0.151986
    18  H    0.155257
    19  H    0.155268
    20  H    0.160411
    21  C   -0.297880
    22  C   -0.308100
    23  C   -0.475409
    24  H    0.149190
    25  H    0.149772
    26  H    0.150550
    27  H    0.164714
    28  H    0.154637
    29  H    0.154515
    30  H    0.159547
    31  C   -0.302328
    32  C   -0.299568
    33  C   -0.475542
    34  H    0.149633
    35  H    0.152038
    36  H    0.152090
    37  H    0.151797
    38  H    0.154449
    39  H    0.155275
    40  H    0.160202
 Sum of Mulliken charges =  -0.00000

 Dipole moment (field-independent basis, Debye):
    X=              0.0580    Y=             -0.0143    Z=              0.0188  Tot=              0.0627
 Quadrupole moment (field-independent basis, Debye-Ang):
   XX=            -85.0535   YY=            -85.1459   ZZ=            -84.7651
   XY=             -0.6960   XZ=             -0.3849   YZ=             -0.1054

 Normal termination of Gaussian 16 at Thu May  6 02:14:23 2021.
