 Gaussian 16, Revision A.03,
 Gaussian 16:  EM64L-G16RevA.03 25-Dec-2016

 -------------
 #p 6-31g* mp2
 -------------

 ------------------------------------------------------
 Input file generated by CHIRIPA (05-May-2021 14:55:25)
 ------------------------------------------------------
 Symbolic Z-matrix:
 Charge =  0 Multiplicity = 1

                         Standard orientation:
 ---------------------------------------------------------------------
 Center     Atomic      Atomic             Coordinates (Angstroms)
 Number     Number       Type             X           Y           Z
 ---------------------------------------------------------------------
      1          6           0        5.352127    0.097619   -0.711974
      2          6           0        4.795808   -1.184758   -0.762381
      3          6           0        3.498965   -1.415034   -0.293639
      4          6           0        2.783510   -0.335154    0.221407
      5          6           0        3.310125    0.953996    0.285111
      6          6           0        4.608820    1.161028   -0.189311
      7          1           0        6.360265    0.267475   -1.078310
      8          1           0        5.370747   -2.012500   -1.167762
      9          1           0        3.043876   -2.397672   -0.320766
     10          1           0        2.712517    1.759270    0.694766
     11          1           0        5.038307    2.158001   -0.148917
     12          7           0        1.409620   -0.566634    0.720650
     13          8           0        0.799970    0.401510    1.169718
     14          8           0        0.968429   -1.711828    0.653434
     15          6           0       -3.770381    1.100494   -0.418448
     16          6           0       -2.577137    1.817954    0.213537
     17          6           0       -2.425574    3.258071   -0.277263
     18          1           0       -3.657252    1.106976   -1.511199
     19          1           0       -4.687566    1.663169   -0.195819
     20          1           0       -1.662647    1.253347   -0.009048
     21          1           0       -2.693024    1.809594    1.304919
     22          1           0       -3.321247    3.841759   -0.041303
     23          1           0       -2.285017    3.282351   -1.362737
     24          1           0       -1.566519    3.752192    0.187204
     25          6           0       -3.935073   -0.340165    0.062285
     26          6           0       -5.128319   -1.057624   -0.569699
     27          6           0       -5.279881   -2.497741   -0.078900
     28          1           0       -3.017888   -0.902840   -0.160343
     29          1           0       -4.048203   -0.346648    1.155036
     30          1           0       -5.012431   -1.049264   -1.661082
     31          1           0       -6.042808   -0.493017   -0.347114
     32          1           0       -5.420439   -2.522022    1.006575
     33          1           0       -4.384207   -3.081430   -0.314859
     34          1           0       -6.138935   -2.991864   -0.543368
 ---------------------------------------------------------------------

 SCF Done:  E(RHF) =  -669.536062505     A.U. after   15 cycles
 E2 =    -0.2091029325D+01 EUMP2 =    -0.67162709183081D+03

 The electronic state is 1-A.
 Alpha  occ. eigenvalues --  -20.60982 -20.60970 -15.86003 -11.31318 -11.27880
 Alpha  occ. eigenvalues --  -11.27876 -11.27615 -11.26884 -11.26875 -11.20657
 Alpha  occ. eigenvalues --  -11.20249 -11.20200 -11.20149 -11.20120 -11.20060
 Alpha  occ. eigenvalues --   -1.60039  -1.39594  -1.19485  -1.08891  -1.07274
 Alpha  occ. eigenvalues --   -1.04880  -1.02436  -0.95734  -0.94936  -0.86281
 Alpha  occ. eigenvalues --   -0.85956  -0.82568  -0.78477  -0.77623  -0.77035
 Alpha  occ. eigenvalues --   -0.72219  -0.71353  -0.70593  -0.65140  -0.64882
 Alpha  occ. eigenvalues --   -0.63914  -0.62227  -0.59844  -0.58294  -0.56519
 Alpha  occ. eigenvalues --   -0.55384  -0.54244  -0.53213  -0.52971  -0.51660
 Alpha  occ. eigenvalues --   -0.51350  -0.49036  -0.48984  -0.48865  -0.46797
 Alpha  occ. eigenvalues --   -0.45564  -0.45018  -0.44603  -0.44354  -0.42685
 Alpha  occ. eigenvalues --   -0.37463  -0.36480
 Alpha virt. eigenvalues --    0.04875   0.11175   0.16359   0.21306   0.23965
 Alpha virt. eigenvalues --    0.25304   0.27229   0.27804   0.28136   0.28794
 Alpha virt. eigenvalues --    0.29020   0.30876   0.32285   0.32440   0.32904

 Mulliken charges:
               1
     1  C   -0.170552
     2  C   -0.218574
     3  C   -0.170784
     4  C    0.157970
     5  C   -0.170760
     6  C   -0.218539
     7  H    0.226100
     8  H    0.223885
     9  H    0.275816
    10  H    0.275936
    11  H    0.223986
    12  N    0.488097
    13  O   -0.458758
    14  O   -0.459436
    15  C   -0.298319
    16  C   -0.303129
    17  C   -0.475165
    18  H    0.144402
    19  H    0.144091
    20  H    0.171455
    21  H    0.152735
    22  H    0.150541
    23  H    0.149590
    24  H    0.157400
    25  C   -0.298942
    26  C   -0.298814
    27  C   -0.475146
    28  H    0.159221
    29  H    0.150197
    30  H    0.148779
    31  H    0.148570
    32  H    0.154866
    33  H    0.157275
    34  H    0.156007
 Sum of Mulliken charges =  -0.00000

 Dipole moment (field-independent basis, Debye):
    X=              5.1885    Y=              0.6863    Z=             -1.6538  Tot=              5.4888
 Quadrupole moment (field-independent basis, Debye-Ang):
   XX=            -69.3612   YY=            -92.3166   ZZ=            -95.6748
   XY=              0.1307   XZ=             -4.8948   YZ=              2.7736

 Normal termination of Gaussian 16 at Wed May  5 16:08:33 2021.
