 Gaussian 16, Revision A.03,
 Gaussian 16:  EM64L-G16RevA.03 25-Dec-2016

 -------------
 #p 6-31g* mp2
 -------------

 ------------------------------------------------------
 Input file generated by CHIRIPA (05-May-2021 14:57:21)
 ------------------------------------------------------
 Symbolic Z-matrix:
 Charge =  0 Multiplicity = 1

                         Standard orientation:
 ---------------------------------------------------------------------
 Center     Atomic      Atomic             Coordinates (Angstroms)
 Number     Number       Type             X           Y           Z
 ---------------------------------------------------------------------
      1          6           0       -2.681850    2.166523    0.214021
      2          6           0       -3.807076    2.095096   -0.613798
      3          6           0       -4.517573    0.898155   -0.744465
      4          6           0       -4.072939   -0.212936   -0.029575
      5          6           0       -2.955635   -0.173424    0.803108
      6          6           0       -2.260463    1.034031    0.918590
      7          1           0       -2.135872    3.100419    0.309629
      8          1           0       -4.136624    2.973009   -1.162170
      9          1           0       -5.392026    0.814929   -1.378360
     10          1           0       -2.651291   -1.065372    1.337170
     11          1           0       -1.386948    1.086575    1.562217
     12          7           0       -4.816998   -1.485649   -0.159868
     13          8           0       -4.404872   -2.450337    0.480574
     14          8           0       -5.798228   -1.494415   -0.899968
     15          6           0        2.373241    1.930439    0.413619
     16          6           0        3.573115    2.140544   -0.273899
     17          6           0        4.454499    1.080057   -0.504288
     18          6           0        4.102773   -0.183144   -0.031103
     19          6           0        2.914723   -0.424308    0.657129
     20          6           0        2.048447    0.650939    0.876123
     21          1           0        1.694430    2.759984    0.588164
     22          1           0        3.827956    3.133147   -0.634230
     23          1           0        5.389941    1.214626   -1.033680
     24          1           0        2.688094   -1.425086    1.004261
     25          1           0        1.117295    0.484825    1.410358
     26          7           0        5.027858   -1.313646   -0.268974
     27          8           0        4.694847   -2.416986    0.158089
     28          8           0        6.068433   -1.074989   -0.877976
 ---------------------------------------------------------------------

 SCF Done:  E(RHF) =  -868.336055408     A.U. after   16 cycles
 E2 =    -0.2599832939D+01 EUMP2 =    -0.87093588834664D+03

 The electronic state is 1-A.
 Alpha  occ. eigenvalues --  -20.61249 -20.61244 -20.61135 -20.61129 -15.86312
 Alpha  occ. eigenvalues --  -15.86195 -11.31843 -11.31710 -11.28494 -11.28415
 Alpha  occ. eigenvalues --  -11.28324 -11.28295 -11.28288 -11.28176 -11.27639
 Alpha  occ. eigenvalues --  -11.27472 -11.27462 -11.27353  -1.60321  -1.60207
 Alpha  occ. eigenvalues --   -1.39870  -1.39756  -1.20054  -1.19918  -1.09430
 Alpha  occ. eigenvalues --   -1.09304  -1.05498  -1.05348  -0.96228  -0.96105
 Alpha  occ. eigenvalues --   -0.86915  -0.86742  -0.83070  -0.82932  -0.78088
 Alpha  occ. eigenvalues --   -0.77928  -0.72527  -0.72412  -0.71647  -0.71532
 Alpha  occ. eigenvalues --   -0.71191  -0.71064  -0.65725  -0.65713  -0.65578
 Alpha  occ. eigenvalues --   -0.65253  -0.62917  -0.62616  -0.56046  -0.55893
 Alpha  occ. eigenvalues --   -0.53812  -0.53712  -0.53653  -0.53351  -0.49302
 Alpha  occ. eigenvalues --   -0.49270  -0.49183  -0.49155  -0.45239  -0.45128
 Alpha  occ. eigenvalues --   -0.38065  -0.37918  -0.37101  -0.36924
 Alpha virt. eigenvalues --    0.04482   0.04612   0.10425   0.10785   0.15860
 Alpha virt. eigenvalues --    0.16069   0.17776   0.22111   0.24336   0.26176
 Alpha virt. eigenvalues --    0.27981   0.29023   0.29494   0.31450   0.31920

 Mulliken charges:
               1
     1  C   -0.170406
     2  C   -0.217993
     3  C   -0.169241
     4  C    0.159353
     5  C   -0.169990
     6  C   -0.219779
     7  H    0.222056
     8  H    0.225474
     9  H    0.278261
    10  H    0.276259
    11  H    0.215576
    12  N    0.488077
    13  O   -0.458735
    14  O   -0.458234
    15  C   -0.170228
    16  C   -0.218090
    17  C   -0.169914
    18  C    0.159430
    19  C   -0.170128
    20  C   -0.218031
    21  H    0.218568
    22  H    0.224374
    23  H    0.277614
    24  H    0.278237
    25  H    0.216816
    26  N    0.487919
    27  O   -0.458274
    28  O   -0.458972
 Sum of Mulliken charges =  -0.00000

 Dipole moment (field-independent basis, Debye):
    X=             -0.6762    Y=              8.3561    Z=              1.1411  Tot=              8.4607
 Quadrupole moment (field-independent basis, Debye-Ang):
   XX=           -147.9484   YY=           -106.1934   ZZ=           -103.0566
   XY=             -1.3352   XZ=              2.3177   YZ=             -4.0597

 Normal termination of Gaussian 16 at Thu May  6 00:09:01 2021.
