 Gaussian 16, Revision A.03,
 Gaussian 16:  EM64L-G16RevA.03 25-Dec-2016

 -------------
 #p 6-31g* mp2
 -------------

 ------------------------------------------------------
 Input file generated by CHIRIPA (05-May-2021 14:53:15)
 ------------------------------------------------------
 Symbolic Z-matrix:
 Charge =  0 Multiplicity = 1

                         Standard orientation:
 ---------------------------------------------------------------------
 Center     Atomic      Atomic             Coordinates (Angstroms)
 Number     Number       Type             X           Y           Z
 ---------------------------------------------------------------------
      1          6           0       -3.167824   -0.474642   -0.309627
      2          6           0       -3.714513   -1.573727    0.602036
      3          6           0       -3.853420   -2.918873   -0.111462
      4          1           0       -3.831312   -0.363802   -1.178214
      5          1           0       -2.189463   -0.785737   -0.701322
      6          1           0       -4.690924   -1.260053    0.992991
      7          1           0       -3.049750   -1.681831    1.468650
      8          1           0       -2.882536   -3.257730   -0.487177
      9          1           0       -4.533035   -2.833555   -0.965538
     10          1           0       -4.245845   -3.690121    0.558642
     11          6           0       -3.023280    0.876027    0.389320
     12          6           0       -2.476591    1.975112   -0.522343
     13          6           0       -2.337684    3.320258    0.191155
     14          1           0       -4.001641    1.187122    0.781015
     15          1           0       -2.359792    0.765187    1.257907
     16          1           0       -3.141354    2.083216   -1.388957
     17          1           0       -1.500180    1.661438   -0.913298
     18          1           0       -1.658069    3.234940    1.045231
     19          1           0       -3.308568    3.659115    0.566870
     20          1           0       -1.945259    4.091506   -0.478949
     21          6           0        2.534604   -2.677105   -0.052026
     22          6           0        1.317892   -2.030440   -0.292772
     23          6           0        1.241769   -0.634493   -0.283637
     24          6           0        2.407166    0.086864   -0.029110
     25          6           0        3.634187   -0.528314    0.214335
     26          6           0        3.686837   -1.925304    0.200314
     27          1           0        2.584621   -3.761915   -0.061021
     28          1           0        0.421444   -2.611739   -0.489030
     29          1           0        0.312873   -0.108180   -0.466851
     30          1           0        4.510854    0.078131    0.406942
     31          1           0        4.633118   -2.424820    0.387611
     32          7           0        2.339003    1.565242   -0.016853
     33          8           0        3.380035    2.177981    0.209948
     34          8           0        1.245834    2.083263   -0.234277
 ---------------------------------------------------------------------

 SCF Done:  E(RHF) =  -669.535589140     A.U. after   15 cycles
 E2 =    -0.2093104688D+01 EUMP2 =    -0.67162869382829D+03

 The electronic state is 1-A.
 Alpha  occ. eigenvalues --  -20.60902 -20.60892 -15.85938 -11.31256 -11.27820
 Alpha  occ. eigenvalues --  -11.27808 -11.27558 -11.26830 -11.26819 -11.21981
 Alpha  occ. eigenvalues --  -11.21749 -11.21602 -11.21269 -11.21018 -11.20181
 Alpha  occ. eigenvalues --   -1.59967  -1.39523  -1.19427  -1.08831  -1.08493
 Alpha  occ. eigenvalues --   -1.04824  -1.03417  -0.95895  -0.95673  -0.86908
 Alpha  occ. eigenvalues --   -0.86226  -0.82511  -0.79578  -0.78240  -0.77540
 Alpha  occ. eigenvalues --   -0.72172  -0.71281  -0.70546  -0.65214  -0.65085
 Alpha  occ. eigenvalues --   -0.64793  -0.62155  -0.60784  -0.59347  -0.57463
 Alpha  occ. eigenvalues --   -0.55345  -0.55183  -0.53154  -0.52919  -0.52538
 Alpha  occ. eigenvalues --   -0.52311  -0.49868  -0.48947  -0.48906  -0.47844
 Alpha  occ. eigenvalues --   -0.46654  -0.45730  -0.45584  -0.44923  -0.43707
 Alpha  occ. eigenvalues --   -0.37406  -0.36424
 Alpha virt. eigenvalues --    0.04957   0.11221   0.16454   0.18398   0.23016
 Alpha virt. eigenvalues --    0.23229   0.25157   0.27039   0.27205   0.28339
 Alpha virt. eigenvalues --    0.29270   0.31196   0.31664   0.32299   0.32794

 Mulliken charges:
               1
     1  C   -0.298166
     2  C   -0.300130
     3  C   -0.474338
     4  H    0.153090
     5  H    0.135184
     6  H    0.155794
     7  H    0.151209
     8  H    0.145941
     9  H    0.158036
    10  H    0.161837
    11  C   -0.300611
    12  C   -0.308480
    13  C   -0.471908
    14  H    0.150591
    15  H    0.150030
    16  H    0.147911
    17  H    0.166277
    18  H    0.163085
    19  H    0.147686
    20  H    0.165426
    21  C   -0.170211
    22  C   -0.223993
    23  C   -0.177730
    24  C    0.156668
    25  C   -0.169671
    26  C   -0.219121
    27  H    0.226131
    28  H    0.225322
    29  H    0.288866
    30  H    0.275731
    31  H    0.223764
    32  N    0.491487
    33  O   -0.459232
    34  O   -0.466475
 Sum of Mulliken charges =  -0.00000

 Dipole moment (field-independent basis, Debye):
    X=              0.3035    Y=             -5.0421    Z=             -0.0038  Tot=              5.0513
 Quadrupole moment (field-independent basis, Debye-Ang):
   XX=            -87.7325   YY=            -96.9881   ZZ=            -95.5200
   XY=            -12.8298   XZ=              1.1923   YZ=             -0.3167

 Normal termination of Gaussian 16 at Thu May  6 18:48:37 2021.
