 Gaussian 16, Revision A.03,
 Gaussian 16:  EM64L-G16RevA.03 25-Dec-2016

 -------------
 #p 6-31g* mp2
 -------------

 ------------------------------------------------------
 Input file generated by CHIRIPA (05-May-2021 14:53:12)
 ------------------------------------------------------
 Symbolic Z-matrix:
 Charge =  0 Multiplicity = 1

                         Standard orientation:
 ---------------------------------------------------------------------
 Center     Atomic      Atomic             Coordinates (Angstroms)
 Number     Number       Type             X           Y           Z
 ---------------------------------------------------------------------
      1          6           0        3.696902   -0.276278    0.107574
      2          6           0        3.753769    0.874092   -0.898110
      3          6           0        5.175275    1.387700   -1.129021
      4          1           0        4.127167    0.057620    1.061685
      5          1           0        4.331320   -1.098865   -0.250559
      6          1           0        3.118339    1.693721   -0.538869
      7          1           0        3.323143    0.537475   -1.849880
      8          1           0        5.816965    0.586954   -1.510650
      9          1           0        5.610998    1.749769   -0.192190
     10          1           0        5.192733    2.209785   -1.851331
     11          6           0        2.282477   -0.800541    0.348988
     12          6           0        2.225610   -1.950910    1.354672
     13          6           0        0.804104   -2.464518    1.585582
     14          1           0        1.648059    0.022046    0.707121
     15          1           0        1.852212   -1.134439   -0.605124
     16          1           0        2.656236   -1.614294    2.306442
     17          1           0        2.861040   -2.770539    0.995430
     18          1           0        0.368381   -2.826588    0.648751
     19          1           0        0.162413   -1.663773    1.967212
     20          1           0        0.786646   -3.286603    2.307892
     21          6           0       -1.499393    2.476849    1.021027
     22          6           0       -2.840829    2.097187    1.134721
     23          6           0       -3.315205    0.959759    0.474590
     24          6           0       -2.416545    0.221844   -0.294295
     25          6           0       -1.074391    0.574353   -0.427148
     26          6           0       -0.622002    1.715562    0.241830
     27          1           0       -1.139426    3.361899    1.537269
     28          1           0       -3.524487    2.686509    1.739167
     29          1           0       -4.348716    0.643107    0.545332
     30          1           0       -0.416757   -0.033165   -1.036949
     31          1           0        0.420297    2.008031    0.151724
     32          7           0       -2.907108   -0.984301   -0.997829
     33          8           0       -2.095235   -1.617475   -1.669090
     34          8           0       -4.094195   -1.273667   -0.864677
 ---------------------------------------------------------------------

 SCF Done:  E(RHF) =  -669.534515652     A.U. after   15 cycles
 E2 =    -0.2094285734D+01 EUMP2 =    -0.67162880138618D+03

 The electronic state is 1-A.
 Alpha  occ. eigenvalues --  -20.60756 -20.60750 -15.85801 -11.31127 -11.27721
 Alpha  occ. eigenvalues --  -11.27660 -11.27465 -11.26725 -11.26679 -11.22341
 Alpha  occ. eigenvalues --  -11.21948 -11.21892 -11.21826 -11.21617 -11.21015
 Alpha  occ. eigenvalues --   -1.59823  -1.39378  -1.19318  -1.08954  -1.08717
 Alpha  occ. eigenvalues --   -1.04723  -1.03931  -0.96360  -0.95555  -0.87378
 Alpha  occ. eigenvalues --   -0.86117  -0.82410  -0.80029  -0.78884  -0.77371
 Alpha  occ. eigenvalues --   -0.72022  -0.71139  -0.70424  -0.65666  -0.64963
 Alpha  occ. eigenvalues --   -0.64669  -0.62082  -0.61326  -0.59751  -0.57978
 Alpha  occ. eigenvalues --   -0.55633  -0.55231  -0.53101  -0.53014  -0.52852
 Alpha  occ. eigenvalues --   -0.52739  -0.50298  -0.48780  -0.48776  -0.48319
 Alpha  occ. eigenvalues --   -0.47068  -0.46273  -0.46205  -0.44779  -0.44213
 Alpha  occ. eigenvalues --   -0.37305  -0.36239
 Alpha virt. eigenvalues --    0.05070   0.11257   0.16430   0.19743   0.22940
 Alpha virt. eigenvalues --    0.23402   0.24926   0.25099   0.27532   0.28458
 Alpha virt. eigenvalues --    0.29917   0.30462   0.31393   0.31530   0.32003

 Mulliken charges:
               1
     1  C   -0.297372
     2  C   -0.302593
     3  C   -0.475642
     4  H    0.150238
     5  H    0.153956
     6  H    0.142593
     7  H    0.154460
     8  H    0.158875
     9  H    0.155804
    10  H    0.161337
    11  C   -0.310192
    12  C   -0.298151
    13  C   -0.482417
    14  H    0.147268
    15  H    0.152479
    16  H    0.150934
    17  H    0.154614
    18  H    0.166466
    19  H    0.154279
    20  H    0.161706
    21  C   -0.172423
    22  C   -0.219048
    23  C   -0.170657
    24  C    0.157177
    25  C   -0.168419
    26  C   -0.225945
    27  H    0.225552
    28  H    0.223148
    29  H    0.275428
    30  H    0.281089
    31  H    0.228662
    32  N    0.488471
    33  O   -0.461457
    34  O   -0.460222
 Sum of Mulliken charges =  -0.00000

 Dipole moment (field-independent basis, Debye):
    X=              1.8089    Y=              4.1089    Z=              2.4513  Tot=              5.1151
 Quadrupole moment (field-independent basis, Debye-Ang):
   XX=            -99.4244   YY=            -92.9843   ZZ=            -95.7517
   XY=            -11.5152   XZ=             -8.4911   YZ=              0.3185

 Normal termination of Gaussian 16 at Thu May  6 07:18:30 2021.
