 Gaussian 16, Revision A.03,
 Gaussian 16:  EM64L-G16RevA.03 25-Dec-2016

 -------------
 #p 6-31g* mp2
 -------------

 ------------------------------------------------------
 Input file generated by CHIRIPA (05-May-2021 14:55:25)
 ------------------------------------------------------
 Symbolic Z-matrix:
 Charge =  0 Multiplicity = 1

                         Standard orientation:
 ---------------------------------------------------------------------
 Center     Atomic      Atomic             Coordinates (Angstroms)
 Number     Number       Type             X           Y           Z
 ---------------------------------------------------------------------
      1          6           0       -1.705539   -2.396692    0.009967
      2          6           0       -0.978704   -1.246319   -0.313876
      3          6           0       -1.602331    0.004736   -0.336191
      4          6           0       -2.960337    0.069140   -0.028036
      5          6           0       -3.711579   -1.058825    0.298496
      6          6           0       -3.067256   -2.299445    0.314582
      7          1           0       -1.213052   -3.364489    0.024882
      8          1           0        0.078943   -1.318838   -0.550876
      9          1           0       -1.063531    0.911358   -0.583477
     10          1           0       -4.764632   -0.954874    0.530208
     11          1           0       -3.634230   -3.191158    0.566442
     12          7           0       -3.631498    1.388052   -0.048362
     13          8           0       -4.828969    1.418062    0.226956
     14          8           0       -2.947375    2.366832   -0.339228
     15          6           0        3.405856   -0.468491   -0.271232
     16          6           0        4.052972   -1.700928    0.361479
     17          6           0        3.559137   -3.010107   -0.254939
     18          1           0        2.314906   -0.538244   -0.162108
     19          1           0        3.612620   -0.467663   -1.350418
     20          1           0        3.846219   -1.698699    1.439377
     21          1           0        5.142519   -1.628139    0.251005
     22          1           0        3.779472   -3.038376   -1.326972
     23          1           0        2.475807   -3.109337   -0.131849
     24          1           0        4.034579   -3.878239    0.212138
     25          6           0        3.889432    0.847967    0.334427
     26          6           0        3.242316    2.080405   -0.298283
     27          6           0        3.736152    3.389584    0.318134
     28          1           0        3.682669    0.847140    1.413614
     29          1           0        4.980382    0.917720    0.225303
     30          1           0        2.152769    2.007617   -0.187810
     31          1           0        3.449070    2.078176   -1.376182
     32          1           0        4.819482    3.488814    0.195044
     33          1           0        3.515816    3.417853    1.390168
     34          1           0        3.260709    4.257716   -0.148943
 ---------------------------------------------------------------------

 SCF Done:  E(RHF) =  -669.535555018     A.U. after   15 cycles
 E2 =    -0.2091566194D+01 EUMP2 =    -0.67162712121141D+03

 The electronic state is 1-A.
 Alpha  occ. eigenvalues --  -20.60748 -20.60743 -15.85801 -11.31165 -11.27736
 Alpha  occ. eigenvalues --  -11.27729 -11.27473 -11.26750 -11.26713 -11.22414
 Alpha  occ. eigenvalues --  -11.22284 -11.22085 -11.22035 -11.21965 -11.21329
 Alpha  occ. eigenvalues --   -1.59823  -1.39377  -1.19336  -1.09139  -1.08731
 Alpha  occ. eigenvalues --   -1.04739  -1.04171  -0.96632  -0.95567  -0.87644
 Alpha  occ. eigenvalues --   -0.86140  -0.82402  -0.80254  -0.78956  -0.77443
 Alpha  occ. eigenvalues --   -0.72019  -0.71146  -0.70446  -0.65812  -0.64988
 Alpha  occ. eigenvalues --   -0.64728  -0.62099  -0.61550  -0.60009  -0.58232
 Alpha  occ. eigenvalues --   -0.55939  -0.55239  -0.53291  -0.53085  -0.53065
 Alpha  occ. eigenvalues --   -0.52826  -0.50576  -0.48789  -0.48774  -0.48549
 Alpha  occ. eigenvalues --   -0.47286  -0.46479  -0.46374  -0.44783  -0.44438
 Alpha  occ. eigenvalues --   -0.37317  -0.36341
 Alpha virt. eigenvalues --    0.05083   0.11288   0.16538   0.18644   0.22664
 Alpha virt. eigenvalues --    0.23145   0.24649   0.26275   0.26540   0.27926
 Alpha virt. eigenvalues --    0.29298   0.30442   0.31089   0.31320   0.31794

 Mulliken charges:
               1
     1  C   -0.172315
     2  C   -0.227391
     3  C   -0.174539
     4  C    0.158833
     5  C   -0.171015
     6  C   -0.218522
     7  H    0.226020
     8  H    0.235485
     9  H    0.276296
    10  H    0.275534
    11  H    0.223349
    12  N    0.488050
    13  O   -0.460563
    14  O   -0.460457
    15  C   -0.303803
    16  C   -0.300060
    17  C   -0.475646
    18  H    0.142605
    19  H    0.151879
    20  H    0.154270
    21  H    0.156330
    22  H    0.157797
    23  H    0.144754
    24  H    0.164326
    25  C   -0.298392
    26  C   -0.299999
    27  C   -0.476311
    28  H    0.151842
    29  H    0.152606
    30  H    0.148757
    31  H    0.153074
    32  H    0.155683
    33  H    0.156993
    34  H    0.164532
 Sum of Mulliken charges =  -0.00000

 Dipole moment (field-independent basis, Debye):
    X=              2.5876    Y=             -4.5748    Z=              0.1006  Tot=              5.2568
 Quadrupole moment (field-independent basis, Debye-Ang):
   XX=           -103.6463   YY=            -95.6545   ZZ=            -94.8823
   XY=             16.0885   XZ=             -2.1202   YZ=             -0.9108

 Normal termination of Gaussian 16 at Thu May  6 19:23:59 2021.
