 Gaussian 16, Revision A.03,
 Gaussian 16:  EM64L-G16RevA.03 25-Dec-2016

 -------------
 #p 6-31g* mp2
 -------------

 ------------------------------------------------------
 Input file generated by CHIRIPA (05-May-2021 14:57:27)
 ------------------------------------------------------
 Symbolic Z-matrix:
 Charge =  0 Multiplicity = 1

                         Standard orientation:
 ---------------------------------------------------------------------
 Center     Atomic      Atomic             Coordinates (Angstroms)
 Number     Number       Type             X           Y           Z
 ---------------------------------------------------------------------
      1          6           0       -5.562775    1.376933   -0.262162
      2          6           0       -4.730534    1.060337   -1.340895
      3          6           0       -3.654595    0.183368   -1.174076
      4          6           0       -3.439001   -0.361228    0.090923
      5          6           0       -4.250370   -0.065326    1.185186
      6          6           0       -5.320464    0.814083    0.995218
      7          1           0       -6.396319    2.059131   -0.400743
      8          1           0       -4.916327    1.495957   -2.318525
      9          1           0       -2.994585   -0.078963   -1.991993
     10          1           0       -4.039994   -0.515346    2.147808
     11          1           0       -5.965145    1.058149    1.834779
     12          7           0       -2.303047   -1.290928    0.279780
     13          8           0       -2.134357   -1.757401    1.404317
     14          8           0       -1.602885   -1.535549   -0.700307
     15          6           0        3.523555   -2.290473   -0.395957
     16          6           0        2.417700   -1.495312   -0.714270
     17          6           0        2.463344   -0.109933   -0.532087
     18          6           0        3.636145    0.449546   -0.027299
     19          6           0        4.754502   -0.315928    0.299222
     20          6           0        4.686377   -1.699285    0.108882
     21          1           0        3.479366   -3.365883   -0.540651
     22          1           0        1.513318   -1.951704   -1.106502
     23          1           0        1.621845    0.529271   -0.770238
     24          1           0        5.642144    0.167811    0.688461
     25          1           0        5.546732   -2.314342    0.356955
     26          7           0        3.696366    1.915115    0.169888
     27          8           0        4.741333    2.383715    0.616091
     28          8           0        2.697461    2.567476   -0.125493
 ---------------------------------------------------------------------

 SCF Done:  E(RHF) =  -868.340457835     A.U. after   15 cycles
 E2 =    -0.2598236922D+01 EUMP2 =    -0.87093869475727D+03

 The electronic state is 1-A.
 Alpha  occ. eigenvalues --  -20.61500 -20.61448 -20.60104 -20.60098 -15.86500
 Alpha  occ. eigenvalues --  -15.85144 -11.31566 -11.30275 -11.28112 -11.28086
 Alpha  occ. eigenvalues --  -11.27784 -11.27049 -11.27036 -11.26841 -11.26709
 Alpha  occ. eigenvalues --  -11.26456 -11.25846 -11.25545  -1.60532  -1.59182
 Alpha  occ. eigenvalues --   -1.40096  -1.38742  -1.19708  -1.18399  -1.09159
 Alpha  occ. eigenvalues --   -1.07840  -1.05068  -1.03738  -0.96046  -0.94723
 Alpha  occ. eigenvalues --   -0.86482  -0.85154  -0.82894  -0.81543  -0.77971
 Alpha  occ. eigenvalues --   -0.76623  -0.72740  -0.71828  -0.71373  -0.70817
 Alpha  occ. eigenvalues --   -0.70498  -0.69520  -0.65369  -0.65071  -0.64039
 Alpha  occ. eigenvalues --   -0.63704  -0.62423  -0.61074  -0.55580  -0.54268
 Alpha  occ. eigenvalues --   -0.53407  -0.53160  -0.52113  -0.51802  -0.49498
 Alpha  occ. eigenvalues --   -0.49452  -0.48138  -0.48101  -0.45566  -0.44200
 Alpha  occ. eigenvalues --   -0.37666  -0.36653  -0.36381  -0.35330
 Alpha virt. eigenvalues --    0.04536   0.05861   0.11004   0.12312   0.16085
 Alpha virt. eigenvalues --    0.17431   0.21146   0.22521   0.27084   0.27886
 Alpha virt. eigenvalues --    0.28600   0.29237   0.30774   0.32029   0.32303

 Mulliken charges:
               1
     1  C   -0.169434
     2  C   -0.217923
     3  C   -0.170142
     4  C    0.158055
     5  C   -0.169734
     6  C   -0.218247
     7  H    0.227660
     8  H    0.225212
     9  H    0.273753
    10  H    0.276357
    11  H    0.225254
    12  N    0.490701
    13  O   -0.456095
    14  O   -0.472737
    15  C   -0.171862
    16  C   -0.220668
    17  C   -0.172718
    18  C    0.158151
    19  C   -0.173370
    20  C   -0.218453
    21  H    0.224808
    22  H    0.244370
    23  H    0.273892
    24  H    0.271910
    25  H    0.219853
    26  N    0.488301
    27  O   -0.463285
    28  O   -0.463608
 Sum of Mulliken charges =  -0.00000

 Dipole moment (field-independent basis, Debye):
    X=             -4.7079    Y=             -1.9686    Z=             -1.3434  Tot=              5.2768
 Quadrupole moment (field-independent basis, Debye-Ang):
   XX=            -75.1113   YY=           -113.1956   ZZ=           -100.3485
   XY=            -30.0034   XZ=             -0.3634   YZ=             -0.4246

 Normal termination of Gaussian 16 at Thu May  6 18:10:01 2021.
