 Gaussian 16, Revision A.03,
 Gaussian 16:  EM64L-G16RevA.03 25-Dec-2016

 -------------
 #p 6-31g* mp2
 -------------

 ------------------------------------------------------
 Input file generated by CHIRIPA (05-May-2021 14:51:08)
 ------------------------------------------------------
 Symbolic Z-matrix:
 Charge =  0 Multiplicity = 1

                         Standard orientation:
 ---------------------------------------------------------------------
 Center     Atomic      Atomic             Coordinates (Angstroms)
 Number     Number       Type             X           Y           Z
 ---------------------------------------------------------------------
      1          6           0       -3.071752   -0.243198   -0.076071
      2          6           0       -2.627190   -1.244815   -1.142426
      3          6           0       -3.155165   -2.656350   -0.884350
      4          1           0       -2.729738   -0.589786    0.908738
      5          1           0       -4.169678   -0.223470   -0.036518
      6          1           0       -1.530444   -1.261631   -1.180915
      7          1           0       -2.970136   -0.895703   -2.124834
      8          1           0       -4.249819   -2.660962   -0.866681
      9          1           0       -2.801947   -3.028968    0.082601
     10          1           0       -2.825407   -3.356120   -1.658586
     11          6           0       -2.551853    1.172359   -0.320269
     12          6           0       -2.996415    2.173976    0.746086
     13          6           0       -2.468439    3.585511    0.488009
     14          1           0       -1.453927    1.152631   -0.359822
     15          1           0       -2.893867    1.518948   -1.305078
     16          1           0       -2.653468    1.824864    1.728493
     17          1           0       -4.093161    2.190792    0.784575
     18          1           0       -2.821658    3.958130   -0.478941
     19          1           0       -1.373785    3.590123    0.470341
     20          1           0       -2.798197    4.285281    1.262246
     21          6           0        3.172698   -0.119801   -0.380029
     22          6           0        4.208942    0.907024    0.078024
     23          6           0        4.922500    1.588287   -1.090097
     24          1           0        3.667520   -0.878306   -1.001932
     25          1           0        2.433214    0.377550   -1.022837
     26          1           0        4.945468    0.408171    0.720901
     27          1           0        3.711629    1.663068    0.699068
     28          1           0        4.203261    2.111224   -1.728715
     29          1           0        5.444111    0.849198   -1.706758
     30          1           0        5.658863    2.318385   -0.739969
     31          6           0        2.450907   -0.809360    0.776369
     32          6           0        1.414663   -1.836186    0.318316
     33          6           0        0.701103   -2.517449    1.486437
     34          1           0        3.190390   -1.306711    1.419177
     35          1           0        1.956085   -0.050854    1.398273
     36          1           0        1.911976   -2.592228   -0.302728
     37          1           0        0.678137   -1.337332   -0.324560
     38          1           0        0.179494   -1.778359    2.103098
     39          1           0        1.420343   -3.040386    2.125055
     40          1           0       -0.035259   -3.247545    1.136309
 ---------------------------------------------------------------------

 SCF Done:  E(RHF) =  -470.733307465     A.U. after   11 cycles
 E2 =    -0.1583543488D+01 EUMP2 =    -0.47231685095351D+03

 The electronic state is 1-A.
 Alpha  occ. eigenvalues --  -11.21659 -11.21638 -11.21635 -11.21584 -11.21456
 Alpha  occ. eigenvalues --  -11.21435 -11.21396 -11.21367 -11.21147 -11.21108
 Alpha  occ. eigenvalues --  -11.21092 -11.21066  -1.08494  -1.08441  -1.03602
 Alpha  occ. eigenvalues --   -1.03525  -0.96035  -0.95990  -0.87050  -0.87008
 Alpha  occ. eigenvalues --   -0.79703  -0.79561  -0.78340  -0.78219  -0.65282
 Alpha  occ. eigenvalues --   -0.64943  -0.61164  -0.60787  -0.59395  -0.59347
 Alpha  occ. eigenvalues --   -0.57637  -0.57605  -0.55322  -0.55271  -0.52725
 Alpha  occ. eigenvalues --   -0.52689  -0.52459  -0.52410  -0.50002  -0.49928
 Alpha  occ. eigenvalues --   -0.48052  -0.47882  -0.46933  -0.46478  -0.46000
 Alpha  occ. eigenvalues --   -0.45814  -0.45772  -0.45379  -0.43827  -0.43802
 Alpha virt. eigenvalues --    0.19488   0.22932   0.23777   0.24850   0.25378
 Alpha virt. eigenvalues --    0.26375   0.26865   0.27640   0.28814   0.29125
 Alpha virt. eigenvalues --    0.30450   0.31099   0.31560   0.31836   0.32427

 Mulliken charges:
               1
     1  C   -0.298705
     2  C   -0.306960
     3  C   -0.477136
     4  H    0.150636
     5  H    0.149676
     6  H    0.159235
     7  H    0.151893
     8  H    0.155175
     9  H    0.156819
    10  H    0.160154
    11  C   -0.298833
    12  C   -0.299630
    13  C   -0.475652
    14  H    0.148521
    15  H    0.149906
    16  H    0.151779
    17  H    0.152272
    18  H    0.155329
    19  H    0.154764
    20  H    0.160443
    21  C   -0.298490
    22  C   -0.299664
    23  C   -0.475778
    24  H    0.149941
    25  H    0.149372
    26  H    0.152062
    27  H    0.151865
    28  H    0.155353
    29  H    0.155260
    30  H    0.160394
    31  C   -0.297672
    32  C   -0.307374
    33  C   -0.477863
    34  H    0.149847
    35  H    0.149195
    36  H    0.152527
    37  H    0.158338
    38  H    0.154767
    39  H    0.155767
    40  H    0.162468
 Sum of Mulliken charges =  -0.00000

 Dipole moment (field-independent basis, Debye):
    X=              0.0113    Y=             -0.0133    Z=             -0.0012  Tot=              0.0176
 Quadrupole moment (field-independent basis, Debye-Ang):
   XX=            -83.9429   YY=            -85.6424   ZZ=            -85.0415
   XY=             -1.4277   XZ=              0.9133   YZ=              0.3376

 Normal termination of Gaussian 16 at Wed May  5 21:18:35 2021.
