 Gaussian 16, Revision A.03,
 Gaussian 16:  EM64L-G16RevA.03 25-Dec-2016

 -------------
 #p 6-31g* mp2
 -------------

 ------------------------------------------------------
 Input file generated by CHIRIPA (05-May-2021 14:57:23)
 ------------------------------------------------------
 Symbolic Z-matrix:
 Charge =  0 Multiplicity = 1

                         Standard orientation:
 ---------------------------------------------------------------------
 Center     Atomic      Atomic             Coordinates (Angstroms)
 Number     Number       Type             X           Y           Z
 ---------------------------------------------------------------------
      1          6           0       -0.918869    2.419246   -0.054093
      2          6           0       -0.745046    1.558770    1.034891
      3          6           0       -1.602406    0.470788    1.224039
      4          6           0       -2.627692    0.272073    0.300680
      5          6           0       -2.826666    1.111638   -0.794232
      6          6           0       -1.957294    2.193332   -0.963576
      7          1           0       -0.248186    3.261974   -0.193336
      8          1           0        0.060546    1.731779    1.742800
      9          1           0       -1.490594   -0.211026    2.058333
     10          1           0       -3.638805    0.913475   -1.483129
     11          1           0       -2.094673    2.859947   -1.810214
     12          7           0       -3.541699   -0.876396    0.490439
     13          8           0       -4.437307   -1.029767   -0.337208
     14          8           0       -3.345183   -1.601449    1.463227
     15          6           0        4.443364    0.784431    0.704021
     16          6           0        4.380221   -0.609519    0.801170
     17          6           0        3.295497   -1.310178    0.265448
     18          6           0        2.286957   -0.581793   -0.363513
     19          6           0        2.321160    0.807239   -0.476260
     20          6           0        3.415444    1.487122    0.066740
     21          1           0        5.289717    1.320650    1.123011
     22          1           0        5.177074   -1.157853    1.295538
     23          1           0        3.221283   -2.389147    0.326578
     24          1           0        1.511613    1.326287   -0.974899
     25          1           0        3.461827    2.569700   -0.010183
     26          7           0        1.133548   -1.312553   -0.934510
     27          8           0        0.257859   -0.647578   -1.483705
     28          8           0        1.127035   -2.536459   -0.822051
 ---------------------------------------------------------------------

 SCF Done:  E(RHF) =  -868.334786661     A.U. after   16 cycles
 E2 =    -0.2605572554D+01 EUMP2 =    -0.87094035921528D+03

 The electronic state is 1-A.
 Alpha  occ. eigenvalues --  -20.61035 -20.61021 -20.60012 -20.60007 -15.86068
 Alpha  occ. eigenvalues --  -15.85065 -11.31607 -11.30515 -11.28211 -11.28201
 Alpha  occ. eigenvalues --  -11.28012 -11.27316 -11.27215 -11.27128 -11.27080
 Alpha  occ. eigenvalues --  -11.27039 -11.26289 -11.26252  -1.60099  -1.59071
 Alpha  occ. eigenvalues --   -1.39648  -1.38629  -1.19830  -1.18715  -1.09181
 Alpha  occ. eigenvalues --   -1.08170  -1.05269  -1.04172  -0.95988  -0.94985
 Alpha  occ. eigenvalues --   -0.86648  -0.85608  -0.82826  -0.81826  -0.77848
 Alpha  occ. eigenvalues --   -0.76799  -0.72317  -0.71458  -0.71315  -0.70957
 Alpha  occ. eigenvalues --   -0.70346  -0.69990  -0.65474  -0.65276  -0.64444
 Alpha  occ. eigenvalues --   -0.64263  -0.62617  -0.61545  -0.55756  -0.54848
 Alpha  occ. eigenvalues --   -0.53613  -0.53423  -0.52347  -0.52318  -0.49093
 Alpha  occ. eigenvalues --   -0.49021  -0.48070  -0.48044  -0.44946  -0.44019
 Alpha  occ. eigenvalues --   -0.37892  -0.37174  -0.36452  -0.35568
 Alpha virt. eigenvalues --    0.04649   0.05703   0.10473   0.12230   0.16101
 Alpha virt. eigenvalues --    0.16947   0.20544   0.21963   0.26297   0.27633
 Alpha virt. eigenvalues --    0.27742   0.29519   0.30595   0.31292   0.32446

 Mulliken charges:
               1
     1  C   -0.181987
     2  C   -0.216233
     3  C   -0.172212
     4  C    0.174145
     5  C   -0.161985
     6  C   -0.209632
     7  H    0.214435
     8  H    0.218692
     9  H    0.273683
    10  H    0.275543
    11  H    0.220596
    12  N    0.488689
    13  O   -0.460284
    14  O   -0.461598
    15  C   -0.170304
    16  C   -0.219506
    17  C   -0.169986
    18  C    0.154760
    19  C   -0.172734
    20  C   -0.225451
    21  H    0.226478
    22  H    0.225415
    23  H    0.278488
    24  H    0.279534
    25  H    0.219361
    26  N    0.488067
    27  O   -0.459423
    28  O   -0.456552
 Sum of Mulliken charges =  -0.00000

 Dipole moment (field-independent basis, Debye):
    X=              7.1037    Y=              6.2581    Z=              1.1872  Tot=              9.5413
 Quadrupole moment (field-independent basis, Debye-Ang):
   XX=           -101.7812   YY=           -102.9738   ZZ=           -103.9254
   XY=             -9.2009   XZ=              9.3977   YZ=             -3.9699

 Normal termination of Gaussian 16 at Wed May  5 17:52:22 2021.
