 Gaussian 16, Revision A.03,
 Gaussian 16:  EM64L-G16RevA.03 25-Dec-2016

 -------------
 #p 6-31g* mp2
 -------------

 ------------------------------------------------------
 Input file generated by CHIRIPA (05-May-2021 14:53:15)
 ------------------------------------------------------
 Symbolic Z-matrix:
 Charge =  0 Multiplicity = 1

                         Standard orientation:
 ---------------------------------------------------------------------
 Center     Atomic      Atomic             Coordinates (Angstroms)
 Number     Number       Type             X           Y           Z
 ---------------------------------------------------------------------
      1          6           0        2.972626    1.105604   -0.636185
      2          6           0        1.581087    1.737780   -0.591932
      3          6           0        1.569062    3.177213   -1.107376
      4          1           0        3.664766    1.715871   -0.039979
      5          1           0        3.345748    1.129183   -1.669441
      6          1           0        1.210125    1.711764    0.440699
      7          1           0        0.892136    1.125833   -1.188156
      8          1           0        1.914305    3.217546   -2.145539
      9          1           0        2.234101    3.806806   -0.507429
     10          1           0        0.564515    3.609769   -1.066865
     11          6           0        3.000860   -0.333377   -0.124067
     12          6           0        4.392399   -0.965553   -0.168320
     13          6           0        4.404424   -2.404986    0.347125
     14          1           0        2.627737   -0.356956    0.909189
     15          1           0        2.308720   -0.943643   -0.720273
     16          1           0        5.081349   -0.353606    0.427904
     17          1           0        4.763361   -0.939537   -1.200951
     18          1           0        3.739385   -3.034579   -0.252823
     19          1           0        4.059180   -2.445319    1.385287
     20          1           0        5.408971   -2.837542    0.306614
     21          6           0       -3.785965   -0.998183   -1.644882
     22          6           0       -4.233686   -0.019411   -0.751533
     23          6           0       -3.437266    0.374311    0.327934
     24          6           0       -2.192963   -0.234313    0.484705
     25          6           0       -1.718966   -1.212311   -0.388299
     26          6           0       -2.532245   -1.590466   -1.460739
     27          1           0       -4.411190   -1.297989   -2.480708
     28          1           0       -5.206896    0.442276   -0.892071
     29          1           0       -3.759239    1.129553    1.034590
     30          1           0       -0.744135   -1.654496   -0.222187
     31          1           0       -2.181957   -2.350854   -2.152948
     32          7           0       -1.340907    0.174262    1.623768
     33          8           0       -0.248631   -0.377174    1.739918
     34          8           0       -1.781473    1.038203    2.378847
 ---------------------------------------------------------------------

 SCF Done:  E(RHF) =  -669.536148960     A.U. after   15 cycles
 E2 =    -0.2092884060D+01 EUMP2 =    -0.67162903302008D+03

 The electronic state is 1-A.
 Alpha  occ. eigenvalues --  -20.60931 -20.60919 -15.85943 -11.31264 -11.27825
 Alpha  occ. eigenvalues --  -11.27818 -11.27564 -11.26835 -11.26825 -11.21034
 Alpha  occ. eigenvalues --  -11.20858 -11.20728 -11.20603 -11.20572 -11.20530
 Alpha  occ. eigenvalues --   -1.59982  -1.39538  -1.19430  -1.08836  -1.07758
 Alpha  occ. eigenvalues --   -1.04826  -1.02934  -0.95682  -0.95389  -0.86411
 Alpha  occ. eigenvalues --   -0.86225  -0.82520  -0.78995  -0.77717  -0.77413
 Alpha  occ. eigenvalues --   -0.72176  -0.71284  -0.70539  -0.65089  -0.64835
 Alpha  occ. eigenvalues --   -0.64381  -0.62172  -0.60334  -0.58764  -0.56998
 Alpha  occ. eigenvalues --   -0.55333  -0.54680  -0.53156  -0.52919  -0.52112
 Alpha  occ. eigenvalues --   -0.51818  -0.49338  -0.48948  -0.48938  -0.47336
 Alpha  occ. eigenvalues --   -0.46028  -0.45449  -0.45095  -0.44412  -0.43159
 Alpha  occ. eigenvalues --   -0.37400  -0.36421
 Alpha virt. eigenvalues --    0.04918   0.11173   0.16406   0.21018   0.23383
 Alpha virt. eigenvalues --    0.24795   0.25691   0.27580   0.27814   0.28348
 Alpha virt. eigenvalues --    0.29229   0.31191   0.31836   0.32200   0.32322

 Mulliken charges:
               1
     1  C   -0.297676
     2  C   -0.306482
     3  C   -0.474718
     4  H    0.149911
     5  H    0.144031
     6  H    0.170689
     7  H    0.142216
     8  H    0.150922
     9  H    0.156046
    10  H    0.157569
    11  C   -0.301184
    12  C   -0.299465
    13  C   -0.474886
    14  H    0.172788
    15  H    0.137790
    16  H    0.152113
    17  H    0.147644
    18  H    0.149955
    19  H    0.159565
    20  H    0.157851
    21  C   -0.170440
    22  C   -0.218601
    23  C   -0.170784
    24  C    0.158930
    25  C   -0.171720
    26  C   -0.219286
    27  H    0.225900
    28  H    0.223717
    29  H    0.275671
    30  H    0.278376
    31  H    0.223779
    32  N    0.490144
    33  O   -0.460744
    34  O   -0.459619
 Sum of Mulliken charges =  -0.00000

 Dipole moment (field-independent basis, Debye):
    X=             -3.1472    Y=             -1.4444    Z=             -3.7509  Tot=              5.1049
 Quadrupole moment (field-independent basis, Debye-Ang):
   XX=            -79.7730   YY=            -93.8219   ZZ=            -98.2462
   XY=              1.6821   XZ=              7.1298   YZ=              2.3164

 Normal termination of Gaussian 16 at Wed May  5 20:17:34 2021.
