 Gaussian 16, Revision A.03,
 Gaussian 16:  EM64L-G16RevA.03 25-Dec-2016

 -------------
 #p 6-31g* mp2
 -------------

 ------------------------------------------------------
 Input file generated by CHIRIPA (05-May-2021 14:55:21)
 ------------------------------------------------------
 Symbolic Z-matrix:
 Charge =  0 Multiplicity = 1

                         Standard orientation:
 ---------------------------------------------------------------------
 Center     Atomic      Atomic             Coordinates (Angstroms)
 Number     Number       Type             X           Y           Z
 ---------------------------------------------------------------------
      1          6           0       -1.072690    0.475203    1.914261
      2          6           0       -0.866832    0.837899    0.579123
      3          6           0       -1.842778    0.574699   -0.386695
      4          6           0       -3.018026   -0.055484    0.019446
      5          6           0       -3.252596   -0.429050    1.341836
      6          6           0       -2.262817   -0.156001    2.290693
      7          1           0       -0.309179    0.683488    2.657944
      8          1           0        0.056465    1.328221    0.283905
      9          1           0       -1.709411    0.844719   -1.427233
     10          1           0       -4.183220   -0.916561    1.605822
     11          1           0       -2.425414   -0.438804    3.326854
     12          7           0       -4.058539   -0.339335   -0.994044
     13          8           0       -5.085292   -0.895596   -0.610652
     14          8           0       -3.827637   -0.000183   -2.152620
     15          6           0        4.031534   -0.580405    0.049385
     16          6           0        3.650360   -1.920328   -0.580931
     17          6           0        4.435027   -3.094142    0.005801
     18          1           0        5.107876   -0.409935   -0.089801
     19          1           0        3.860786   -0.631389    1.133655
     20          1           0        3.820470   -1.866372   -1.663875
     21          1           0        2.574764   -2.087540   -0.440395
     22          1           0        4.257167   -3.176436    1.082924
     23          1           0        5.509951   -2.954011   -0.147507
     24          1           0        4.146774   -4.042129   -0.459054
     25          6           0        3.255602    0.602682   -0.526777
     26          6           0        3.636776    1.942604    0.103539
     27          6           0        2.852109    3.116418   -0.483193
     28          1           0        3.426350    0.653665   -1.611046
     29          1           0        2.179260    0.432211   -0.387590
     30          1           0        4.712371    2.109816   -0.036996
     31          1           0        3.466666    1.888648    1.186483
     32          1           0        1.777185    2.976289   -0.329885
     33          1           0        3.029969    3.198713   -1.560315
     34          1           0        3.140361    4.064406   -0.018337
 ---------------------------------------------------------------------

 SCF Done:  E(RHF) =  -669.535093991     A.U. after   15 cycles
 E2 =    -0.2091967661D+01 EUMP2 =    -0.67162706165153D+03

 The electronic state is 1-A.
 Alpha  occ. eigenvalues --  -20.60764 -20.60758 -15.85817 -11.31194 -11.27775
 Alpha  occ. eigenvalues --  -11.27765 -11.27521 -11.26785 -11.26750 -11.22533
 Alpha  occ. eigenvalues --  -11.22271 -11.22127 -11.22093 -11.22056 -11.21501
 Alpha  occ. eigenvalues --   -1.59839  -1.39392  -1.19373  -1.09214  -1.08765
 Alpha  occ. eigenvalues --   -1.04779  -1.04271  -0.96725  -0.95597  -0.87739
 Alpha  occ. eigenvalues --   -0.86182  -0.82433  -0.80339  -0.79009  -0.77472
 Alpha  occ. eigenvalues --   -0.72036  -0.71162  -0.70481  -0.65961  -0.65023
 Alpha  occ. eigenvalues --   -0.64739  -0.62204  -0.61586  -0.60092  -0.58322
 Alpha  occ. eigenvalues --   -0.56044  -0.55282  -0.53394  -0.53176  -0.53075
 Alpha  occ. eigenvalues --   -0.52896  -0.50691  -0.48819  -0.48790  -0.48618
 Alpha  occ. eigenvalues --   -0.47362  -0.46520  -0.46439  -0.44795  -0.44521
 Alpha  occ. eigenvalues --   -0.37353  -0.36372
 Alpha virt. eigenvalues --    0.05061   0.11167   0.16492   0.19019   0.22789
 Alpha virt. eigenvalues --    0.23627   0.25386   0.26317   0.27152   0.28361
 Alpha virt. eigenvalues --    0.28880   0.30128   0.31032   0.31394   0.31984

 Mulliken charges:
               1
     1  C   -0.173778
     2  C   -0.227821
     3  C   -0.173872
     4  C    0.158785
     5  C   -0.170755
     6  C   -0.218556
     7  H    0.225802
     8  H    0.237917
     9  H    0.276367
    10  H    0.275715
    11  H    0.223426
    12  N    0.488098
    13  O   -0.460549
    14  O   -0.460186
    15  C   -0.297573
    16  C   -0.300909
    17  C   -0.476062
    18  H    0.152319
    19  H    0.147334
    20  H    0.154102
    21  H    0.153366
    22  H    0.154474
    23  H    0.156074
    24  H    0.162920
    25  C   -0.303525
    26  C   -0.301126
    27  C   -0.479099
    28  H    0.154043
    29  H    0.144175
    30  H    0.157259
    31  H    0.148594
    32  H    0.147112
    33  H    0.160748
    34  H    0.165180
 Sum of Mulliken charges =  -0.00000

 Dipole moment (field-independent basis, Debye):
    X=              3.8390    Y=              0.9709    Z=              3.5127  Tot=              5.2933
 Quadrupole moment (field-independent basis, Debye-Ang):
   XX=           -114.6161   YY=            -95.3105   ZZ=            -91.9528
   XY=             -1.1992   XZ=            -14.0645   YZ=             -1.7093

 Normal termination of Gaussian 16 at Wed May  5 20:37:24 2021.
