 Gaussian 16, Revision A.03,
 Gaussian 16:  EM64L-G16RevA.03 25-Dec-2016

 -------------
 #p 6-31g* mp2
 -------------

 ------------------------------------------------------
 Input file generated by CHIRIPA (05-May-2021 14:53:14)
 ------------------------------------------------------
 Symbolic Z-matrix:
 Charge =  0 Multiplicity = 1

                         Standard orientation:
 ---------------------------------------------------------------------
 Center     Atomic      Atomic             Coordinates (Angstroms)
 Number     Number       Type             X           Y           Z
 ---------------------------------------------------------------------
      1          6           0       -2.853980   -0.102221    0.006214
      2          6           0       -3.790175   -1.078979   -0.706154
      3          6           0       -4.212445   -2.248542    0.183567
      4          1           0       -1.962148   -0.643784    0.350147
      5          1           0       -3.352773    0.282287    0.906633
      6          1           0       -3.290296   -1.460474   -1.605708
      7          1           0       -4.679794   -0.534989   -1.048599
      8          1           0       -4.734326   -1.885648    1.074941
      9          1           0       -3.336933   -2.816392    0.514667
     10          1           0       -4.881404   -2.934381   -0.345564
     11          6           0       -2.423063    1.072392   -0.870326
     12          6           0       -1.486868    2.049150   -0.157958
     13          6           0       -1.064598    3.218714   -1.047679
     14          1           0       -1.924270    0.687884   -1.770745
     15          1           0       -3.314895    1.613955   -1.214259
     16          1           0       -0.597248    1.505160    0.184487
     17          1           0       -1.986747    2.430646    0.741596
     18          1           0       -1.940110    3.786563   -1.378779
     19          1           0       -0.542717    2.855819   -1.939053
     20          1           0       -0.395639    3.904552   -0.518548
     21          6           0        0.703981    0.254477    2.367870
     22          6           0        1.706083    1.111216    1.900636
     23          6           0        2.464377    0.770463    0.776614
     24          6           0        2.192570   -0.440213    0.141259
     25          6           0        1.200946   -1.314967    0.582596
     26          6           0        0.455049   -0.953751    1.708522
     27          1           0        0.119734    0.527131    3.241777
     28          1           0        1.901606    2.050178    2.410700
     29          1           0        3.246168    1.415049    0.393561
     30          1           0        1.029224   -2.244258    0.053116
     31          1           0       -0.322569   -1.621064    2.069145
     32          7           0        2.988780   -0.811785   -1.049699
     33          8           0        2.729742   -1.884059   -1.591701
     34          8           0        3.856810   -0.023713   -1.418622
 ---------------------------------------------------------------------

 SCF Done:  E(RHF) =  -669.533367090     A.U. after   15 cycles
 E2 =    -0.2095987564D+01 EUMP2 =    -0.67162935465406D+03

 The electronic state is 1-A.
 Alpha  occ. eigenvalues --  -20.60888 -20.60882 -15.85943 -11.31361 -11.27921
 Alpha  occ. eigenvalues --  -11.27908 -11.27592 -11.26897 -11.26886 -11.21927
 Alpha  occ. eigenvalues --  -11.21686 -11.21635 -11.21557 -11.21539 -11.21205
 Alpha  occ. eigenvalues --   -1.59963  -1.39514  -1.19541  -1.08933  -1.08666
 Alpha  occ. eigenvalues --   -1.04938  -1.03792  -0.96263  -0.95731  -0.87280
 Alpha  occ. eigenvalues --   -0.86315  -0.82564  -0.79868  -0.78544  -0.77602
 Alpha  occ. eigenvalues --   -0.72156  -0.71289  -0.70597  -0.65391  -0.65159
 Alpha  occ. eigenvalues --   -0.64900  -0.62272  -0.61213  -0.59650  -0.57885
 Alpha  occ. eigenvalues --   -0.55572  -0.55391  -0.53491  -0.53018  -0.52882
 Alpha  occ. eigenvalues --   -0.52681  -0.50207  -0.48922  -0.48911  -0.48179
 Alpha  occ. eigenvalues --   -0.46896  -0.46032  -0.45846  -0.44908  -0.44038
 Alpha  occ. eigenvalues --   -0.37385  -0.36472
 Alpha virt. eigenvalues --    0.04895   0.11044   0.16284   0.20568   0.22960
 Alpha virt. eigenvalues --    0.23607   0.25994   0.26800   0.27628   0.28319
 Alpha virt. eigenvalues --    0.28657   0.30412   0.31425   0.31616   0.32007

 Mulliken charges:
               1
     1  C   -0.303890
     2  C   -0.299760
     3  C   -0.474827
     4  H    0.149981
     5  H    0.144647
     6  H    0.154895
     7  H    0.153615
     8  H    0.154193
     9  H    0.148195
    10  H    0.163515
    11  C   -0.297027
    12  C   -0.309426
    13  C   -0.474937
    14  H    0.152364
    15  H    0.149423
    16  H    0.167009
    17  H    0.144078
    18  H    0.155024
    19  H    0.158636
    20  H    0.155724
    21  C   -0.171079
    22  C   -0.218684
    23  C   -0.171076
    24  C    0.159640
    25  C   -0.172149
    26  C   -0.217017
    27  H    0.227177
    28  H    0.224589
    29  H    0.276539
    30  H    0.276293
    31  H    0.226063
    32  N    0.488052
    33  O   -0.460064
    34  O   -0.459713
 Sum of Mulliken charges =  -0.00000

 Dipole moment (field-independent basis, Debye):
    X=             -2.6687    Y=              1.2802    Z=              4.1934  Tot=              5.1328
 Quadrupole moment (field-independent basis, Debye-Ang):
   XX=           -105.9760   YY=            -93.3439   ZZ=            -94.1785
   XY=              6.0618   XZ=              9.2668   YZ=             -0.5420

 Normal termination of Gaussian 16 at Thu May  6 07:23:40 2021.
