 Gaussian 16, Revision A.03,
 Gaussian 16:  EM64L-G16RevA.03 25-Dec-2016

 -------------
 #p 6-31g* mp2
 -------------

 ------------------------------------------------------
 Input file generated by CHIRIPA (05-May-2021 14:53:12)
 ------------------------------------------------------
 Symbolic Z-matrix:
 Charge =  0 Multiplicity = 1

                         Standard orientation:
 ---------------------------------------------------------------------
 Center     Atomic      Atomic             Coordinates (Angstroms)
 Number     Number       Type             X           Y           Z
 ---------------------------------------------------------------------
      1          6           0       -3.412811   -0.389607    0.047470
      2          6           0       -2.574933   -1.094919   -1.019525
      3          6           0       -1.240711   -1.609766   -0.478620
      4          1           0       -2.836143    0.448137    0.462904
      5          1           0       -3.596658   -1.084917    0.878216
      6          1           0       -2.393890   -0.398924   -1.848639
      7          1           0       -3.153736   -1.930964   -1.432602
      8          1           0       -1.404614   -2.324362    0.334454
      9          1           0       -0.640451   -0.783617   -0.083947
     10          1           0       -0.657883   -2.110481   -1.258015
     11          6           0       -4.749560    0.130683   -0.478008
     12          6           0       -5.587438    0.835995    0.588988
     13          6           0       -6.921660    1.350842    0.048082
     14          1           0       -4.565713    0.825993   -1.308754
     15          1           0       -5.326228   -0.707061   -0.893441
     16          1           0       -5.008635    1.672040    1.002064
     17          1           0       -5.768480    0.140000    1.418101
     18          1           0       -7.521919    0.524693   -0.346591
     19          1           0       -6.757756    2.065438   -0.764992
     20          1           0       -7.504487    1.851557    0.827477
     21          6           0        4.200816    2.333900   -0.428296
     22          6           0        4.593962    1.180952   -1.115805
     23          6           0        4.039690   -0.061472   -0.793760
     24          6           0        3.090552   -0.114713    0.225843
     25          6           0        2.678289    1.016089    0.929135
     26          6           0        3.245918    2.247940    0.590184
     27          1           0        4.636576    3.294939   -0.685035
     28          1           0        5.335339    1.244713   -1.907221
     29          1           0        4.325906   -0.969848   -1.309853
     30          1           0        1.937053    0.920949    1.713313
     31          1           0        2.938695    3.141678    1.125806
     32          7           0        2.496699   -1.424415    0.575727
     33          8           0        1.662359   -1.444659    1.478004
     34          8           0        2.876821   -2.405917   -0.058936
 ---------------------------------------------------------------------

 SCF Done:  E(RHF) =  -669.535745916     A.U. after   15 cycles
 E2 =    -0.2091506012D+01 EUMP2 =    -0.67162725192819D+03

 The electronic state is 1-A.
 Alpha  occ. eigenvalues --  -20.60841 -20.60821 -15.85854 -11.31236 -11.27805
 Alpha  occ. eigenvalues --  -11.27797 -11.27547 -11.26823 -11.26813 -11.21317
 Alpha  occ. eigenvalues --  -11.21002 -11.20895 -11.20854 -11.20827 -11.19953
 Alpha  occ. eigenvalues --   -1.59884  -1.39443  -1.19406  -1.08800  -1.07949
 Alpha  occ. eigenvalues --   -1.04811  -1.02981  -0.95639  -0.95400  -0.86412
 Alpha  occ. eigenvalues --   -0.86209  -0.82468  -0.79060  -0.77749  -0.77511
 Alpha  occ. eigenvalues --   -0.72083  -0.71196  -0.70515  -0.65062  -0.64815
 Alpha  occ. eigenvalues --   -0.64591  -0.62159  -0.60387  -0.58818  -0.57013
 Alpha  occ. eigenvalues --   -0.55313  -0.54697  -0.53140  -0.52904  -0.52084
 Alpha  occ. eigenvalues --   -0.51817  -0.49365  -0.48842  -0.48835  -0.47382
 Alpha  occ. eigenvalues --   -0.46133  -0.45370  -0.45214  -0.44632  -0.43242
 Alpha  occ. eigenvalues --   -0.37386  -0.36415
 Alpha virt. eigenvalues --    0.05006   0.11212   0.16472   0.21348   0.23288
 Alpha virt. eigenvalues --    0.24813   0.26982   0.27303   0.27849   0.28107
 Alpha virt. eigenvalues --    0.28720   0.30791   0.31768   0.32211   0.32471

 Mulliken charges:
               1
     1  C   -0.296646
     2  C   -0.301571
     3  C   -0.472442
     4  H    0.146234
     5  H    0.151328
     6  H    0.146454
     7  H    0.150220
     8  H    0.163842
     9  H    0.152171
    10  H    0.160153
    11  C   -0.297649
    12  C   -0.299041
    13  C   -0.475358
    14  H    0.147356
    15  H    0.149544
    16  H    0.149981
    17  H    0.152504
    18  H    0.155288
    19  H    0.153986
    20  H    0.159107
    21  C   -0.170791
    22  C   -0.218484
    23  C   -0.170924
    24  C    0.158937
    25  C   -0.172047
    26  C   -0.218476
    27  H    0.225745
    28  H    0.223632
    29  H    0.275746
    30  H    0.275769
    31  H    0.223579
    32  N    0.488836
    33  O   -0.457386
    34  O   -0.459597
 Sum of Mulliken charges =  -0.00000

 Dipole moment (field-independent basis, Debye):
    X=              2.2816    Y=              4.5096    Z=             -1.1546  Tot=              5.1841
 Quadrupole moment (field-independent basis, Debye-Ang):
   XX=            -82.1839   YY=            -94.5402   ZZ=            -93.3882
   XY=             13.8738   XZ=             -6.2743   YZ=              2.7539

 Normal termination of Gaussian 16 at Thu May  6 07:20:17 2021.
