 Gaussian 16, Revision A.03,
 Gaussian 16:  EM64L-G16RevA.03 25-Dec-2016

 -------------
 #p 6-31g* mp2
 -------------

 ------------------------------------------------------
 Input file generated by CHIRIPA (05-May-2021 14:57:24)
 ------------------------------------------------------
 Symbolic Z-matrix:
 Charge =  0 Multiplicity = 1

                         Standard orientation:
 ---------------------------------------------------------------------
 Center     Atomic      Atomic             Coordinates (Angstroms)
 Number     Number       Type             X           Y           Z
 ---------------------------------------------------------------------
      1          6           0       -2.928883    2.054237    1.325173
      2          6           0       -2.296856    0.937134    1.881180
      3          6           0       -2.207591   -0.258925    1.162833
      4          6           0       -2.763783   -0.302856   -0.114669
      5          6           0       -3.399810    0.793000   -0.695926
      6          6           0       -3.477376    1.978737    0.040659
      7          1           0       -2.993682    2.979355    1.890286
      8          1           0       -1.869990    0.992874    2.878539
      9          1           0       -1.723875   -1.138874    1.569192
     10          1           0       -3.815863    0.706940   -1.692376
     11          1           0       -3.968802    2.844709   -0.393668
     12          7           0       -2.675475   -1.563607   -0.884805
     13          8           0       -3.173474   -1.576564   -2.008400
     14          8           0       -2.109933   -2.514953   -0.350260
     15          6           0        2.805003   -2.259169    0.894812
     16          6           0        3.968896   -1.704949    0.351935
     17          6           0        3.965727   -0.401481   -0.153545
     18          6           0        2.775759    0.322669   -0.099951
     19          6           0        1.599932   -0.201645    0.434667
     20          6           0        1.626313   -1.507073    0.934375
     21          1           0        2.816480   -3.272495    1.285239
     22          1           0        4.885725   -2.286708    0.319899
     23          1           0        4.852470    0.052167   -0.579349
     24          1           0        0.701205    0.402821    0.452787
     25          1           0        0.720919   -1.934909    1.355401
     26          7           0        2.760118    1.703629   -0.632025
     27          8           0        1.698910    2.320887   -0.573145
     28          8           0        3.809362    2.142618   -1.097870
 ---------------------------------------------------------------------

 SCF Done:  E(RHF) =  -868.338319083     A.U. after   16 cycles
 E2 =    -0.2601237013D+01 EUMP2 =    -0.87093955609605D+03

 The electronic state is 1-A.
 Alpha  occ. eigenvalues --  -20.61284 -20.61239 -20.60727 -20.60713 -15.86309
 Alpha  occ. eigenvalues --  -15.85771 -11.31644 -11.31015 -11.28301 -11.28085
 Alpha  occ. eigenvalues --  -11.27803 -11.27578 -11.27526 -11.27275 -11.27225
 Alpha  occ. eigenvalues --  -11.27064 -11.26568 -11.26547  -1.60329  -1.59799
 Alpha  occ. eigenvalues --   -1.39889  -1.39356  -1.19783  -1.19175  -1.09150
 Alpha  occ. eigenvalues --   -1.08588  -1.05194  -1.04564  -0.96012  -0.95445
 Alpha  occ. eigenvalues --   -0.86570  -0.85966  -0.82852  -0.82293  -0.77953
 Alpha  occ. eigenvalues --   -0.77344  -0.72529  -0.71997  -0.71646  -0.71118
 Alpha  occ. eigenvalues --   -0.70863  -0.70273  -0.65425  -0.65188  -0.64827
 Alpha  occ. eigenvalues --   -0.64565  -0.62605  -0.61864  -0.55610  -0.55068
 Alpha  occ. eigenvalues --   -0.53506  -0.53268  -0.52894  -0.52591  -0.49302
 Alpha  occ. eigenvalues --   -0.49265  -0.48754  -0.48740  -0.45298  -0.44790
 Alpha  occ. eigenvalues --   -0.37684  -0.37135  -0.36773  -0.36159
 Alpha virt. eigenvalues --    0.04571   0.05172   0.10799   0.11511   0.16115
 Alpha virt. eigenvalues --    0.16720   0.19869   0.22142   0.25211   0.27495
 Alpha virt. eigenvalues --    0.28490   0.29005   0.29915   0.31403   0.32265

 Mulliken charges:
               1
     1  C   -0.166091
     2  C   -0.218838
     3  C   -0.185925
     4  C    0.161492
     5  C   -0.167935
     6  C   -0.214524
     7  H    0.230271
     8  H    0.225145
     9  H    0.270379
    10  H    0.278270
    11  H    0.228008
    12  N    0.489149
    13  O   -0.455090
    14  O   -0.467946
    15  C   -0.170342
    16  C   -0.218731
    17  C   -0.170729
    18  C    0.158663
    19  C   -0.179102
    20  C   -0.218795
    21  H    0.227610
    22  H    0.223272
    23  H    0.274728
    24  H    0.276869
    25  H    0.226174
    26  N    0.488133
    27  O   -0.463408
    28  O   -0.460706
 Sum of Mulliken charges =  -0.00000

 Dipole moment (field-independent basis, Debye):
    X=             -0.5362    Y=             -0.2590    Z=              4.4771  Tot=              4.5165
 Quadrupole moment (field-independent basis, Debye-Ang):
   XX=            -96.6431   YY=           -110.4067   ZZ=           -103.5942
   XY=            -28.6171   XZ=             -1.2879   YZ=             -1.8000

 Normal termination of Gaussian 16 at Fri May  7 03:26:45 2021.
