 Gaussian 16, Revision A.03,
 Gaussian 16:  EM64L-G16RevA.03 25-Dec-2016

 -------------
 #p 6-31g* mp2
 -------------

 ------------------------------------------------------
 Input file generated by CHIRIPA (05-May-2021 14:55:23)
 ------------------------------------------------------
 Symbolic Z-matrix:
 Charge =  0 Multiplicity = 1

                         Standard orientation:
 ---------------------------------------------------------------------
 Center     Atomic      Atomic             Coordinates (Angstroms)
 Number     Number       Type             X           Y           Z
 ---------------------------------------------------------------------
      1          6           0        0.550086   -2.693752    0.626425
      2          6           0        1.753673   -2.370641    1.261640
      3          6           0        2.498734   -1.261830    0.849367
      4          6           0        2.008382   -0.494556   -0.206160
      5          6           0        0.812862   -0.790717   -0.859084
      6          6           0        0.084343   -1.904151   -0.430047
      7          1           0       -0.022270   -3.556899    0.953200
      8          1           0        2.117809   -2.982059    2.082382
      9          1           0        3.433726   -0.988956    1.323443
     10          1           0        0.475524   -0.162293   -1.674379
     11          1           0       -0.850042   -2.152700   -0.925218
     12          7           0        2.788389    0.681740   -0.651489
     13          8           0        2.334732    1.341726   -1.583825
     14          8           0        3.838645    0.921461   -0.059769
     15          6           0       -2.064543    1.537545   -0.019547
     16          6           0       -1.344549    2.206578    1.151773
     17          6           0       -0.665997    3.518630    0.756953
     18          1           0       -1.343001    1.350480   -0.826596
     19          1           0       -2.813906    2.231488   -0.424874
     20          1           0       -0.597719    1.511060    1.555651
     21          1           0       -2.067849    2.391898    1.956202
     22          1           0       -1.401956    4.232868    0.373772
     23          1           0        0.076528    3.347025   -0.029057
     24          1           0       -0.157400    3.979913    1.609248
     25          6           0       -2.747816    0.224820    0.359422
     26          6           0       -3.467810   -0.444214   -0.811896
     27          6           0       -4.146362   -1.756265   -0.417077
     28          1           0       -1.998452   -0.469125    0.764750
     29          1           0       -3.469358    0.411885    1.166472
     30          1           0       -2.744509   -0.629534   -1.616327
     31          1           0       -4.214639    0.251304   -1.215775
     32          1           0       -4.888885   -1.584662    0.368932
     33          1           0       -3.410403   -2.470504   -0.033895
     34          1           0       -4.654959   -2.217548   -1.269372
 ---------------------------------------------------------------------

 SCF Done:  E(RHF) =  -669.534184817     A.U. after   15 cycles
 E2 =    -0.2096209733D+01 EUMP2 =    -0.67163039454991D+03

 The electronic state is 1-A.
 Alpha  occ. eigenvalues --  -20.60923 -20.60918 -15.85960 -11.31326 -11.27863
 Alpha  occ. eigenvalues --  -11.27859 -11.27598 -11.26883 -11.26845 -11.22349
 Alpha  occ. eigenvalues --  -11.21947 -11.21696 -11.21565 -11.21505 -11.20669
 Alpha  occ. eigenvalues --   -1.59984  -1.39538  -1.19493  -1.08906  -1.08750
 Alpha  occ. eigenvalues --   -1.04890  -1.03831  -0.96250  -0.95717  -0.87276
 Alpha  occ. eigenvalues --   -0.86285  -0.82554  -0.79934  -0.78501  -0.77613
 Alpha  occ. eigenvalues --   -0.72176  -0.71302  -0.70595  -0.65667  -0.65128
 Alpha  occ. eigenvalues --   -0.64826  -0.62202  -0.61165  -0.59682  -0.57833
 Alpha  occ. eigenvalues --   -0.55615  -0.55372  -0.53199  -0.52993  -0.52942
 Alpha  occ. eigenvalues --   -0.52611  -0.50215  -0.48938  -0.48935  -0.48207
 Alpha  occ. eigenvalues --   -0.47023  -0.46035  -0.45922  -0.44909  -0.44044
 Alpha  occ. eigenvalues --   -0.37436  -0.36396
 Alpha virt. eigenvalues --    0.04893   0.11029   0.16334   0.19145   0.23245
 Alpha virt. eigenvalues --    0.23648   0.24811   0.26146   0.27718   0.28636
 Alpha virt. eigenvalues --    0.29561   0.30262   0.31170   0.31986   0.32103

 Mulliken charges:
               1
     1  C   -0.172705
     2  C   -0.217849
     3  C   -0.171460
     4  C    0.158597
     5  C   -0.170987
     6  C   -0.222894
     7  H    0.226495
     8  H    0.224132
     9  H    0.276045
    10  H    0.276766
    11  H    0.233186
    12  N    0.488330
    13  O   -0.461067
    14  O   -0.458861
    15  C   -0.299307
    16  C   -0.300847
    17  C   -0.481142
    18  H    0.147689
    19  H    0.151464
    20  H    0.151437
    21  H    0.150545
    22  H    0.153621
    23  H    0.168580
    24  H    0.160864
    25  C   -0.304985
    26  C   -0.303057
    27  C   -0.475979
    28  H    0.153781
    29  H    0.151425
    30  H    0.141221
    31  H    0.158798
    32  H    0.160715
    33  H    0.144735
    34  H    0.162712
 Sum of Mulliken charges =  -0.00000

 Dipole moment (field-independent basis, Debye):
    X=             -2.6729    Y=             -4.0697    Z=              1.5966  Tot=              5.1241
 Quadrupole moment (field-independent basis, Debye-Ang):
   XX=           -103.0651   YY=            -91.6114   ZZ=            -93.4578
   XY=             -8.7808   XZ=              6.3964   YZ=             -0.6351

 Normal termination of Gaussian 16 at Thu May  6 14:16:00 2021.
