 Gaussian 16, Revision A.03,
 Gaussian 16:  EM64L-G16RevA.03 25-Dec-2016

 -------------
 #p 6-31g* mp2
 -------------

 ------------------------------------------------------
 Input file generated by CHIRIPA (05-May-2021 14:57:22)
 ------------------------------------------------------
 Symbolic Z-matrix:
 Charge =  0 Multiplicity = 1

                         Standard orientation:
 ---------------------------------------------------------------------
 Center     Atomic      Atomic             Coordinates (Angstroms)
 Number     Number       Type             X           Y           Z
 ---------------------------------------------------------------------
      1          6           0        4.238339    2.044710    0.193653
      2          6           0        2.927592    1.766326    0.594858
      3          6           0        2.409525    0.472877    0.480208
      4          6           0        3.233675   -0.522635   -0.042307
      5          6           0        4.543636   -0.276692   -0.450723
      6          6           0        5.040763    1.024112   -0.326939
      7          1           0        4.632652    3.052349    0.286263
      8          1           0        2.302137    2.556963    0.999511
      9          1           0        1.398346    0.229640    0.783144
     10          1           0        5.143074   -1.085630   -0.850362
     11          1           0        6.059080    1.237403   -0.639323
     12          7           0        2.696305   -1.895845   -0.168517
     13          8           0        3.442684   -2.755338   -0.632010
     14          8           0        1.538910   -2.086671    0.198444
     15          6           0       -2.043114    2.467564   -0.102731
     16          6           0       -3.187844    2.283744   -0.885243
     17          6           0       -3.904416    1.084834   -0.824501
     18          6           0       -3.445901    0.086405    0.033517
     19          6           0       -2.309061    0.239400    0.825651
     20          6           0       -1.608143    1.446605    0.748717
     21          1           0       -1.492545    3.402127   -0.156206
     22          1           0       -3.527974    3.074897   -1.547385
     23          1           0       -4.793877    0.915925   -1.419267
     24          1           0       -1.994504   -0.567561    1.476257
     25          1           0       -0.719471    1.586573    1.357583
     26          7           0       -4.196217   -1.187217    0.106394
     27          8           0       -3.771579   -2.051385    0.870287
     28          8           0       -5.194746   -1.297199   -0.601761
 ---------------------------------------------------------------------

 SCF Done:  E(RHF) =  -868.336091750     A.U. after   16 cycles
 E2 =    -0.2600521437D+01 EUMP2 =    -0.87093661318719D+03

 The electronic state is 1-A.
 Alpha  occ. eigenvalues --  -20.61108 -20.61102 -20.60584 -20.60554 -15.86168
 Alpha  occ. eigenvalues --  -15.85636 -11.31695 -11.31199 -11.28365 -11.28243
 Alpha  occ. eigenvalues --  -11.28059 -11.27843 -11.27837 -11.27727 -11.27428
 Alpha  occ. eigenvalues --  -11.27279 -11.27034 -11.26885  -1.60177  -1.59643
 Alpha  occ. eigenvalues --   -1.39728  -1.39189  -1.19889  -1.19440  -1.09247
 Alpha  occ. eigenvalues --   -1.08813  -1.05338  -1.04890  -0.96057  -0.95596
 Alpha  occ. eigenvalues --   -0.86721  -0.86291  -0.82903  -0.82440  -0.77941
 Alpha  occ. eigenvalues --   -0.77417  -0.72381  -0.71855  -0.71503  -0.71006
 Alpha  occ. eigenvalues --   -0.70965  -0.70569  -0.65557  -0.65372  -0.65106
 Alpha  occ. eigenvalues --   -0.64953  -0.62761  -0.62151  -0.55815  -0.55430
 Alpha  occ. eigenvalues --   -0.53630  -0.53483  -0.53160  -0.52985  -0.49148
 Alpha  occ. eigenvalues --   -0.49129  -0.48636  -0.48588  -0.45098  -0.44550
 Alpha  occ. eigenvalues --   -0.37859  -0.37457  -0.36940  -0.36470
 Alpha virt. eigenvalues --    0.04638   0.05121   0.10699   0.11132   0.16100
 Alpha virt. eigenvalues --    0.16389   0.18489   0.22158   0.24860   0.26700
 Alpha virt. eigenvalues --    0.28042   0.29490   0.30297   0.31113   0.32872

 Mulliken charges:
               1
     1  C   -0.170410
     2  C   -0.219162
     3  C   -0.172068
     4  C    0.159782
     5  C   -0.169401
     6  C   -0.218451
     7  H    0.226243
     8  H    0.215417
     9  H    0.271447
    10  H    0.277945
    11  H    0.225501
    12  N    0.488048
    13  O   -0.457564
    14  O   -0.459458
    15  C   -0.169739
    16  C   -0.218901
    17  C   -0.168903
    18  C    0.158479
    19  C   -0.165061
    20  C   -0.222107
    21  H    0.221202
    22  H    0.223440
    23  H    0.276948
    24  H    0.283038
    25  H    0.211923
    26  N    0.488150
    27  O   -0.455124
    28  O   -0.461214
 Sum of Mulliken charges =  -0.00000

 Dipole moment (field-independent basis, Debye):
    X=              4.5213    Y=              9.0673    Z=              0.0843  Tot=             10.1323
 Quadrupole moment (field-independent basis, Debye-Ang):
   XX=           -104.0643   YY=           -109.3056   ZZ=           -103.1433
   XY=             -3.2530   XZ=              2.7607   YZ=             -1.2114

 Normal termination of Gaussian 16 at Thu May  6 22:41:47 2021.
