 Gaussian 16, Revision A.03,
 Gaussian 16:  EM64L-G16RevA.03 25-Dec-2016

 -------------
 #p 6-31g* mp2
 -------------

 ------------------------------------------------------
 Input file generated by CHIRIPA (05-May-2021 14:55:20)
 ------------------------------------------------------
 Symbolic Z-matrix:
 Charge =  0 Multiplicity = 1

                         Standard orientation:
 ---------------------------------------------------------------------
 Center     Atomic      Atomic             Coordinates (Angstroms)
 Number     Number       Type             X           Y           Z
 ---------------------------------------------------------------------
      1          6           0       -1.346213   -2.498410   -0.048060
      2          6           0       -2.686923   -2.519244    0.350166
      3          6           0       -3.444894   -1.344503    0.353650
      4          6           0       -2.827487   -0.161293   -0.048979
      5          6           0       -1.493800   -0.108209   -0.451164
      6          6           0       -0.754973   -1.295081   -0.446751
      7          1           0       -0.764839   -3.415688   -0.047700
      8          1           0       -3.148709   -3.452314    0.660294
      9          1           0       -4.484676   -1.332109    0.657159
     10          1           0       -1.061088    0.837218   -0.755049
     11          1           0        0.286046   -1.275911   -0.756520
     12          7           0       -3.619783    1.088774   -0.049470
     13          8           0       -3.052528    2.118269   -0.408633
     14          8           0       -4.793038    1.015410    0.309317
     15          6           0        3.351154    1.126477    0.440097
     16          6           0        2.646944    2.200914   -0.389154
     17          6           0        2.452349    3.508090    0.379751
     18          1           0        2.767799    0.934375    1.350996
     19          1           0        4.327582    1.508349    0.768972
     20          1           0        1.672725    1.816617   -0.717527
     21          1           0        3.231944    2.390342   -1.298278
     22          1           0        3.417821    3.917437    0.694234
     23          1           0        1.849742    3.340452    1.278285
     24          1           0        1.947111    4.262172   -0.231768
     25          6           0        3.552926   -0.186141   -0.314918
     26          6           0        4.257137   -1.260578    0.514332
     27          6           0        4.451732   -2.567755   -0.254572
     28          1           0        2.576498   -0.568014   -0.643794
     29          1           0        4.136282    0.005961   -1.225818
     30          1           0        3.672136   -1.450007    1.423457
     31          1           0        5.231357   -0.876282    0.842705
     32          1           0        5.054339   -2.400117   -1.153107
     33          1           0        3.486260   -2.977101   -0.569055
     34          1           0        4.956969   -3.321836    0.356947
 ---------------------------------------------------------------------

 SCF Done:  E(RHF) =  -669.535402881     A.U. after   15 cycles
 E2 =    -0.2091856641D+01 EUMP2 =    -0.67162725952231D+03

 The electronic state is 1-A.
 Alpha  occ. eigenvalues --  -20.60763 -20.60758 -15.85816 -11.31187 -11.27758
 Alpha  occ. eigenvalues --  -11.27754 -11.27501 -11.26774 -11.26751 -11.22358
 Alpha  occ. eigenvalues --  -11.22252 -11.22152 -11.21976 -11.21871 -11.21296
 Alpha  occ. eigenvalues --   -1.59839  -1.39392  -1.19360  -1.09124  -1.08754
 Alpha  occ. eigenvalues --   -1.04766  -1.04137  -0.96577  -0.95589  -0.87586
 Alpha  occ. eigenvalues --   -0.86165  -0.82424  -0.80212  -0.78944  -0.77465
 Alpha  occ. eigenvalues --   -0.72035  -0.71162  -0.70471  -0.65819  -0.65012
 Alpha  occ. eigenvalues --   -0.64755  -0.62110  -0.61534  -0.59950  -0.58182
 Alpha  occ. eigenvalues --   -0.55886  -0.55266  -0.53231  -0.53093  -0.53043
 Alpha  occ. eigenvalues --   -0.52820  -0.50514  -0.48799  -0.48790  -0.48512
 Alpha  occ. eigenvalues --   -0.47261  -0.46469  -0.46383  -0.44796  -0.44407
 Alpha  occ. eigenvalues --   -0.37342  -0.36367
 Alpha virt. eigenvalues --    0.05063   0.11270   0.16512   0.18255   0.22756
 Alpha virt. eigenvalues --    0.23108   0.24619   0.26526   0.27025   0.27351
 Alpha virt. eigenvalues --    0.29292   0.30988   0.31232   0.31494   0.31912

 Mulliken charges:
               1
     1  C   -0.172844
     2  C   -0.218625
     3  C   -0.170727
     4  C    0.159231
     5  C   -0.177625
     6  C   -0.226294
     7  H    0.226151
     8  H    0.223469
     9  H    0.275607
    10  H    0.279065
    11  H    0.234418
    12  N    0.488001
    13  O   -0.460287
    14  O   -0.460520
    15  C   -0.299367
    16  C   -0.300157
    17  C   -0.476400
    18  H    0.151543
    19  H    0.153215
    20  H    0.144339
    21  H    0.154209
    22  H    0.155930
    23  H    0.158241
    24  H    0.165616
    25  C   -0.302596
    26  C   -0.300542
    27  C   -0.474510
    28  H    0.140737
    29  H    0.153624
    30  H    0.152529
    31  H    0.156150
    32  H    0.158110
    33  H    0.147213
    34  H    0.163097
 Sum of Mulliken charges =  -0.00000

 Dipole moment (field-independent basis, Debye):
    X=              2.9687    Y=             -4.2862    Z=              0.0711  Tot=              5.2144
 Quadrupole moment (field-independent basis, Debye-Ang):
   XX=           -105.9271   YY=            -92.9651   ZZ=            -95.0791
   XY=             15.1840   XZ=             -1.7587   YZ=             -1.3014

 Normal termination of Gaussian 16 at Thu May  6 20:42:11 2021.
