 Gaussian 16, Revision A.03,
 Gaussian 16:  EM64L-G16RevA.03 25-Dec-2016

 -------------
 #p 6-31g* mp2
 -------------

 ------------------------------------------------------
 Input file generated by CHIRIPA (05-May-2021 14:57:22)
 ------------------------------------------------------
 Symbolic Z-matrix:
 Charge =  0 Multiplicity = 1

                         Standard orientation:
 ---------------------------------------------------------------------
 Center     Atomic      Atomic             Coordinates (Angstroms)
 Number     Number       Type             X           Y           Z
 ---------------------------------------------------------------------
      1          6           0       -4.636529    0.592705   -2.004061
      2          6           0       -5.365217    0.307084   -0.844771
      3          6           0       -4.708691   -0.052888    0.335882
      4          6           0       -3.316252   -0.117693    0.321556
      5          6           0       -2.562242    0.161019   -0.817337
      6          6           0       -3.239829    0.518892   -1.986675
      7          1           0       -5.154715    0.871524   -2.916826
      8          1           0       -6.449993    0.363600   -0.855346
      9          1           0       -5.248111   -0.279177    1.247605
     10          1           0       -1.481733    0.096166   -0.775952
     11          1           0       -2.671330    0.740167   -2.885503
     12          7           0       -2.610069   -0.497668    1.565471
     13          8           0       -1.382612   -0.547572    1.526809
     14          8           0       -3.297392   -0.738392    2.555560
     15          6           0        3.518421   -2.391801   -0.725963
     16          6           0        2.284585   -1.758990   -0.542332
     17          6           0        2.225065   -0.403673   -0.204516
     18          6           0        3.424347    0.291623   -0.057627
     19          6           0        4.669119   -0.310668   -0.233916
     20          6           0        4.704659   -1.666898   -0.571442
     21          1           0        3.555343   -3.444999   -0.988273
     22          1           0        1.361728   -2.319468   -0.661681
     23          1           0        1.283522    0.111107   -0.056471
     24          1           0        5.572108    0.274301   -0.108057
     25          1           0        5.664303   -2.155740   -0.713435
     26          7           0        3.374029    1.726921    0.299850
     27          8           0        4.444918    2.317308    0.423447
     28          8           0        2.264654    2.234341    0.449672
 ---------------------------------------------------------------------

 SCF Done:  E(RHF) =  -868.338403114     A.U. after   16 cycles
 E2 =    -0.2599439336D+01 EUMP2 =    -0.87093784245057D+03

 The electronic state is 1-A.
 Alpha  occ. eigenvalues --  -20.61163 -20.61136 -20.60381 -20.60368 -15.86195
 Alpha  occ. eigenvalues --  -15.85428 -11.31484 -11.30751 -11.28102 -11.28006
 Alpha  occ. eigenvalues --  -11.27737 -11.27353 -11.27277 -11.27090 -11.27035
 Alpha  occ. eigenvalues --  -11.27008 -11.26371 -11.26305  -1.60209  -1.59453
 Alpha  occ. eigenvalues --   -1.39772  -1.39007  -1.19639  -1.18930  -1.09040
 Alpha  occ. eigenvalues --   -1.08341  -1.05035  -1.04323  -0.95896  -0.95178
 Alpha  occ. eigenvalues --   -0.86438  -0.85729  -0.82737  -0.82007  -0.77813
 Alpha  occ. eigenvalues --   -0.77046  -0.72424  -0.71650  -0.71517  -0.70774
 Alpha  occ. eigenvalues --   -0.70755  -0.70046  -0.65297  -0.65040  -0.64585
 Alpha  occ. eigenvalues --   -0.64330  -0.62414  -0.61647  -0.55527  -0.54851
 Alpha  occ. eigenvalues --   -0.53356  -0.53134  -0.52661  -0.52413  -0.49182
 Alpha  occ. eigenvalues --   -0.49147  -0.48409  -0.48402  -0.45188  -0.44421
 Alpha  occ. eigenvalues --   -0.37598  -0.36927  -0.36628  -0.35919
 Alpha virt. eigenvalues --    0.04740   0.05472   0.11023   0.11724   0.16261
 Alpha virt. eigenvalues --    0.16961   0.19568   0.22064   0.24855   0.27456
 Alpha virt. eigenvalues --    0.28241   0.29308   0.31027   0.31372   0.31869

 Mulliken charges:
               1
     1  C   -0.170130
     2  C   -0.218371
     3  C   -0.169983
     4  C    0.158373
     5  C   -0.169355
     6  C   -0.219544
     7  H    0.227045
     8  H    0.224750
     9  H    0.276568
    10  H    0.271758
    11  H    0.225234
    12  N    0.490714
    13  O   -0.469250
    14  O   -0.456479
    15  C   -0.170981
    16  C   -0.219679
    17  C   -0.176011
    18  C    0.158551
    19  C   -0.170726
    20  C   -0.219174
    21  H    0.224143
    22  H    0.224127
    23  H    0.286625
    24  H    0.274262
    25  H    0.221821
    26  N    0.487579
    27  O   -0.462274
    28  O   -0.459593
 Sum of Mulliken charges =  -0.00000

 Dipole moment (field-independent basis, Debye):
    X=             -2.5971    Y=             -3.6993    Z=             -5.5858  Tot=              7.1854
 Quadrupole moment (field-independent basis, Debye-Ang):
   XX=            -77.9237   YY=           -109.6424   ZZ=           -107.5780
   XY=            -21.1423   XZ=              7.3096   YZ=              0.5152

 Normal termination of Gaussian 16 at Thu May  6 11:14:43 2021.
