 Gaussian 16, Revision A.03,
 Gaussian 16:  EM64L-G16RevA.03 25-Dec-2016

 -------------
 #p 6-31g* mp2
 -------------

 ------------------------------------------------------
 Input file generated by CHIRIPA (05-May-2021 14:51:09)
 ------------------------------------------------------
 Symbolic Z-matrix:
 Charge =  0 Multiplicity = 1

                         Standard orientation:
 ---------------------------------------------------------------------
 Center     Atomic      Atomic             Coordinates (Angstroms)
 Number     Number       Type             X           Y           Z
 ---------------------------------------------------------------------
      1          6           0       -3.789869   -0.224728    0.317634
      2          6           0       -4.724962    0.010235   -0.869117
      3          6           0       -6.001618    0.754890   -0.477410
      4          1           0       -4.324831   -0.792862    1.090929
      5          1           0       -3.527728    0.743475    0.766253
      6          1           0       -4.984157   -0.958030   -1.316215
      7          1           0       -4.187652    0.577711   -1.639757
      8          1           0       -5.761000    1.734146   -0.051075
      9          1           0       -6.562031    0.189679    0.274305
     10          1           0       -6.655594    0.912178   -1.340796
     11          6           0       -2.509236   -0.968072   -0.058059
     12          6           0       -1.574143   -1.203036    1.128692
     13          6           0       -0.297488   -1.947690    0.736985
     14          1           0       -2.771377   -1.936276   -0.506678
     15          1           0       -1.974274   -0.399938   -0.831353
     16          1           0       -2.111453   -1.770511    1.899332
     17          1           0       -1.314948   -0.234770    1.575790
     18          1           0        0.262926   -1.382480   -0.014730
     19          1           0       -0.538105   -2.926947    0.310650
     20          1           0        0.356489   -2.104979    1.600371
     21          6           0        3.178723    1.343054    0.028607
     22          6           0        1.806899    2.018361    0.022002
     23          6           0        1.881691    3.511912    0.340606
     24          1           0        3.646282    1.486614    1.012338
     25          1           0        3.829184    1.842762   -0.702547
     26          1           0        1.158787    1.516640    0.751963
     27          1           0        1.342471    1.873013   -0.961764
     28          1           0        2.506146    4.031572   -0.393295
     29          1           0        2.321419    3.673174    1.330169
     30          1           0        0.889938    3.974711    0.330547
     31          6           0        3.120382   -0.150254   -0.288183
     32          6           0        4.492206   -0.825561   -0.281577
     33          6           0        4.417414   -2.319111   -0.600181
     34          1           0        2.469921   -0.649961    0.442972
     35          1           0        2.652823   -0.293813   -1.271912
     36          1           0        4.956635   -0.680213    0.702189
     37          1           0        5.140318   -0.323840   -1.011538
     38          1           0        3.977686   -2.480374   -1.589744
     39          1           0        3.792959   -2.838772    0.133720
     40          1           0        5.409167   -2.781911   -0.590121
 ---------------------------------------------------------------------

 SCF Done:  E(RHF) =  -470.732799339     A.U. after   11 cycles
 E2 =    -0.1583495450D+01 EUMP2 =    -0.47231629478879D+03

 The electronic state is 1-A.
 Alpha  occ. eigenvalues --  -11.21649 -11.21594 -11.21588 -11.21566 -11.21391
 Alpha  occ. eigenvalues --  -11.21388 -11.21332 -11.21288 -11.21111 -11.21066
 Alpha  occ. eigenvalues --  -11.21028 -11.20993  -1.08444  -1.08398  -1.03530
 Alpha  occ. eigenvalues --   -1.03514  -0.96008  -0.95933  -0.87034  -0.86945
 Alpha  occ. eigenvalues --   -0.79650  -0.79543  -0.78297  -0.78173  -0.65137
 Alpha  occ. eigenvalues --   -0.64976  -0.60936  -0.60910  -0.59362  -0.59319
 Alpha  occ. eigenvalues --   -0.57638  -0.57541  -0.55362  -0.55167  -0.52711
 Alpha  occ. eigenvalues --   -0.52661  -0.52459  -0.52313  -0.50025  -0.49821
 Alpha  occ. eigenvalues --   -0.47934  -0.47895  -0.46751  -0.46561  -0.45897
 Alpha  occ. eigenvalues --   -0.45740  -0.45690  -0.45399  -0.43780  -0.43752
 Alpha virt. eigenvalues --    0.20967   0.23120   0.23919   0.24212   0.25778
 Alpha virt. eigenvalues --    0.26308   0.27177   0.27734   0.27900   0.29761
 Alpha virt. eigenvalues --    0.30139   0.31247   0.31656   0.31823   0.32217

 Mulliken charges:
               1
     1  C   -0.298309
     2  C   -0.299651
     3  C   -0.475695
     4  H    0.149580
     5  H    0.149521
     6  H    0.151903
     7  H    0.151919
     8  H    0.155163
     9  H    0.155163
    10  H    0.160216
    11  C   -0.298594
    12  C   -0.300498
    13  C   -0.481664
    14  H    0.149479
    15  H    0.150276
    16  H    0.151693
    17  H    0.152117
    18  H    0.163977
    19  H    0.154899
    20  H    0.158115
    21  C   -0.297571
    22  C   -0.302424
    23  C   -0.475542
    24  H    0.149486
    25  H    0.149381
    26  H    0.153822
    27  H    0.151209
    28  H    0.155489
    29  H    0.155414
    30  H    0.159944
    31  C   -0.305413
    32  C   -0.299153
    33  C   -0.475946
    34  H    0.159335
    35  H    0.148293
    36  H    0.151560
    37  H    0.151485
    38  H    0.155096
    39  H    0.155926
    40  H    0.159998
 Sum of Mulliken charges =  -0.00000

 Dipole moment (field-independent basis, Debye):
    X=              0.0084    Y=             -0.0062    Z=             -0.0026  Tot=              0.0108
 Quadrupole moment (field-independent basis, Debye-Ang):
   XX=            -85.6325   YY=            -85.4411   ZZ=            -83.8466
   XY=              1.0536   XZ=              0.0153   YZ=             -0.6496

 Normal termination of Gaussian 16 at Wed May  5 15:07:50 2021.
