 Gaussian 16, Revision A.03,
 Gaussian 16:  EM64L-G16RevA.03 25-Dec-2016

 -------------
 #p 6-31g* mp2
 -------------

 ------------------------------------------------------
 Input file generated by CHIRIPA (05-May-2021 14:53:11)
 ------------------------------------------------------
 Symbolic Z-matrix:
 Charge =  0 Multiplicity = 1

                         Standard orientation:
 ---------------------------------------------------------------------
 Center     Atomic      Atomic             Coordinates (Angstroms)
 Number     Number       Type             X           Y           Z
 ---------------------------------------------------------------------
      1          6           0       -4.856369   -0.276204   -0.008350
      2          6           0       -4.804778   -1.800792    0.096311
      3          6           0       -6.178450   -2.422801    0.349140
      4          1           0       -5.281537    0.134365    0.917722
      5          1           0       -5.542388    0.005700   -0.819092
      6          1           0       -4.117996   -2.079762    0.905708
      7          1           0       -4.379505   -2.207768   -0.830042
      8          1           0       -6.869565   -2.173381   -0.462494
      9          1           0       -6.606571   -2.044647    1.283118
     10          1           0       -6.118391   -3.513286    0.420512
     11          6           0       -3.490786    0.360245   -0.261026
     12          6           0       -3.542377    1.884833   -0.365687
     13          6           0       -2.168704    2.506842   -0.618516
     14          1           0       -2.804767    0.078341    0.549717
     15          1           0       -3.065617   -0.050324   -1.187098
     16          1           0       -3.967650    2.291809    0.560666
     17          1           0       -4.229158    2.163803   -1.175084
     18          1           0       -1.740583    2.128688   -1.552493
     19          1           0       -1.477589    2.257422    0.193119
     20          1           0       -2.228764    3.597327   -0.689888
     21          6           0        1.456182    1.540591    0.901670
     22          6           0        1.624174    1.303323   -0.466543
     23          6           0        2.620683    0.433490   -0.919209
     24          6           0        3.435052   -0.184941    0.028227
     25          6           0        3.292527    0.031020    1.398022
     26          6           0        2.289425    0.904803    1.827952
     27          1           0        0.679509    2.217832    1.244480
     28          1           0        0.978528    1.795696   -1.188177
     29          1           0        2.772662    0.231775   -1.972599
     30          1           0        3.951548   -0.474440    2.093450
     31          1           0        2.161259    1.087178    2.891134
     32          7           0        4.493502   -1.107885   -0.438955
     33          8           0        5.197952   -1.640365    0.415945
     34          8           0        4.598621   -1.281334   -1.651185
 ---------------------------------------------------------------------

 SCF Done:  E(RHF) =  -669.535171159     A.U. after   15 cycles
 E2 =    -0.2091597269D+01 EUMP2 =    -0.67162676842861D+03

 The electronic state is 1-A.
 Alpha  occ. eigenvalues --  -20.60718 -20.60713 -15.85770 -11.31125 -11.27690
 Alpha  occ. eigenvalues --  -11.27672 -11.27403 -11.26710 -11.26653 -11.22500
 Alpha  occ. eigenvalues --  -11.22342 -11.22079 -11.22013 -11.21901 -11.21403
 Alpha  occ. eigenvalues --   -1.59794  -1.39348  -1.19290  -1.09091  -1.08688
 Alpha  occ. eigenvalues --   -1.04690  -1.04233  -0.96715  -0.95527  -0.87747
 Alpha  occ. eigenvalues --   -0.86082  -0.82361  -0.80319  -0.78852  -0.77405
 Alpha  occ. eigenvalues --   -0.71989  -0.71116  -0.70429  -0.65720  -0.64942
 Alpha  occ. eigenvalues --   -0.64700  -0.62046  -0.61640  -0.60087  -0.58283
 Alpha  occ. eigenvalues --   -0.56105  -0.55138  -0.53416  -0.53215  -0.52985
 Alpha  occ. eigenvalues --   -0.52716  -0.50652  -0.48755  -0.48746  -0.48601
 Alpha  occ. eigenvalues --   -0.47323  -0.46405  -0.46298  -0.44756  -0.44459
 Alpha  occ. eigenvalues --   -0.37261  -0.36290
 Alpha virt. eigenvalues --    0.05103   0.11330   0.16549   0.20196   0.22413
 Alpha virt. eigenvalues --    0.23891   0.25153   0.25745   0.27051   0.27313
 Alpha virt. eigenvalues --    0.28993   0.29628   0.31142   0.31634   0.32202

 Mulliken charges:
               1
     1  C   -0.298904
     2  C   -0.300179
     3  C   -0.476114
     4  H    0.149962
     5  H    0.150778
     6  H    0.152496
     7  H    0.153355
     8  H    0.155799
     9  H    0.155279
    10  H    0.162084
    11  C   -0.298915
    12  C   -0.299562
    13  C   -0.482108
    14  H    0.149359
    15  H    0.151032
    16  H    0.153714
    17  H    0.155841
    18  H    0.154485
    19  H    0.148575
    20  H    0.163680
    21  C   -0.174747
    22  C   -0.219843
    23  C   -0.171900
    24  C    0.158711
    25  C   -0.171262
    26  C   -0.218652
    27  H    0.227977
    28  H    0.228659
    29  H    0.275322
    30  H    0.275244
    31  H    0.223008
    32  N    0.488065
    33  O   -0.460647
    34  O   -0.460591
 Sum of Mulliken charges =  -0.00000

 Dipole moment (field-independent basis, Debye):
    X=             -3.9453    Y=              3.2182    Z=              1.6172  Tot=              5.3421
 Quadrupole moment (field-independent basis, Debye-Ang):
   XX=           -120.9573   YY=            -96.9062   ZZ=            -89.2217
   XY=             11.1552   XZ=              7.4784   YZ=             -0.9567

 Normal termination of Gaussian 16 at Wed May  5 16:56:13 2021.
