 Gaussian 16, Revision A.03,
 Gaussian 16:  EM64L-G16RevA.03 25-Dec-2016

 -------------
 #p 6-31g* mp2
 -------------

 ------------------------------------------------------
 Input file generated by CHIRIPA (05-May-2021 14:55:21)
 ------------------------------------------------------
 Symbolic Z-matrix:
 Charge =  0 Multiplicity = 1

                         Standard orientation:
 ---------------------------------------------------------------------
 Center     Atomic      Atomic             Coordinates (Angstroms)
 Number     Number       Type             X           Y           Z
 ---------------------------------------------------------------------
      1          6           0        1.359513   -2.404433   -0.721717
      2          6           0        0.660385   -1.257857   -0.330432
      3          6           0        1.348620   -0.106337    0.063121
      4          6           0        2.742279   -0.136516    0.053397
      5          6           0        3.467293   -1.263359   -0.331139
      6          6           0        2.758270   -2.403526   -0.720823
      7          1           0        0.816802   -3.294551   -1.025936
      8          1           0       -0.425911   -1.255686   -0.330144
      9          1           0        0.832487    0.794997    0.370728
     10          1           0        4.550125   -1.235232   -0.321080
     11          1           0        3.303854   -3.292537   -1.024209
     12          7           0        3.481886    1.076537    0.467986
     13          8           0        4.709736    1.024376    0.450685
     14          8           0        2.819735    2.056520    0.802392
     15          6           0       -3.816127   -0.165628   -0.100938
     16          6           0       -3.567933   -1.328298    0.860614
     17          6           0       -4.499989   -2.513707    0.607889
     18          1           0       -4.860875    0.161415   -0.008811
     19          1           0       -3.689236   -0.519396   -1.133480
     20          1           0       -3.693897   -0.972107    1.891089
     21          1           0       -2.523601   -1.652486    0.766326
     22          1           0       -4.369340   -2.896423   -0.409490
     23          1           0       -5.546286   -2.212178    0.721663
     24          1           0       -4.305306   -3.333518    1.306364
     25          6           0       -2.892052    1.026918    0.139165
     26          6           0       -3.140247    2.189588   -0.822387
     27          6           0       -2.208190    3.374997   -0.569661
     28          1           0       -3.018944    1.380686    1.171706
     29          1           0       -1.847303    0.699874    0.047038
     30          1           0       -4.184578    2.513776   -0.728099
     31          1           0       -3.014282    1.833398   -1.852861
     32          1           0       -1.161893    3.073468   -0.683436
     33          1           0       -2.338839    3.757713    0.447717
     34          1           0       -2.402873    4.194808   -1.268138
 ---------------------------------------------------------------------

 SCF Done:  E(RHF) =  -669.534887765     A.U. after   15 cycles
 E2 =    -0.2092740416D+01 EUMP2 =    -0.67162762818145D+03

 The electronic state is 1-A.
 Alpha  occ. eigenvalues --  -20.60740 -20.60734 -15.85792 -11.31159 -11.27731
 Alpha  occ. eigenvalues --  -11.27716 -11.27472 -11.26746 -11.26700 -11.22545
 Alpha  occ. eigenvalues --  -11.22265 -11.22198 -11.22109 -11.21858 -11.21346
 Alpha  occ. eigenvalues --   -1.59815  -1.39368  -1.19331  -1.09227  -1.08725
 Alpha  occ. eigenvalues --   -1.04738  -1.04206  -0.96636  -0.95561  -0.87646
 Alpha  occ. eigenvalues --   -0.86138  -0.82406  -0.80280  -0.79060  -0.77433
 Alpha  occ. eigenvalues --   -0.72011  -0.71138  -0.70446  -0.65991  -0.64982
 Alpha  occ. eigenvalues --   -0.64698  -0.62071  -0.61606  -0.60017  -0.58243
 Alpha  occ. eigenvalues --   -0.55927  -0.55240  -0.53301  -0.53069  -0.53039
 Alpha  occ. eigenvalues --   -0.52838  -0.50591  -0.48779  -0.48765  -0.48567
 Alpha  occ. eigenvalues --   -0.47329  -0.46542  -0.46464  -0.44773  -0.44486
 Alpha  occ. eigenvalues --   -0.37313  -0.36335
 Alpha virt. eigenvalues --    0.05088   0.11271   0.16557   0.18748   0.22393
 Alpha virt. eigenvalues --    0.23176   0.24897   0.26354   0.26503   0.27870
 Alpha virt. eigenvalues --    0.29509   0.30903   0.31243   0.31400   0.32405

 Mulliken charges:
               1
     1  C   -0.172280
     2  C   -0.227794
     3  C   -0.177392
     4  C    0.159522
     5  C   -0.170765
     6  C   -0.218670
     7  H    0.225667
     8  H    0.235505
     9  H    0.278753
    10  H    0.275508
    11  H    0.223345
    12  N    0.488275
    13  O   -0.460603
    14  O   -0.460501
    15  C   -0.299794
    16  C   -0.303992
    17  C   -0.475854
    18  H    0.155014
    19  H    0.148344
    20  H    0.157650
    21  H    0.143588
    22  H    0.153849
    23  H    0.159235
    24  H    0.162139
    25  C   -0.303200
    26  C   -0.300302
    27  C   -0.477748
    28  H    0.155252
    29  H    0.140707
    30  H    0.154625
    31  H    0.152130
    32  H    0.157650
    33  H    0.158390
    34  H    0.163747
 Sum of Mulliken charges =  -0.00000

 Dipole moment (field-independent basis, Debye):
    X=             -2.8149    Y=             -4.1540    Z=             -1.4301  Tot=              5.2178
 Quadrupole moment (field-independent basis, Debye-Ang):
   XX=           -104.3608   YY=            -93.1893   ZZ=            -95.1427
   XY=            -14.8829   XZ=             -5.6549   YZ=              0.6054

 Normal termination of Gaussian 16 at Thu May  6 15:48:47 2021.
