 Gaussian 16, Revision A.03,
 Gaussian 16:  EM64L-G16RevA.03 25-Dec-2016

 -------------
 #p 6-31g* mp2
 -------------

 ------------------------------------------------------
 Input file generated by CHIRIPA (05-May-2021 14:51:08)
 ------------------------------------------------------
 Symbolic Z-matrix:
 Charge =  0 Multiplicity = 1

                         Standard orientation:
 ---------------------------------------------------------------------
 Center     Atomic      Atomic             Coordinates (Angstroms)
 Number     Number       Type             X           Y           Z
 ---------------------------------------------------------------------
      1          6           0        4.729206    0.087053   -0.309922
      2          6           0        5.538029    1.171390    0.402822
      3          6           0        6.897539    1.420632   -0.250941
      4          1           0        5.308889   -0.846108   -0.321091
      5          1           0        4.584526    0.377728   -1.359669
      6          1           0        5.679956    0.879411    1.451260
      7          1           0        4.956274    2.102026    0.412465
      8          1           0        6.772419    1.736208   -1.291785
      9          1           0        7.500214    0.506647   -0.247088
     10          1           0        7.458968    2.199428    0.274544
     11          6           0        3.367647   -0.173513    0.331943
     12          6           0        2.558824   -1.257849   -0.380802
     13          6           0        1.199315   -1.507091    0.272962
     14          1           0        3.512328   -0.464188    1.381690
     15          1           0        2.787964    0.759648    0.343112
     16          1           0        3.140580   -2.188485   -0.390444
     17          1           0        2.416897   -0.965870   -1.429239
     18          1           0        0.596639   -0.593106    0.269109
     19          1           0        1.324434   -1.822668    1.313806
     20          1           0        0.637886   -2.285887   -0.252523
     21          6           0       -3.466652   -0.428952    0.137363
     22          6           0       -3.767436   -1.888298   -0.205888
     23          6           0       -2.593972   -2.820675    0.096520
     24          1           0       -2.581786   -0.101429   -0.425386
     25          1           0       -3.204478   -0.356490    1.201980
     26          1           0       -4.030310   -1.957780   -1.269225
     27          1           0       -4.651803   -2.212327    0.357598
     28          1           0       -2.334367   -2.780960    1.159361
     29          1           0       -1.709344   -2.524966   -0.476705
     30          1           0       -2.830636   -3.858900   -0.156341
     31          6           0       -4.630202    0.515411   -0.159384
     32          6           0       -4.329417    1.974758    0.183867
     33          6           0       -5.502881    2.907135   -0.118542
     34          1           0       -4.892375    0.442951   -1.224000
     35          1           0       -5.515068    0.187888    0.403365
     36          1           0       -3.445050    2.298787   -0.379619
     37          1           0       -4.066543    2.044240    1.247204
     38          1           0       -6.387510    2.611426    0.454685
     39          1           0       -5.762486    2.867419   -1.181381
     40          1           0       -5.266218    3.945360    0.134321
 ---------------------------------------------------------------------

 SCF Done:  E(RHF) =  -470.733065265     A.U. after   11 cycles
 E2 =    -0.1582480223D+01 EUMP2 =    -0.47231554548843D+03

 The electronic state is 1-A.
 Alpha  occ. eigenvalues --  -11.21595 -11.21591 -11.21578 -11.21549 -11.21393
 Alpha  occ. eigenvalues --  -11.21376 -11.21333 -11.21314 -11.21066 -11.21064
 Alpha  occ. eigenvalues --  -11.21014 -11.20958  -1.08419  -1.08395  -1.03529
 Alpha  occ. eigenvalues --   -1.03477  -0.96001  -0.95904  -0.87047  -0.86894
 Alpha  occ. eigenvalues --   -0.79650  -0.79488  -0.78243  -0.78193  -0.65057
 Alpha  occ. eigenvalues --   -0.65021  -0.60945  -0.60873  -0.59401  -0.59271
 Alpha  occ. eigenvalues --   -0.57659  -0.57472  -0.55276  -0.55208  -0.52847
 Alpha  occ. eigenvalues --   -0.52632  -0.52398  -0.52174  -0.49927  -0.49845
 Alpha  occ. eigenvalues --   -0.47912  -0.47839  -0.46652  -0.46550  -0.45809
 Alpha  occ. eigenvalues --   -0.45727  -0.45697  -0.45655  -0.43750  -0.43716
 Alpha virt. eigenvalues --    0.22094   0.23037   0.23597   0.24778   0.26238
 Alpha virt. eigenvalues --    0.26644   0.26978   0.27160   0.27780   0.29124
 Alpha virt. eigenvalues --    0.30025   0.31019   0.31703   0.31923   0.32025

 Mulliken charges:
               1
     1  C   -0.298214
     2  C   -0.299612
     3  C   -0.475688
     4  H    0.149645
     5  H    0.149397
     6  H    0.151931
     7  H    0.151908
     8  H    0.155136
     9  H    0.155176
    10  H    0.160228
    11  C   -0.298544
    12  C   -0.299704
    13  C   -0.479309
    14  H    0.149537
    15  H    0.149571
    16  H    0.151901
    17  H    0.151374
    18  H    0.155812
    19  H    0.155300
    20  H    0.164398
    21  C   -0.298810
    22  C   -0.299579
    23  C   -0.479963
    24  H    0.150112
    25  H    0.149754
    26  H    0.151409
    27  H    0.151604
    28  H    0.155682
    29  H    0.160794
    30  H    0.159173
    31  C   -0.298274
    32  C   -0.299580
    33  C   -0.475674
    34  H    0.149386
    35  H    0.149671
    36  H    0.151587
    37  H    0.151961
    38  H    0.155214
    39  H    0.155138
    40  H    0.160151
 Sum of Mulliken charges =  -0.00000

 Dipole moment (field-independent basis, Debye):
    X=              0.0099    Y=             -0.0111    Z=              0.0098  Tot=              0.0178
 Quadrupole moment (field-independent basis, Debye-Ang):
   XX=            -86.2470   YY=            -85.0166   ZZ=            -83.6660
   XY=              0.0114   XZ=              0.1465   YZ=             -0.3579

 Normal termination of Gaussian 16 at Thu May  6 14:52:15 2021.
