 Gaussian 16, Revision A.03,
 Gaussian 16:  EM64L-G16RevA.03 25-Dec-2016

 -------------
 #p 6-31g* mp2
 -------------

 ------------------------------------------------------
 Input file generated by CHIRIPA (05-May-2021 14:51:12)
 ------------------------------------------------------
 Symbolic Z-matrix:
 Charge =  0 Multiplicity = 1

                         Standard orientation:
 ---------------------------------------------------------------------
 Center     Atomic      Atomic             Coordinates (Angstroms)
 Number     Number       Type             X           Y           Z
 ---------------------------------------------------------------------
      1          6           0        2.264768    1.072322    0.326813
      2          6           0        2.271622    2.585533    0.107429
      3          6           0        1.261431    3.315817    0.992863
      4          1           0        1.255713    0.684424    0.131136
      5          1           0        2.481476    0.860994    1.383114
      6          1           0        2.056331    2.793894   -0.948436
      7          1           0        3.280824    2.969847    0.303465
      8          1           0        1.477006    3.137295    2.051286
      9          1           0        0.245556    2.960343    0.792271
     10          1           0        1.283154    4.396290    0.819757
     11          6           0        3.269373    0.328321   -0.551230
     12          6           0        3.262519   -1.184890   -0.331846
     13          6           0        4.272710   -1.915174   -1.217281
     14          1           0        3.052665    0.539648   -1.607532
     15          1           0        4.278427    0.716219   -0.355553
     16          1           0        2.253316   -1.569204   -0.527883
     17          1           0        3.477809   -1.393251    0.724019
     18          1           0        5.288585   -1.559700   -1.016688
     19          1           0        4.057134   -1.736652   -2.275703
     20          1           0        4.250987   -2.995647   -1.044175
     21          6           0       -2.449428   -1.071057    0.699652
     22          6           0       -1.121925   -1.742606    0.346460
     23          6           0       -0.498770   -2.480245    1.531940
     24          1           0       -2.288109   -0.367170    1.527579
     25          1           0       -3.150661   -1.832285    1.068706
     26          1           0       -0.423861   -0.980549   -0.023122
     27          1           0       -1.286387   -2.444836   -0.480850
     28          1           0       -1.173605   -3.260840    1.897825
     29          1           0       -0.306178   -1.788234    2.358154
     30          1           0        0.449393   -2.952882    1.257237
     31          6           0       -3.084713   -0.329585   -0.475235
     32          6           0       -4.412215    0.341963   -0.122043
     33          6           0       -5.035371    1.079602   -1.307522
     34          1           0       -2.383480    0.431643   -0.844288
     35          1           0       -3.246032   -1.033472   -1.303162
     36          1           0       -4.247755    1.044193    0.705267
     37          1           0       -5.110280   -0.420093    0.247539
     38          1           0       -5.227963    0.387590   -2.133736
     39          1           0       -4.360537    1.860197   -1.673408
     40          1           0       -5.983534    1.552239   -1.032820
 ---------------------------------------------------------------------

 SCF Done:  E(RHF) =  -470.733155328     A.U. after   11 cycles
 E2 =    -0.1583755833D+01 EUMP2 =    -0.47231691116030D+03

 The electronic state is 1-A.
 Alpha  occ. eigenvalues --  -11.21643 -11.21619 -11.21597 -11.21595 -11.21431
 Alpha  occ. eigenvalues --  -11.21428 -11.21371 -11.21365 -11.21128 -11.21086
 Alpha  occ. eigenvalues --  -11.21076 -11.21033  -1.08482  -1.08426  -1.03562
 Alpha  occ. eigenvalues --   -1.03530  -0.96010  -0.95980  -0.87032  -0.86989
 Alpha  occ. eigenvalues --   -0.79628  -0.79602  -0.78368  -0.78176  -0.65246
 Alpha  occ. eigenvalues --   -0.64946  -0.60957  -0.60940  -0.59442  -0.59288
 Alpha  occ. eigenvalues --   -0.57629  -0.57584  -0.55331  -0.55240  -0.52717
 Alpha  occ. eigenvalues --   -0.52658  -0.52470  -0.52371  -0.49991  -0.49893
 Alpha  occ. eigenvalues --   -0.48003  -0.47870  -0.46803  -0.46646  -0.46076
 Alpha  occ. eigenvalues --   -0.45776  -0.45769  -0.45225  -0.43811  -0.43787
 Alpha virt. eigenvalues --    0.20362   0.22847   0.23738   0.24367   0.25625
 Alpha virt. eigenvalues --    0.26724   0.26996   0.27597   0.27822   0.29721
 Alpha virt. eigenvalues --    0.30530   0.31398   0.31687   0.31791   0.32199

 Mulliken charges:
               1
     1  C   -0.306263
     2  C   -0.299102
     3  C   -0.475608
     4  H    0.156612
     5  H    0.149733
     6  H    0.151883
     7  H    0.152280
     8  H    0.155339
     9  H    0.154175
    10  H    0.160578
    11  C   -0.297785
    12  C   -0.305037
    13  C   -0.475620
    14  H    0.149305
    15  H    0.149820
    16  H    0.157657
    17  H    0.152212
    18  H    0.155217
    19  H    0.155214
    20  H    0.160143
    21  C   -0.298074
    22  C   -0.308570
    23  C   -0.476832
    24  H    0.149967
    25  H    0.149779
    26  H    0.159197
    27  H    0.151664
    28  H    0.154834
    29  H    0.155621
    30  H    0.162317
    31  C   -0.298209
    32  C   -0.299699
    33  C   -0.475721
    34  H    0.148261
    35  H    0.149770
    36  H    0.152144
    37  H    0.152115
    38  H    0.155165
    39  H    0.155113
    40  H    0.160405
 Sum of Mulliken charges =  -0.00000

 Dipole moment (field-independent basis, Debye):
    X=              0.0123    Y=             -0.0030    Z=              0.0083  Tot=              0.0151
 Quadrupole moment (field-independent basis, Debye-Ang):
   XX=            -84.7953   YY=            -84.8344   ZZ=            -85.0825
   XY=              1.2996   XZ=              0.6204   YZ=              0.3632

 Normal termination of Gaussian 16 at Wed May  5 21:33:48 2021.
