 Gaussian 16, Revision A.03,
 Gaussian 16:  EM64L-G16RevA.03 25-Dec-2016

 -------------
 #p 6-31g* mp2
 -------------

 ------------------------------------------------------
 Input file generated by CHIRIPA (05-May-2021 14:55:24)
 ------------------------------------------------------
 Symbolic Z-matrix:
 Charge =  0 Multiplicity = 1

                         Standard orientation:
 ---------------------------------------------------------------------
 Center     Atomic      Atomic             Coordinates (Angstroms)
 Number     Number       Type             X           Y           Z
 ---------------------------------------------------------------------
      1          6           0        3.343996   -2.210584    1.131150
      2          6           0        2.096293   -1.621313    1.360320
      3          6           0        1.738254   -0.439283    0.705216
      4          6           0        2.656404    0.129007   -0.176451
      5          6           0        3.907043   -0.434027   -0.425820
      6          6           0        4.243802   -1.616108    0.240382
      7          1           0        3.613864   -3.128833    1.644361
      8          1           0        1.395489   -2.080771    2.051563
      9          1           0        0.778961    0.038150    0.864066
     10          1           0        4.584539    0.047375   -1.120564
     11          1           0        5.213480   -2.071517    0.060459
     12          7           0        2.288628    1.380396   -0.875854
     13          8           0        3.115333    1.861313   -1.647810
     14          8           0        1.180624    1.856624   -0.638848
     15          6           0       -3.428814    0.592154    0.659430
     16          6           0       -2.577950    1.821983    0.340787
     17          6           0       -2.489484    2.799509    1.513140
     18          1           0       -4.438757    0.916869    0.944951
     19          1           0       -3.006279    0.079321    1.534564
     20          1           0       -3.001163    2.331569   -0.534330
     21          1           0       -1.569971    1.494294    0.055806
     22          1           0       -2.046766    2.312649    2.388108
     23          1           0       -3.486088    3.154682    1.794620
     24          1           0       -1.876594    3.671263    1.263601
     25          6           0       -3.526751   -0.394427   -0.502807
     26          6           0       -4.377614   -1.624256   -0.184164
     27          6           0       -4.466081   -2.601781   -1.356517
     28          1           0       -3.949286    0.118407   -1.377942
     29          1           0       -2.516808   -0.719142   -0.788329
     30          1           0       -5.385593   -1.296566    0.100818
     31          1           0       -3.954402   -2.133842    0.690952
     32          1           0       -3.469476   -2.956955   -1.637997
     33          1           0       -4.908799   -2.114922   -2.231485
     34          1           0       -5.078970   -3.473536   -1.106978
 ---------------------------------------------------------------------

 SCF Done:  E(RHF) =  -669.535889778     A.U. after   15 cycles
 E2 =    -0.2091503740D+01 EUMP2 =    -0.67162739351794D+03

 The electronic state is 1-A.
 Alpha  occ. eigenvalues --  -20.60912 -20.60904 -15.85952 -11.31288 -11.27859
 Alpha  occ. eigenvalues --  -11.27848 -11.27590 -11.26865 -11.26855 -11.21546
 Alpha  occ. eigenvalues --  -11.21203 -11.21097 -11.21041 -11.20883 -11.20492
 Alpha  occ. eigenvalues --   -1.59977  -1.39533  -1.19458  -1.08858  -1.08162
 Alpha  occ. eigenvalues --   -1.04858  -1.03202  -0.95708  -0.95674  -0.86704
 Alpha  occ. eigenvalues --   -0.86258  -0.82535  -0.79277  -0.77954  -0.77562
 Alpha  occ. eigenvalues --   -0.72178  -0.71292  -0.70568  -0.65120  -0.64900
 Alpha  occ. eigenvalues --   -0.64773  -0.62211  -0.60605  -0.59049  -0.57253
 Alpha  occ. eigenvalues --   -0.55359  -0.55000  -0.53187  -0.52951  -0.52352
 Alpha  occ. eigenvalues --   -0.52099  -0.49664  -0.48951  -0.48924  -0.47572
 Alpha  occ. eigenvalues --   -0.46317  -0.45483  -0.45398  -0.44904  -0.43472
 Alpha  occ. eigenvalues --   -0.37436  -0.36460
 Alpha virt. eigenvalues --    0.04940   0.11187   0.16438   0.20173   0.22732
 Alpha virt. eigenvalues --    0.24177   0.26197   0.27482   0.27546   0.28270
 Alpha virt. eigenvalues --    0.29116   0.30596   0.31543   0.31939   0.32392

 Mulliken charges:
               1
     1  C   -0.170414
     2  C   -0.219725
     3  C   -0.171866
     4  C    0.157260
     5  C   -0.170590
     6  C   -0.218654
     7  H    0.226035
     8  H    0.224056
     9  H    0.279086
    10  H    0.275864
    11  H    0.223848
    12  N    0.492884
    13  O   -0.459250
    14  O   -0.465990
    15  C   -0.297830
    16  C   -0.311543
    17  C   -0.474409
    18  H    0.148935
    19  H    0.140767
    20  H    0.153855
    21  H    0.172591
    22  H    0.147481
    23  H    0.151589
    24  H    0.168250
    25  C   -0.297372
    26  C   -0.298778
    27  C   -0.475341
    28  H    0.152336
    29  H    0.147239
    30  H    0.152501
    31  H    0.147570
    32  H    0.153839
    33  H    0.156735
    34  H    0.159041
 Sum of Mulliken charges =  -0.00000

 Dipole moment (field-independent basis, Debye):
    X=              1.4540    Y=             -4.3052    Z=              2.3403  Tot=              5.1113
 Quadrupole moment (field-independent basis, Debye-Ang):
   XX=            -83.6237   YY=            -96.8499   ZZ=            -95.8636
   XY=            -12.5094   XZ=              4.5562   YZ=              0.0322

 Normal termination of Gaussian 16 at Thu May  6 15:59:57 2021.
