 Gaussian 16, Revision A.03,
 Gaussian 16:  EM64L-G16RevA.03 25-Dec-2016

 -------------
 #p 6-31g* mp2
 -------------

 ------------------------------------------------------
 Input file generated by CHIRIPA (05-May-2021 14:53:18)
 ------------------------------------------------------
 Symbolic Z-matrix:
 Charge =  0 Multiplicity = 1

                         Standard orientation:
 ---------------------------------------------------------------------
 Center     Atomic      Atomic             Coordinates (Angstroms)
 Number     Number       Type             X           Y           Z
 ---------------------------------------------------------------------
      1          6           0        2.881273    0.588037   -0.154963
      2          6           0        3.339795    1.920077   -0.749447
      3          6           0        2.278707    3.014974   -0.635036
      4          1           0        1.962170    0.264356   -0.662334
      5          1           0        2.619151    0.736922    0.901693
      6          1           0        3.602291    1.768433   -1.804300
      7          1           0        4.258019    2.240529   -0.240732
      8          1           0        2.022755    3.195269    0.414050
      9          1           0        1.363301    2.720491   -1.158402
     10          1           0        2.627397    3.958580   -1.066177
     11          6           0        3.931215   -0.516470   -0.261797
     12          6           0        3.472693   -1.848511    0.332687
     13          6           0        4.533780   -2.943407    0.218277
     14          1           0        4.193337   -0.665355   -1.318452
     15          1           0        4.850318   -0.192790    0.245575
     16          1           0        2.554469   -2.168963   -0.176027
     17          1           0        3.210197   -1.696867    1.387541
     18          1           0        5.449187   -2.648924    0.741642
     19          1           0        4.789733   -3.123703   -0.830810
     20          1           0        4.185091   -3.887013    0.649418
     21          6           0       -1.264029    0.865665    2.064238
     22          6           0       -2.473452    0.215052    2.329789
     23          6           0       -3.255708   -0.284081    1.284089
     24          6           0       -2.796194   -0.114348   -0.021028
     25          6           0       -1.595793    0.529276   -0.317801
     26          6           0       -0.829824    1.020429    0.743619
     27          1           0       -0.662681    1.250304    2.882669
     28          1           0       -2.813150    0.093422    3.354415
     29          1           0       -4.196042   -0.791822    1.461260
     30          1           0       -1.283386    0.635379   -1.349577
     31          1           0        0.109006    1.525279    0.534410
     32          7           0       -3.615712   -0.638533   -1.136384
     33          8           0       -3.188743   -0.476212   -2.277431
     34          8           0       -4.669501   -1.201783   -0.848436
 ---------------------------------------------------------------------

 SCF Done:  E(RHF) =  -669.534456186     A.U. after   15 cycles
 E2 =    -0.2093120237D+01 EUMP2 =    -0.67162757642334D+03

 The electronic state is 1-A.
 Alpha  occ. eigenvalues --  -20.60698 -20.60692 -15.85747 -11.31086 -11.27636
 Alpha  occ. eigenvalues --  -11.27617 -11.27346 -11.26666 -11.26491 -11.22532
 Alpha  occ. eigenvalues --  -11.22342 -11.22275 -11.22101 -11.22020 -11.21443
 Alpha  occ. eigenvalues --   -1.59773  -1.39327  -1.19237  -1.09238  -1.08636
 Alpha  occ. eigenvalues --   -1.04644  -1.04291  -0.96776  -0.95485  -0.87793
 Alpha  occ. eigenvalues --   -0.86041  -0.82336  -0.80390  -0.79055  -0.77340
 Alpha  occ. eigenvalues --   -0.71967  -0.71095  -0.70358  -0.65858  -0.64882
 Alpha  occ. eigenvalues --   -0.64663  -0.62063  -0.61669  -0.60105  -0.58385
 Alpha  occ. eigenvalues --   -0.56079  -0.55139  -0.53436  -0.53297  -0.52932
 Alpha  occ. eigenvalues --   -0.52709  -0.50721  -0.48794  -0.48725  -0.48545
 Alpha  occ. eigenvalues --   -0.47412  -0.46490  -0.46451  -0.44740  -0.44540
 Alpha  occ. eigenvalues --   -0.37215  -0.36211
 Alpha virt. eigenvalues --    0.05133   0.11390   0.16580   0.19893   0.22545
 Alpha virt. eigenvalues --    0.23864   0.24446   0.26155   0.27009   0.28154
 Alpha virt. eigenvalues --    0.29559   0.30493   0.30542   0.31447   0.32148

 Mulliken charges:
               1
     1  C   -0.304188
     2  C   -0.298202
     3  C   -0.484781
     4  H    0.149424
     5  H    0.143937
     6  H    0.157429
     7  H    0.155580
     8  H    0.150640
     9  H    0.152328
    10  H    0.170214
    11  C   -0.298332
    12  C   -0.300402
    13  C   -0.476335
    14  H    0.153017
    15  H    0.151072
    16  H    0.155252
    17  H    0.150373
    18  H    0.155193
    19  H    0.157073
    20  H    0.162322
    21  C   -0.175731
    22  C   -0.218039
    23  C   -0.171943
    24  C    0.159240
    25  C   -0.178050
    26  C   -0.223672
    27  H    0.224725
    28  H    0.222736
    29  H    0.275024
    30  H    0.273924
    31  H    0.243809
    32  N    0.488119
    33  O   -0.460985
    34  O   -0.460770
 Sum of Mulliken charges =  -0.00000

 Dipole moment (field-independent basis, Debye):
    X=              3.1630    Y=              1.8370    Z=              3.8572  Tot=              5.3158
 Quadrupole moment (field-independent basis, Debye-Ang):
   XX=           -108.6603   YY=            -95.6835   ZZ=            -92.3129
   XY=             -3.4300   XZ=            -13.6359   YZ=             -1.6242

 Normal termination of Gaussian 16 at Wed May  5 17:17:30 2021.
