 Gaussian 16, Revision A.03,
 Gaussian 16:  EM64L-G16RevA.03 25-Dec-2016

 -------------
 #p 6-31g* mp2
 -------------

 ------------------------------------------------------
 Input file generated by CHIRIPA (05-May-2021 14:55:19)
 ------------------------------------------------------
 Symbolic Z-matrix:
 Charge =  0 Multiplicity = 1

                         Standard orientation:
 ---------------------------------------------------------------------
 Center     Atomic      Atomic             Coordinates (Angstroms)
 Number     Number       Type             X           Y           Z
 ---------------------------------------------------------------------
      1          6           0       -4.425990    1.448088    0.191935
      2          6           0       -4.187847    0.815561   -1.032694
      3          6           0       -3.184899   -0.151433   -1.149167
      4          6           0       -2.435695   -0.462916   -0.015606
      5          6           0       -2.648910    0.149679    1.218313
      6          6           0       -3.657117    1.113718    1.311557
      7          1           0       -5.207147    2.198125    0.273392
      8          1           0       -4.783406    1.073234   -1.903877
      9          1           0       -2.979313   -0.656652   -2.085066
     10          1           0       -2.038813   -0.128289    2.069156
     11          1           0       -3.839838    1.603319    2.263895
     12          7           0       -1.371134   -1.485065   -0.126614
     13          8           0       -0.724943   -1.741662    0.886910
     14          8           0       -1.203082   -2.010275   -1.225045
     15          6           0        2.980262    1.039736    0.110720
     16          6           0        3.763109    2.252783   -0.392916
     17          6           0        3.025925    3.571453   -0.157417
     18          1           0        2.002390    1.009119   -0.389054
     19          1           0        2.779047    1.161783    1.184039
     20          1           0        3.963988    2.127831   -1.464668
     21          1           0        4.739308    2.280407    0.107973
     22          1           0        2.838768    3.722765    0.910609
     23          1           0        2.059042    3.569322   -0.670968
     24          1           0        3.603412    4.425426   -0.524973
     25          6           0        3.704274   -0.285934   -0.117606
     26          6           0        2.921426   -1.498982    0.386031
     27          6           0        3.658611   -2.817652    0.150530
     28          1           0        3.905488   -0.407983   -1.190925
     29          1           0        4.682146   -0.255318    0.382168
     30          1           0        1.945228   -1.526606   -0.114858
     31          1           0        2.720548   -1.374030    1.457782
     32          1           0        4.625494   -2.815521    0.664082
     33          1           0        3.845769   -2.968964   -0.917495
     34          1           0        3.081124   -3.671626    0.518087
 ---------------------------------------------------------------------

 SCF Done:  E(RHF) =  -669.536171239     A.U. after   15 cycles
 E2 =    -0.2091497618D+01 EUMP2 =    -0.67162766885737D+03

 The electronic state is 1-A.
 Alpha  occ. eigenvalues --  -20.60982 -20.60959 -15.85990 -11.31306 -11.27867
 Alpha  occ. eigenvalues --  -11.27861 -11.27601 -11.26869 -11.26859 -11.21096
 Alpha  occ. eigenvalues --  -11.20761 -11.20675 -11.20365 -11.20026 -11.19745
 Alpha  occ. eigenvalues --   -1.60029  -1.39583  -1.19472  -1.08878  -1.07547
 Alpha  occ. eigenvalues --   -1.04865  -1.02592  -0.95720  -0.95111  -0.86266
 Alpha  occ. eigenvalues --   -0.86139  -0.82554  -0.78713  -0.77610  -0.77254
 Alpha  occ. eigenvalues --   -0.72200  -0.71345  -0.70579  -0.65125  -0.64868
 Alpha  occ. eigenvalues --   -0.64189  -0.62212  -0.59993  -0.58523  -0.56665
 Alpha  occ. eigenvalues --   -0.55370  -0.54430  -0.53198  -0.52956  -0.51812
 Alpha  occ. eigenvalues --   -0.51528  -0.49146  -0.48973  -0.48967  -0.46998
 Alpha  occ. eigenvalues --   -0.45763  -0.45150  -0.44744  -0.44516  -0.42863
 Alpha  occ. eigenvalues --   -0.37448  -0.36465
 Alpha virt. eigenvalues --    0.04890   0.11191   0.16394   0.21327   0.23620
 Alpha virt. eigenvalues --    0.25256   0.27245   0.27455   0.28064   0.28485
 Alpha virt. eigenvalues --    0.28815   0.30911   0.32247   0.32412   0.32590

 Mulliken charges:
               1
     1  C   -0.170472
     2  C   -0.218614
     3  C   -0.170967
     4  C    0.158940
     5  C   -0.170392
     6  C   -0.218532
     7  H    0.226103
     8  H    0.223848
     9  H    0.275749
    10  H    0.276059
    11  H    0.223969
    12  N    0.487285
    13  O   -0.457663
    14  O   -0.460747
    15  C   -0.295716
    16  C   -0.298792
    17  C   -0.474886
    18  H    0.147246
    19  H    0.147484
    20  H    0.151367
    21  H    0.151052
    22  H    0.153236
    23  H    0.152859
    24  H    0.158334
    25  C   -0.298718
    26  C   -0.301899
    27  C   -0.475440
    28  H    0.147260
    29  H    0.144910
    30  H    0.172772
    31  H    0.149884
    32  H    0.147504
    33  H    0.152132
    34  H    0.164845
 Sum of Mulliken charges =  -0.00000

 Dipole moment (field-independent basis, Debye):
    X=             -4.0466    Y=              3.4737    Z=              0.4093  Tot=              5.3488
 Quadrupole moment (field-independent basis, Debye-Ang):
   XX=            -77.8610   YY=           -100.1453   ZZ=            -89.3093
   XY=             -6.8334   XZ=              0.7464   YZ=              0.4679

 Normal termination of Gaussian 16 at Thu May  6 20:37:32 2021.
