 Gaussian 16, Revision A.03,
 Gaussian 16:  EM64L-G16RevA.03 25-Dec-2016

 -------------
 #p 6-31g* mp2
 -------------

 ------------------------------------------------------
 Input file generated by CHIRIPA (05-May-2021 14:53:12)
 ------------------------------------------------------
 Symbolic Z-matrix:
 Charge =  0 Multiplicity = 1

                         Standard orientation:
 ---------------------------------------------------------------------
 Center     Atomic      Atomic             Coordinates (Angstroms)
 Number     Number       Type             X           Y           Z
 ---------------------------------------------------------------------
      1          6           0        3.602396   -0.277057   -0.491730
      2          6           0        2.298062   -0.486385    0.278256
      3          6           0        1.063484   -0.420927   -0.621370
      4          1           0        3.568529    0.696305   -1.000027
      5          1           0        3.681067   -1.038674   -1.279857
      6          1           0        2.222536    0.274551    1.065586
      7          1           0        2.335116   -1.459277    0.784935
      8          1           0        1.112053   -1.190301   -1.398741
      9          1           0        0.998834    0.553379   -1.116496
     10          1           0        0.142202   -0.573157   -0.050472
     11          6           0        4.845499   -0.339709    0.393988
     12          6           0        6.149833   -0.130381   -0.375999
     13          6           0        7.384410   -0.195839    0.523628
     14          1           0        4.766827    0.421908    1.182115
     15          1           0        4.879366   -1.313071    0.902285
     16          1           0        6.112778    0.842511   -0.882678
     17          1           0        6.225358   -0.891317   -1.163329
     18          1           0        7.449061   -1.170145    1.018753
     19          1           0        7.335841    0.573535    1.300999
     20          1           0        8.305693   -0.043609   -0.047271
     21          6           0       -1.544753    2.048463   -0.095903
     22          6           0       -2.058301    1.662202    1.146510
     23          6           0       -3.031098    0.661812    1.232747
     24          6           0       -3.469646    0.066178    0.051143
     25          6           0       -2.977399    0.429090   -1.201565
     26          6           0       -2.005128    1.431762   -1.263916
     27          1           0       -0.789265    2.826476   -0.153617
     28          1           0       -1.702630    2.139401    2.055258
     29          1           0       -3.445801    0.343431    2.181468
     30          1           0       -3.351575   -0.064929   -2.090022
     31          1           0       -1.608096    1.729710   -2.230165
     32          7           0       -4.499224   -0.994098    0.129795
     33          8           0       -4.869016   -1.503383   -0.925913
     34          8           0       -4.916919   -1.295779    1.245660
 ---------------------------------------------------------------------

 SCF Done:  E(RHF) =  -669.534337029     A.U. after   15 cycles
 E2 =    -0.2092724803D+01 EUMP2 =    -0.67162706183161D+03

 The electronic state is 1-A.
 Alpha  occ. eigenvalues --  -20.60770 -20.60764 -15.85825 -11.31200 -11.27785
 Alpha  occ. eigenvalues --  -11.27746 -11.27481 -11.26777 -11.26731 -11.21982
 Alpha  occ. eigenvalues --  -11.21913 -11.21781 -11.21704 -11.21368 -11.21341
 Alpha  occ. eigenvalues --   -1.59846  -1.39399  -1.19375  -1.08810  -1.08744
 Alpha  occ. eigenvalues --   -1.04773  -1.03866  -0.96316  -0.95594  -0.87334
 Alpha  occ. eigenvalues --   -0.86166  -0.82426  -0.79937  -0.78605  -0.77474
 Alpha  occ. eigenvalues --   -0.72042  -0.71171  -0.70480  -0.65429  -0.65019
 Alpha  occ. eigenvalues --   -0.64773  -0.62119  -0.61283  -0.59701  -0.57928
 Alpha  occ. eigenvalues --   -0.55663  -0.55267  -0.53617  -0.52867  -0.52744
 Alpha  occ. eigenvalues --   -0.52416  -0.50249  -0.48802  -0.48796  -0.48250
 Alpha  occ. eigenvalues --   -0.46985  -0.46146  -0.46078  -0.44803  -0.44102
 Alpha  occ. eigenvalues --   -0.37262  -0.36356
 Alpha virt. eigenvalues --    0.05044   0.11222   0.16508   0.20933   0.22608
 Alpha virt. eigenvalues --    0.24060   0.26173   0.26670   0.27304   0.27773
 Alpha virt. eigenvalues --    0.28451   0.30941   0.31193   0.31419   0.31615

 Mulliken charges:
               1
     1  C   -0.297941
     2  C   -0.300326
     3  C   -0.474284
     4  H    0.146240
     5  H    0.151074
     6  H    0.147243
     7  H    0.154669
     8  H    0.155328
     9  H    0.144037
    10  H    0.168552
    11  C   -0.298200
    12  C   -0.299717
    13  C   -0.475823
    14  H    0.148221
    15  H    0.151201
    16  H    0.150931
    17  H    0.152813
    18  H    0.156109
    19  H    0.154816
    20  H    0.160937
    21  C   -0.166970
    22  C   -0.219826
    23  C   -0.171881
    24  C    0.157995
    25  C   -0.171796
    26  C   -0.213993
    27  H    0.224994
    28  H    0.223407
    29  H    0.275746
    30  H    0.275732
    31  H    0.223381
    32  N    0.488140
    33  O   -0.460265
    34  O   -0.460544
 Sum of Mulliken charges =  -0.00000

 Dipole moment (field-independent basis, Debye):
    X=              3.6181    Y=              3.7060    Z=             -0.2774  Tot=              5.1868
 Quadrupole moment (field-independent basis, Debye-Ang):
   XX=           -121.7437   YY=            -93.8915   ZZ=            -90.1224
   XY=            -13.0107   XZ=              0.5843   YZ=              0.9020

 Normal termination of Gaussian 16 at Thu May  6 12:01:15 2021.
