 Gaussian 16, Revision A.03,
 Gaussian 16:  EM64L-G16RevA.03 25-Dec-2016

 -------------
 #p 6-31g* mp2
 -------------

 ------------------------------------------------------
 Input file generated by CHIRIPA (05-May-2021 14:55:20)
 ------------------------------------------------------
 Symbolic Z-matrix:
 Charge =  0 Multiplicity = 1

                         Standard orientation:
 ---------------------------------------------------------------------
 Center     Atomic      Atomic             Coordinates (Angstroms)
 Number     Number       Type             X           Y           Z
 ---------------------------------------------------------------------
      1          6           0        3.201504    0.592622   -1.859325
      2          6           0        3.636746    0.817869   -0.549230
      3          6           0        2.994922    0.200126    0.528269
      4          6           0        1.916256   -0.640585    0.258132
      5          6           0        1.459079   -0.884972   -1.035914
      6          6           0        2.115973   -0.256582   -2.098065
      7          1           0        3.705942    1.076635   -2.690391
      8          1           0        4.479518    1.476875   -0.360837
      9          1           0        3.311107    0.356886    1.552413
     10          1           0        0.616161   -1.547137   -1.192260
     11          1           0        1.775782   -0.433358   -3.114463
     12          7           0        1.228808   -1.300198    1.390708
     13          8           0        0.280868   -2.036446    1.126162
     14          8           0        1.650945   -1.068464    2.521521
     15          6           0       -1.995849    1.150712   -0.106652
     16          6           0       -2.228026    2.458234    0.651282
     17          6           0       -1.014734    3.387836    0.611863
     18          1           0       -1.124097    0.636466    0.320600
     19          1           0       -1.742493    1.380358   -1.150907
     20          1           0       -2.482225    2.226143    1.693459
     21          1           0       -3.099443    2.969334    0.222301
     22          1           0       -0.762440    3.648370   -0.421129
     23          1           0       -0.141715    2.900957    1.058388
     24          1           0       -1.202522    4.316484    1.159776
     25          6           0       -3.199813    0.210883   -0.076311
     26          6           0       -2.967636   -1.096638   -0.834246
     27          6           0       -4.180929   -2.026241   -0.794826
     28          1           0       -3.453169   -0.018763    0.967944
     29          1           0       -4.071566    0.725130   -0.503563
     30          1           0       -2.096219   -1.607739   -0.405264
     31          1           0       -2.713437   -0.864547   -1.876423
     32          1           0       -5.053947   -1.539361   -1.241352
     33          1           0       -4.433223   -2.286775    0.238166
     34          1           0       -3.993141   -2.954889   -1.342739
 ---------------------------------------------------------------------

 SCF Done:  E(RHF) =  -669.536265271     A.U. after   15 cycles
 E2 =    -0.2093622876D+01 EUMP2 =    -0.67162988814726D+03

 The electronic state is 1-A.
 Alpha  occ. eigenvalues --  -20.61006 -20.61000 -15.86018 -11.31266 -11.27838
 Alpha  occ. eigenvalues --  -11.27810 -11.27558 -11.26822 -11.26805 -11.21337
 Alpha  occ. eigenvalues --  -11.21075 -11.21054 -11.20938 -11.20910 -11.20593
 Alpha  occ. eigenvalues --   -1.60059  -1.39617  -1.19435  -1.08855  -1.08050
 Alpha  occ. eigenvalues --   -1.04818  -1.03166  -0.95707  -0.95634  -0.86653
 Alpha  occ. eigenvalues --   -0.86227  -0.82544  -0.79251  -0.77947  -0.77547
 Alpha  occ. eigenvalues --   -0.72249  -0.71377  -0.70545  -0.65106  -0.64834
 Alpha  occ. eigenvalues --   -0.64630  -0.62170  -0.60543  -0.59013  -0.57253
 Alpha  occ. eigenvalues --   -0.55333  -0.54917  -0.53163  -0.52916  -0.52335
 Alpha  occ. eigenvalues --   -0.52068  -0.49574  -0.49035  -0.48992  -0.47564
 Alpha  occ. eigenvalues --   -0.46252  -0.45636  -0.45387  -0.44686  -0.43421
 Alpha  occ. eigenvalues --   -0.37395  -0.36395
 Alpha virt. eigenvalues --    0.04888   0.11183   0.16365   0.21097   0.23219
 Alpha virt. eigenvalues --    0.24471   0.26031   0.26918   0.27681   0.28277
 Alpha virt. eigenvalues --    0.28794   0.30679   0.31460   0.31808   0.32340

 Mulliken charges:
               1
     1  C   -0.170001
     2  C   -0.218414
     3  C   -0.171261
     4  C    0.155851
     5  C   -0.169086
     6  C   -0.219356
     7  H    0.225972
     8  H    0.223812
     9  H    0.275615
    10  H    0.279004
    11  H    0.224052
    12  N    0.490869
    13  O   -0.462384
    14  O   -0.458287
    15  C   -0.300018
    16  C   -0.299844
    17  C   -0.475070
    18  H    0.151188
    19  H    0.143067
    20  H    0.155832
    21  H    0.150540
    22  H    0.151653
    23  H    0.154604
    24  H    0.159637
    25  C   -0.295795
    26  C   -0.314778
    27  C   -0.474461
    28  H    0.155055
    29  H    0.146314
    30  H    0.175696
    31  H    0.140863
    32  H    0.151738
    33  H    0.159421
    34  H    0.157973
 Sum of Mulliken charges =  -0.00000

 Dipole moment (field-independent basis, Debye):
    X=              2.5486    Y=              2.2145    Z=             -3.8435  Tot=              5.1158
 Quadrupole moment (field-independent basis, Debye-Ang):
   XX=            -84.5662   YY=            -98.0168   ZZ=            -94.4687
   XY=              4.0045   XZ=             -5.1257   YZ=              4.2809

 Normal termination of Gaussian 16 at Thu May  6 19:08:54 2021.
