 Gaussian 16, Revision A.03,
 Gaussian 16:  EM64L-G16RevA.03 25-Dec-2016

 -------------
 #p 6-31g* mp2
 -------------

 ------------------------------------------------------
 Input file generated by CHIRIPA (05-May-2021 14:55:19)
 ------------------------------------------------------
 Symbolic Z-matrix:
 Charge =  0 Multiplicity = 1

                         Standard orientation:
 ---------------------------------------------------------------------
 Center     Atomic      Atomic             Coordinates (Angstroms)
 Number     Number       Type             X           Y           Z
 ---------------------------------------------------------------------
      1          6           0       -2.689067    2.502860    0.311375
      2          6           0       -2.813596    1.891933   -0.940736
      3          6           0       -2.958467    0.505163   -1.042865
      4          6           0       -2.974778   -0.243557    0.132908
      5          6           0       -2.852932    0.335770    1.394980
      6          6           0       -2.709097    1.724201    1.473188
      7          1           0       -2.576930    3.580782    0.381420
      8          1           0       -2.798378    2.494145   -1.844702
      9          1           0       -3.056837    0.006302   -1.999358
     10          1           0       -2.871655   -0.290934    2.278331
     11          1           0       -2.612592    2.195940    2.446941
     12          7           0       -3.127598   -1.712548    0.037451
     13          8           0       -3.138969   -2.349893    1.088307
     14          8           0       -3.233113   -2.198782   -1.086417
     15          6           0        3.073429   -0.291294   -0.258267
     16          6           0        2.047443    0.709446   -0.791049
     17          6           0        0.647718    0.108165   -0.921543
     18          1           0        3.107883   -1.162424   -0.926766
     19          1           0        2.739732   -0.661727    0.720926
     20          1           0        2.383668    1.078923   -1.768318
     21          1           0        2.015566    1.578381   -0.121308
     22          1           0        0.287586   -0.244048    0.050491
     23          1           0        0.657780   -0.746345   -1.605877
     24          1           0       -0.069843    0.840724   -1.304066
     25          6           0        4.477525    0.295005   -0.122252
     26          6           0        5.503512   -0.705734    0.410529
     27          6           0        6.903236   -0.104454    0.541023
     28          1           0        4.811222    0.665439   -1.101446
     29          1           0        4.443071    1.166135    0.546246
     30          1           0        5.535388   -1.574669   -0.259213
     31          1           0        5.167286   -1.075211    1.387798
     32          1           0        6.893174    0.750056    1.225358
     33          1           0        7.263368    0.247759   -0.431011
     34          1           0        7.620797   -0.837012    0.923546
 ---------------------------------------------------------------------

 SCF Done:  E(RHF) =  -669.534435728     A.U. after   15 cycles
 E2 =    -0.2093182102D+01 EUMP2 =    -0.67162761783048D+03

 The electronic state is 1-A.
 Alpha  occ. eigenvalues --  -20.60757 -20.60751 -15.85811 -11.31176 -11.27788
 Alpha  occ. eigenvalues --  -11.27754 -11.27540 -11.26804 -11.26775 -11.21613
 Alpha  occ. eigenvalues --  -11.21578 -11.21393 -11.21317 -11.21073 -11.20912
 Alpha  occ. eigenvalues --   -1.59831  -1.39385  -1.19385  -1.08772  -1.08414
 Alpha  occ. eigenvalues --   -1.04803  -1.03508  -0.95958  -0.95599  -0.86977
 Alpha  occ. eigenvalues --   -0.86189  -0.82439  -0.79586  -0.78229  -0.77478
 Alpha  occ. eigenvalues --   -0.72033  -0.71151  -0.70494  -0.65048  -0.65039
 Alpha  occ. eigenvalues --   -0.64799  -0.62142  -0.60914  -0.59380  -0.57586
 Alpha  occ. eigenvalues --   -0.55296  -0.55276  -0.53559  -0.52887  -0.52383
 Alpha  occ. eigenvalues --   -0.52164  -0.49859  -0.48792  -0.48784  -0.47902
 Alpha  occ. eigenvalues --   -0.46609  -0.45769  -0.45698  -0.44789  -0.43769
 Alpha  occ. eigenvalues --   -0.37341  -0.36303
 Alpha virt. eigenvalues --    0.05059   0.11185   0.16492   0.21356   0.22881
 Alpha virt. eigenvalues --    0.24346   0.26649   0.27152   0.27457   0.27992
 Alpha virt. eigenvalues --    0.28377   0.30813   0.31333   0.31856   0.32360

 Mulliken charges:
               1
     1  C   -0.169612
     2  C   -0.220181
     3  C   -0.168644
     4  C    0.164466
     5  C   -0.172572
     6  C   -0.217916
     7  H    0.225782
     8  H    0.223658
     9  H    0.275992
    10  H    0.275663
    11  H    0.223444
    12  N    0.487778
    13  O   -0.460923
    14  O   -0.460314
    15  C   -0.298516
    16  C   -0.299337
    17  C   -0.480454
    18  H    0.151847
    19  H    0.150237
    20  H    0.149926
    21  H    0.148071
    22  H    0.155025
    23  H    0.158197
    24  H    0.159736
    25  C   -0.298017
    26  C   -0.299718
    27  C   -0.475640
    28  H    0.148923
    29  H    0.147819
    30  H    0.153089
    31  H    0.152331
    32  H    0.154274
    33  H    0.154915
    34  H    0.160668
 Sum of Mulliken charges =  -0.00000

 Dipole moment (field-independent basis, Debye):
    X=              0.4420    Y=              5.1458    Z=              0.3355  Tot=              5.1756
 Quadrupole moment (field-independent basis, Debye-Ang):
   XX=            -99.9871   YY=            -97.9375   ZZ=            -88.7936
   XY=            -16.2722   XZ=             -0.9991   YZ=              0.5189

 Normal termination of Gaussian 16 at Wed May  5 17:21:46 2021.
