 Gaussian 16, Revision A.03,
 Gaussian 16:  EM64L-G16RevA.03 25-Dec-2016

 -------------
 #p 6-31g* mp2
 -------------

 ------------------------------------------------------
 Input file generated by CHIRIPA (05-May-2021 14:51:14)
 ------------------------------------------------------
 Symbolic Z-matrix:
 Charge =  0 Multiplicity = 1

                         Standard orientation:
 ---------------------------------------------------------------------
 Center     Atomic      Atomic             Coordinates (Angstroms)
 Number     Number       Type             X           Y           Z
 ---------------------------------------------------------------------
      1          6           0        2.297216    1.146819   -0.421267
      2          6           0        2.302429    2.580964    0.109003
      3          6           0        1.617793    3.564740   -0.840340
      4          1           0        2.796677    1.122520   -1.399477
      5          1           0        1.258976    0.830371   -0.592478
      6          1           0        3.340284    2.894128    0.280471
      7          1           0        1.803068    2.601819    1.086151
      8          1           0        0.573416    3.279509   -1.003195
      9          1           0        2.119367    3.573479   -1.813453
     10          1           0        1.632925    4.583915   -0.441701
     11          6           0        2.978060    0.151633    0.516700
     12          6           0        2.972847   -1.282512   -0.013570
     13          6           0        3.657483   -2.266288    0.935773
     14          1           0        4.016300    0.468081    0.687911
     15          1           0        2.478600    0.175932    1.494910
     16          1           0        3.472209   -1.303367   -0.990718
     17          1           0        1.934992   -1.595676   -0.185038
     18          1           0        3.155909   -2.275027    1.908886
     19          1           0        4.701860   -1.981057    1.098628
     20          1           0        3.642351   -3.285463    0.537134
     21          6           0       -2.695683    0.111741   -0.016210
     22          6           0       -4.026377    0.594962    0.561490
     23          6           0       -4.127456    2.119553    0.618057
     24          1           0       -1.872480    0.512951    0.590676
     25          1           0       -2.570281    0.526175   -1.026117
     26          1           0       -4.149872    0.178619    1.569470
     27          1           0       -4.846516    0.192398   -0.046728
     28          1           0       -4.029965    2.549543   -0.384044
     29          1           0       -3.329363    2.535687    1.241338
     30          1           0       -5.086591    2.443143    1.034239
     31          6           0       -2.579593   -1.410192   -0.079223
     32          6           0       -1.248899   -1.893414   -0.656923
     33          6           0       -1.147820   -3.418005   -0.713490
     34          1           0       -2.704995   -1.824626    0.930684
     35          1           0       -3.402796   -1.811403   -0.686109
     36          1           0       -0.428760   -1.490850   -0.048705
     37          1           0       -1.125404   -1.477072   -1.664903
     38          1           0       -1.945913   -3.834139   -1.336770
     39          1           0       -1.245311   -3.847996    0.288611
     40          1           0       -0.188685   -3.741596   -1.129672
 ---------------------------------------------------------------------

 SCF Done:  E(RHF) =  -470.733281729     A.U. after   11 cycles
 E2 =    -0.1583549024D+01 EUMP2 =    -0.47231683075260D+03

 The electronic state is 1-A.
 Alpha  occ. eigenvalues --  -11.21667 -11.21657 -11.21576 -11.21544 -11.21480
 Alpha  occ. eigenvalues --  -11.21419 -11.21376 -11.21310 -11.21128 -11.21113
 Alpha  occ. eigenvalues --  -11.21053 -11.21037  -1.08507  -1.08397  -1.03600
 Alpha  occ. eigenvalues --   -1.03494  -0.96039  -0.95950  -0.87053  -0.86966
 Alpha  occ. eigenvalues --   -0.79697  -0.79538  -0.78389  -0.78142  -0.65232
 Alpha  occ. eigenvalues --   -0.64953  -0.61095  -0.60816  -0.59439  -0.59282
 Alpha  occ. eigenvalues --   -0.57666  -0.57542  -0.55332  -0.55230  -0.52733
 Alpha  occ. eigenvalues --   -0.52642  -0.52460  -0.52375  -0.50005  -0.49875
 Alpha  occ. eigenvalues --   -0.48064  -0.47842  -0.46866  -0.46478  -0.46154
 Alpha  occ. eigenvalues --   -0.45787  -0.45737  -0.45241  -0.43844  -0.43753
 Alpha virt. eigenvalues --    0.20415   0.22804   0.23542   0.24833   0.25520
 Alpha virt. eigenvalues --    0.26662   0.26936   0.27213   0.28212   0.29749
 Alpha virt. eigenvalues --    0.31066   0.31162   0.31550   0.31757   0.32406

 Mulliken charges:
               1
     1  C   -0.301995
     2  C   -0.299277
     3  C   -0.475992
     4  H    0.149534
     5  H    0.153172
     6  H    0.151809
     7  H    0.151295
     8  H    0.155920
     9  H    0.154997
    10  H    0.160087
    11  C   -0.297542
    12  C   -0.308731
    13  C   -0.475034
    14  H    0.149563
    15  H    0.148489
    16  H    0.151808
    17  H    0.161072
    18  H    0.154617
    19  H    0.155111
    20  H    0.160084
    21  C   -0.299314
    22  C   -0.299679
    23  C   -0.475844
    24  H    0.149463
    25  H    0.149746
    26  H    0.152078
    27  H    0.152300
    28  H    0.155364
    29  H    0.155179
    30  H    0.160550
    31  C   -0.297694
    32  C   -0.306167
    33  C   -0.476905
    34  H    0.149593
    35  H    0.150079
    36  H    0.157028
    37  H    0.152713
    38  H    0.155712
    39  H    0.155336
    40  H    0.161476
 Sum of Mulliken charges =  -0.00000

 Dipole moment (field-independent basis, Debye):
    X=             -0.0474    Y=             -0.0199    Z=             -0.0197  Tot=              0.0551
 Quadrupole moment (field-independent basis, Debye-Ang):
   XX=            -84.1047   YY=            -86.6158   ZZ=            -84.0171
   XY=              0.7897   XZ=             -0.3090   YZ=              0.3016

 Normal termination of Gaussian 16 at Wed May  5 20:01:38 2021.
