 Gaussian 16, Revision A.03,
 Gaussian 16:  EM64L-G16RevA.03 25-Dec-2016

 -------------
 #p 6-31g* mp2
 -------------

 ------------------------------------------------------
 Input file generated by CHIRIPA (05-May-2021 14:53:14)
 ------------------------------------------------------
 Symbolic Z-matrix:
 Charge =  0 Multiplicity = 1

                         Standard orientation:
 ---------------------------------------------------------------------
 Center     Atomic      Atomic             Coordinates (Angstroms)
 Number     Number       Type             X           Y           Z
 ---------------------------------------------------------------------
      1          6           0        4.654164   -0.000750    0.230909
      2          6           0        6.048811   -0.020370   -0.395637
      3          6           0        7.056865    0.829122    0.378950
      4          1           0        4.297417    1.036984    0.283681
      5          1           0        4.720009   -0.361690    1.266661
      6          1           0        5.980135    0.339193   -1.430342
      7          1           0        6.402199   -1.058196   -0.447099
      8          1           0        7.154880    0.468029    1.407836
      9          1           0        6.730418    1.873358    0.419006
     10          1           0        8.047118    0.800850   -0.086303
     11          6           0        3.635293   -0.845382   -0.532128
     12          6           0        2.240646   -0.825762    0.094418
     13          6           0        1.232591   -1.675253   -0.680169
     14          1           0        3.569447   -0.484442   -1.567880
     15          1           0        3.992039   -1.883116   -0.584901
     16          1           0        1.887257    0.212065    0.145880
     17          1           0        2.309321   -1.185324    1.129123
     18          1           0        1.559039   -2.719489   -0.720225
     19          1           0        1.134577   -1.314161   -1.709055
     20          1           0        0.242338   -1.646982   -0.214916
     21          6           0       -1.127240    1.695560    0.334439
     22          6           0       -2.206830    2.188676   -0.405724
     23          6           0       -3.381303    1.440968   -0.532575
     24          6           0       -3.442136    0.198553    0.096707
     25          6           0       -2.383586   -0.319975    0.840946
     26          6           0       -1.218902    0.445013    0.954319
     27          1           0       -0.218683    2.283109    0.427746
     28          1           0       -2.138464    3.159541   -0.888211
     29          1           0       -4.232150    1.798702   -1.099589
     30          1           0       -2.481454   -1.291227    1.310530
     31          1           0       -0.382057    0.059534    1.529769
     32          7           0       -4.680317   -0.602159   -0.030451
     33          8           0       -4.708821   -1.693818    0.533558
     34          8           0       -5.598853   -0.122936   -0.691717
 ---------------------------------------------------------------------

 SCF Done:  E(RHF) =  -669.534259621     A.U. after   15 cycles
 E2 =    -0.2093268038D+01 EUMP2 =    -0.67162752765850D+03

 The electronic state is 1-A.
 Alpha  occ. eigenvalues --  -20.60771 -20.60766 -15.85824 -11.31211 -11.27756
 Alpha  occ. eigenvalues --  -11.27750 -11.27493 -11.26799 -11.26743 -11.22522
 Alpha  occ. eigenvalues --  -11.22139 -11.22093 -11.22018 -11.21618 -11.21547
 Alpha  occ. eigenvalues --   -1.59846  -1.39399  -1.19379  -1.09122  -1.08765
 Alpha  occ. eigenvalues --   -1.04805  -1.04173  -0.96594  -0.95601  -0.87605
 Alpha  occ. eigenvalues --   -0.86178  -0.82438  -0.80278  -0.78942  -0.77482
 Alpha  occ. eigenvalues --   -0.72042  -0.71168  -0.70481  -0.65755  -0.65028
 Alpha  occ. eigenvalues --   -0.64820  -0.62208  -0.61567  -0.59950  -0.58227
 Alpha  occ. eigenvalues --   -0.55860  -0.55273  -0.53534  -0.53139  -0.52919
 Alpha  occ. eigenvalues --   -0.52604  -0.50517  -0.48806  -0.48797  -0.48579
 Alpha  occ. eigenvalues --   -0.47317  -0.46469  -0.46388  -0.44801  -0.44442
 Alpha  occ. eigenvalues --   -0.37338  -0.36312
 Alpha virt. eigenvalues --    0.05010   0.11203   0.16403   0.20186   0.22466
 Alpha virt. eigenvalues --    0.24073   0.25226   0.26017   0.26667   0.28163
 Alpha virt. eigenvalues --    0.28776   0.29955   0.31183   0.31394   0.32415

 Mulliken charges:
               1
     1  C   -0.298243
     2  C   -0.300166
     3  C   -0.475973
     4  H    0.146289
     5  H    0.149940
     6  H    0.152732
     7  H    0.153758
     8  H    0.155777
     9  H    0.154511
    10  H    0.162139
    11  C   -0.298155
    12  C   -0.303751
    13  C   -0.477364
    14  H    0.151553
    15  H    0.153260
    16  H    0.142380
    17  H    0.149366
    18  H    0.158075
    19  H    0.158524
    20  H    0.160712
    21  C   -0.173549
    22  C   -0.218383
    23  C   -0.171375
    24  C    0.159067
    25  C   -0.172812
    26  C   -0.216750
    27  H    0.225644
    28  H    0.223467
    29  H    0.275624
    30  H    0.275813
    31  H    0.230352
    32  N    0.488071
    33  O   -0.460217
    34  O   -0.460318
 Sum of Mulliken charges =  -0.00000

 Dipole moment (field-independent basis, Debye):
    X=              4.4493    Y=              2.7878    Z=              0.3874  Tot=              5.2648
 Quadrupole moment (field-independent basis, Debye-Ang):
   XX=           -124.6685   YY=            -90.9731   ZZ=            -93.5323
   XY=            -11.4418   XZ=             -0.1849   YZ=             -2.6782

 Normal termination of Gaussian 16 at Thu May  6 20:21:40 2021.
