 Gaussian 16, Revision A.03,
 Gaussian 16:  EM64L-G16RevA.03 25-Dec-2016

 -------------
 #p 6-31g* mp2
 -------------

 ------------------------------------------------------
 Input file generated by CHIRIPA (05-May-2021 14:57:25)
 ------------------------------------------------------
 Symbolic Z-matrix:
 Charge =  0 Multiplicity = 1

                         Standard orientation:
 ---------------------------------------------------------------------
 Center     Atomic      Atomic             Coordinates (Angstroms)
 Number     Number       Type             X           Y           Z
 ---------------------------------------------------------------------
      1          6           0       -2.466602    1.568723    0.713762
      2          6           0       -3.764778    1.779197    1.190167
      3          6           0       -4.803238    0.916908    0.826019
      4          6           0       -4.506643   -0.150627   -0.019966
      5          6           0       -3.223574   -0.386760   -0.511152
      6          6           0       -2.200612    0.488321   -0.133883
      7          1           0       -1.665921    2.243538    1.001737
      8          1           0       -3.974270    2.617429    1.848594
      9          1           0       -5.817361    1.056527    1.180249
     10          1           0       -3.045521   -1.231021   -1.166086
     11          1           0       -1.193388    0.322419   -0.505395
     12          7           0       -5.597811   -1.070265   -0.412419
     13          8           0       -5.310524   -2.003445   -1.158930
     14          8           0       -6.719694   -0.840484    0.033918
     15          6           0        2.727329    1.837283   -0.699338
     16          6           0        4.073584    1.915611   -1.070797
     17          6           0        4.968774    0.902908   -0.713561
     18          6           0        4.481437   -0.178653    0.018572
     19          6           0        3.145891   -0.285395    0.403554
     20          6           0        2.268587    0.738966    0.035357
     21          1           0        2.038871    2.628503   -0.981105
     22          1           0        4.432649    2.767403   -1.641383
     23          1           0        6.016083    0.938221   -0.987995
     24          1           0        2.817468   -1.146899    0.972209
     25          1           0        1.223601    0.675480    0.325214
     26          7           0        5.419667   -1.256927    0.402563
     27          8           0        4.965408   -2.199320    1.047686
     28          8           0        6.591545   -1.139269    0.051143
 ---------------------------------------------------------------------

 SCF Done:  E(RHF) =  -868.336409787     A.U. after   16 cycles
 E2 =    -0.2599624159D+01 EUMP2 =    -0.87093603394577D+03

 The electronic state is 1-A.
 Alpha  occ. eigenvalues --  -20.61286 -20.61280 -20.61240 -20.61234 -15.86348
 Alpha  occ. eigenvalues --  -15.86300 -11.31868 -11.31821 -11.28514 -11.28445
 Alpha  occ. eigenvalues --  -11.28442 -11.28393 -11.28313 -11.28283 -11.27658
 Alpha  occ. eigenvalues --  -11.27583 -11.27479 -11.27448  -1.60359  -1.60312
 Alpha  occ. eigenvalues --   -1.39907  -1.39861  -1.20081  -1.20029  -1.09460
 Alpha  occ. eigenvalues --   -1.09414  -1.05520  -1.05455  -0.96256  -0.96213
 Alpha  occ. eigenvalues --   -0.86956  -0.86836  -0.83093  -0.83037  -0.78124
 Alpha  occ. eigenvalues --   -0.78024  -0.72563  -0.72516  -0.71685  -0.71637
 Alpha  occ. eigenvalues --   -0.71210  -0.71169  -0.65798  -0.65737  -0.65677
 Alpha  occ. eigenvalues --   -0.65313  -0.62956  -0.62697  -0.56056  -0.56002
 Alpha  occ. eigenvalues --   -0.53835  -0.53790  -0.53734  -0.53433  -0.49340
 Alpha  occ. eigenvalues --   -0.49306  -0.49285  -0.49259  -0.45278  -0.45231
 Alpha  occ. eigenvalues --   -0.38084  -0.38045  -0.37117  -0.37053
 Alpha virt. eigenvalues --    0.04457   0.04501   0.10465   0.10541   0.15867
 Alpha virt. eigenvalues --    0.15943   0.17694   0.22001   0.24713   0.27028
 Alpha virt. eigenvalues --    0.27575   0.28848   0.29764   0.30915   0.31530

 Mulliken charges:
               1
     1  C   -0.171370
     2  C   -0.217992
     3  C   -0.169764
     4  C    0.159330
     5  C   -0.169466
     6  C   -0.223326
     7  H    0.220446
     8  H    0.225519
     9  H    0.278069
    10  H    0.278393
    11  H    0.219113
    12  N    0.487883
    13  O   -0.458518
    14  O   -0.458517
    15  C   -0.170853
    16  C   -0.218229
    17  C   -0.169375
    18  C    0.159172
    19  C   -0.170071
    20  C   -0.224043
    21  H    0.223310
    22  H    0.225886
    23  H    0.278244
    24  H    0.277957
    25  H    0.217305
    26  N    0.487973
    27  O   -0.458712
    28  O   -0.458365
 Sum of Mulliken charges =  -0.00000

 Dipole moment (field-independent basis, Debye):
    X=              0.5509    Y=              6.9777    Z=              0.0196  Tot=              6.9995
 Quadrupole moment (field-independent basis, Debye-Ang):
   XX=           -162.4808   YY=           -105.4727   ZZ=           -103.5723
   XY=              2.6044   XZ=            -16.6918   YZ=              0.4342

 Normal termination of Gaussian 16 at Thu May  6 11:25:34 2021.
