 Gaussian 16, Revision A.03,
 Gaussian 16:  EM64L-G16RevA.03 25-Dec-2016

 -------------
 #p 6-31g* mp2
 -------------

 ------------------------------------------------------
 Input file generated by CHIRIPA (05-May-2021 14:51:08)
 ------------------------------------------------------
 Symbolic Z-matrix:
 Charge =  0 Multiplicity = 1

                         Standard orientation:
 ---------------------------------------------------------------------
 Center     Atomic      Atomic             Coordinates (Angstroms)
 Number     Number       Type             X           Y           Z
 ---------------------------------------------------------------------
      1          6           0       -2.451474   -0.725586    0.492836
      2          6           0       -1.742639   -2.044222    0.181811
      3          6           0       -2.091127   -3.151700    1.176719
      4          1           0       -2.185372   -0.404446    1.509204
      5          1           0       -3.537599   -0.892104    0.491954
      6          1           0       -0.658218   -1.874967    0.181914
      7          1           0       -2.010308   -2.362162   -0.834005
      8          1           0       -3.167913   -3.349453    1.171458
      9          1           0       -1.808140   -2.859489    2.193150
     10          1           0       -1.573533   -4.085419    0.935627
     11          6           0       -2.113175    0.391278   -0.493012
     12          6           0       -2.822011    1.709914   -0.181988
     13          6           0       -2.473522    2.817393   -1.176895
     14          1           0       -1.027051    0.557796   -0.492131
     15          1           0       -2.379277    0.070138   -1.509380
     16          1           0       -2.554342    2.027855    0.833829
     17          1           0       -3.906432    1.540659   -0.182091
     18          1           0       -2.756509    2.525181   -2.193326
     19          1           0       -1.396737    3.015145   -1.171634
     20          1           0       -2.991116    3.751112   -0.935804
     21          6           0        2.212593    0.915302   -0.137183
     22          6           0        2.235268    1.769182    1.131028
     23          6           0        2.094773    3.263637    0.840068
     24          1           0        3.023969    1.238412   -0.803677
     25          1           0        1.273150    1.097955   -0.677073
     26          1           0        3.173780    1.583934    1.669074
     27          1           0        1.423863    1.443873    1.794664
     28          1           0        1.151232    3.468597    0.324002
     29          1           0        2.911091    3.609452    0.197700
     30          1           0        2.113478    3.855358    1.760598
     31          6           0        2.352057   -0.580995    0.137360
     32          6           0        2.329382   -1.434874   -1.130852
     33          6           0        2.469877   -2.929329   -0.839891
     34          1           0        3.291500   -0.763647    0.677249
     35          1           0        1.540681   -0.904105    0.803854
     36          1           0        3.140787   -1.109566   -1.794488
     37          1           0        1.390870   -1.249625   -1.668898
     38          1           0        1.653558   -3.275144   -0.197523
     39          1           0        3.413418   -3.134288   -0.323826
     40          1           0        2.451171   -3.521050   -1.760421
 ---------------------------------------------------------------------

 SCF Done:  E(RHF) =  -470.732733244     A.U. after   11 cycles
 E2 =    -0.1585611307D+01 EUMP2 =    -0.47231834455173D+03

 The electronic state is 1-A.
 Alpha  occ. eigenvalues --  -11.21667 -11.21663 -11.21645 -11.21606 -11.21467
 Alpha  occ. eigenvalues --  -11.21453 -11.21407 -11.21393 -11.21139 -11.21131
 Alpha  occ. eigenvalues --  -11.21126 -11.21071  -1.08557  -1.08431  -1.03630
 Alpha  occ. eigenvalues --   -1.03536  -0.96066  -0.95998  -0.87084  -0.87012
 Alpha  occ. eigenvalues --   -0.79669  -0.79628  -0.78375  -0.78252  -0.65587
 Alpha  occ. eigenvalues --   -0.64702  -0.61287  -0.60718  -0.59399  -0.59381
 Alpha  occ. eigenvalues --   -0.57668  -0.57627  -0.55514  -0.55137  -0.52734
 Alpha  occ. eigenvalues --   -0.52705  -0.52493  -0.52423  -0.50155  -0.49799
 Alpha  occ. eigenvalues --   -0.48116  -0.47838  -0.46795  -0.46718  -0.46277
 Alpha  occ. eigenvalues --   -0.45815  -0.45647  -0.45224  -0.43847  -0.43820
 Alpha virt. eigenvalues --    0.18765   0.21035   0.23826   0.25046   0.25407
 Alpha virt. eigenvalues --    0.25743   0.26804   0.27811   0.28786   0.29847
 Alpha virt. eigenvalues --    0.31050   0.31222   0.31569   0.31989   0.32567

 Mulliken charges:
               1
     1  C   -0.297284
     2  C   -0.310013
     3  C   -0.476010
     4  H    0.149119
     5  H    0.150070
     6  H    0.161763
     7  H    0.152318
     8  H    0.155693
     9  H    0.155083
    10  H    0.160676
    11  C   -0.308047
    12  C   -0.299212
    13  C   -0.478437
    14  H    0.158085
    15  H    0.149810
    16  H    0.152012
    17  H    0.152435
    18  H    0.155631
    19  H    0.156434
    20  H    0.160943
    21  C   -0.304693
    22  C   -0.299782
    23  C   -0.477997
    24  H    0.150721
    25  H    0.154461
    26  H    0.152522
    27  H    0.151360
    28  H    0.156663
    29  H    0.155703
    30  H    0.160670
    31  C   -0.302258
    32  C   -0.301656
    33  C   -0.477733
    34  H    0.150373
    35  H    0.151379
    36  H    0.152579
    37  H    0.154051
    38  H    0.156983
    39  H    0.155096
    40  H    0.160491
 Sum of Mulliken charges =  -0.00000

 Dipole moment (field-independent basis, Debye):
    X=              0.0001    Y=             -0.0009    Z=             -0.0111  Tot=              0.0112
 Quadrupole moment (field-independent basis, Debye-Ang):
   XX=            -83.0710   YY=            -86.7047   ZZ=            -84.8231
   XY=              0.2860   XZ=              0.4956   YZ=              0.7988

 Normal termination of Gaussian 16 at Wed May  5 15:04:00 2021.
