 Gaussian 16, Revision A.03,
 Gaussian 16:  EM64L-G16RevA.03 25-Dec-2016

 -------------
 #p 6-31g* mp2
 -------------

 ------------------------------------------------------
 Input file generated by CHIRIPA (05-May-2021 14:57:23)
 ------------------------------------------------------
 Symbolic Z-matrix:
 Charge =  0 Multiplicity = 1

                         Standard orientation:
 ---------------------------------------------------------------------
 Center     Atomic      Atomic             Coordinates (Angstroms)
 Number     Number       Type             X           Y           Z
 ---------------------------------------------------------------------
      1          6           0       -2.715188    2.642390   -0.396193
      2          6           0       -2.485439    1.693615   -1.397973
      3          6           0       -2.688442    0.333246   -1.147506
      4          6           0       -3.123514   -0.044854    0.121762
      5          6           0       -3.361137    0.876479    1.140570
      6          6           0       -3.151534    2.231518    0.867653
      7          1           0       -2.554926    3.697087   -0.599482
      8          1           0       -2.146536    2.009812   -2.380424
      9          1           0       -2.518272   -0.422401   -1.904777
     10          1           0       -3.698652    0.530812    2.110114
     11          1           0       -3.330766    2.966133    1.647564
     12          7           0       -3.341918   -1.482195    0.398804
     13          8           0       -3.725488   -1.789580    1.525314
     14          8           0       -3.125397   -2.274181   -0.515808
     15          6           0        5.224828    0.929598    0.658584
     16          6           0        5.161550   -0.464752    0.567446
     17          6           0        3.982547   -1.096966    0.161484
     18          6           0        2.880891   -0.300472   -0.147129
     19          6           0        2.912661    1.090830   -0.066134
     20          6           0        4.102161    1.701578    0.342061
     21          1           0        6.144784    1.412380    0.974813
     22          1           0        6.031867   -1.066811    0.812639
     23          1           0        3.905961   -2.174592    0.082274
     24          1           0        2.028630    1.664336   -0.317130
     25          1           0        4.148412    2.784640    0.411933
     26          7           0        1.627177   -0.958406   -0.578085
     27          8           0        0.670510   -0.234190   -0.844423
     28          8           0        1.624922   -2.185854   -0.641371
 ---------------------------------------------------------------------

 SCF Done:  E(RHF) =  -868.337392540     A.U. after   16 cycles
 E2 =    -0.2600215915D+01 EUMP2 =    -0.87093760845578D+03

 The electronic state is 1-A.
 Alpha  occ. eigenvalues --  -20.60918 -20.60866 -20.59601 -20.59539 -15.85940
 Alpha  occ. eigenvalues --  -15.84627 -11.31336 -11.29981 -11.27939 -11.27880
 Alpha  occ. eigenvalues --  -11.27655 -11.26952 -11.26904 -11.26701 -11.26534
 Alpha  occ. eigenvalues --  -11.26503 -11.25749 -11.25618  -1.59962  -1.58641
 Alpha  occ. eigenvalues --   -1.39518  -1.38195  -1.19511  -1.18211  -1.08900
 Alpha  occ. eigenvalues --   -1.07637  -1.04921  -1.03630  -0.95732  -0.94459
 Alpha  occ. eigenvalues --   -0.86316  -0.85051  -0.82567  -0.81298  -0.77608
 Alpha  occ. eigenvalues --   -0.76308  -0.72174  -0.71285  -0.70864  -0.70619
 Alpha  occ. eigenvalues --   -0.69944  -0.69403  -0.65166  -0.64925  -0.63898
 Alpha  occ. eigenvalues --   -0.63691  -0.62270  -0.60991  -0.55418  -0.54238
 Alpha  occ. eigenvalues --   -0.53246  -0.53016  -0.51943  -0.51766  -0.48928
 Alpha  occ. eigenvalues --   -0.48889  -0.47631  -0.47595  -0.44919  -0.43600
 Alpha  occ. eigenvalues --   -0.37492  -0.36526  -0.36244  -0.35160
 Alpha virt. eigenvalues --    0.04928   0.06253   0.11130   0.12455   0.16415
 Alpha virt. eigenvalues --    0.17684   0.21255   0.22337   0.27151   0.28109
 Alpha virt. eigenvalues --    0.28301   0.29252   0.30803   0.31819   0.32369

 Mulliken charges:
               1
     1  C   -0.173505
     2  C   -0.217544
     3  C   -0.146862
     4  C    0.157600
     5  C   -0.172144
     6  C   -0.220704
     7  H    0.218331
     8  H    0.219480
     9  H    0.279654
    10  H    0.271579
    11  H    0.216972
    12  N    0.488730
    13  O   -0.467387
    14  O   -0.455076
    15  C   -0.170756
    16  C   -0.218466
    17  C   -0.170283
    18  C    0.158468
    19  C   -0.171176
    20  C   -0.218424
    21  H    0.225805
    22  H    0.224479
    23  H    0.277622
    24  H    0.272709
    25  H    0.222014
    26  N    0.490733
    27  O   -0.468649
    28  O   -0.453198
 Sum of Mulliken charges =  -0.00000

 Dipole moment (field-independent basis, Debye):
    X=              5.4532    Y=              7.0380    Z=              0.3558  Tot=              8.9105
 Quadrupole moment (field-independent basis, Debye-Ang):
   XX=            -84.7447   YY=           -103.6689   ZZ=           -102.1800
   XY=            -12.7018   XZ=              6.4014   YZ=              0.6952

 Normal termination of Gaussian 16 at Thu May  6 22:44:34 2021.
