 Gaussian 16, Revision A.03,
 Gaussian 16:  EM64L-G16RevA.03 25-Dec-2016

 -------------
 #p 6-31g* mp2
 -------------

 ------------------------------------------------------
 Input file generated by CHIRIPA (05-May-2021 14:57:23)
 ------------------------------------------------------
 Symbolic Z-matrix:
 Charge =  0 Multiplicity = 1

                         Standard orientation:
 ---------------------------------------------------------------------
 Center     Atomic      Atomic             Coordinates (Angstroms)
 Number     Number       Type             X           Y           Z
 ---------------------------------------------------------------------
      1          6           0        2.725320    2.537364    0.891977
      2          6           0        1.630835    1.734133    0.555161
      3          6           0        1.825139    0.451407    0.034193
      4          6           0        3.133388    0.001692   -0.137653
      5          6           0        4.244313    0.778117    0.188385
      6          6           0        4.026272    2.057638    0.707839
      7          1           0        2.565160    3.532571    1.296089
      8          1           0        0.619381    2.104082    0.697091
      9          1           0        0.995882   -0.191475   -0.234977
     10          1           0        5.240810    0.381804    0.035582
     11          1           0        4.878156    2.679231    0.968532
     12          7           0        3.351654   -1.354576   -0.688377
     13          8           0        4.514161   -1.727533   -0.830217
     14          8           0        2.356092   -2.018981   -0.967766
     15          6           0       -1.981390   -1.806280    1.665734
     16          6           0       -1.496435   -1.684443    0.359405
     17          6           0       -2.106935   -0.811542   -0.546068
     18          6           0       -3.205308   -0.072371   -0.109617
     19          6           0       -3.711850   -0.171642    1.185316
     20          6           0       -3.085603   -1.050822    2.073800
     21          1           0       -1.501024   -2.486810    2.362528
     22          1           0       -0.639053   -2.269892    0.039731
     23          1           0       -1.752117   -0.697704   -1.563203
     24          1           0       -4.568265    0.425128    1.474858
     25          1           0       -3.464388   -1.143396    3.087702
     26          7           0       -3.859952    0.855055   -1.059209
     27          8           0       -4.826157    1.495150   -0.650106
     28          8           0       -3.394462    0.924315   -2.194619
 ---------------------------------------------------------------------

 SCF Done:  E(RHF) =  -868.339488402     A.U. after   16 cycles
 E2 =    -0.2600653849D+01 EUMP2 =    -0.87094014225092D+03

 The electronic state is 1-A.
 Alpha  occ. eigenvalues --  -20.61423 -20.61369 -20.61078 -20.61070 -15.86432
 Alpha  occ. eigenvalues --  -15.86128 -11.31553 -11.31513 -11.28085 -11.28074
 Alpha  occ. eigenvalues --  -11.28067 -11.28025 -11.27773 -11.27722 -11.27067
 Alpha  occ. eigenvalues --  -11.27056 -11.27022 -11.26901  -1.60456  -1.60157
 Alpha  occ. eigenvalues --   -1.40024  -1.39707  -1.19706  -1.19667  -1.09137
 Alpha  occ. eigenvalues --   -1.09039  -1.05112  -1.05008  -0.96016  -0.95877
 Alpha  occ. eigenvalues --   -0.86498  -0.86404  -0.82858  -0.82697  -0.77991
 Alpha  occ. eigenvalues --   -0.77708  -0.72664  -0.72335  -0.71764  -0.71492
 Alpha  occ. eigenvalues --   -0.70827  -0.70707  -0.65361  -0.65304  -0.65111
 Alpha  occ. eigenvalues --   -0.64912  -0.62576  -0.62200  -0.55585  -0.55484
 Alpha  occ. eigenvalues --   -0.53497  -0.53402  -0.53142  -0.52981  -0.49431
 Alpha  occ. eigenvalues --   -0.49373  -0.49097  -0.49093  -0.45478  -0.45107
 Alpha  occ. eigenvalues --   -0.37677  -0.37632  -0.36731  -0.36596
 Alpha virt. eigenvalues --    0.04564   0.04698   0.10763   0.11179   0.16041
 Alpha virt. eigenvalues --    0.16118   0.20654   0.21776   0.26107   0.27379
 Alpha virt. eigenvalues --    0.28091   0.28905   0.30487   0.31279   0.32370

 Mulliken charges:
               1
     1  C   -0.170012
     2  C   -0.221312
     3  C   -0.173873
     4  C    0.157396
     5  C   -0.170073
     6  C   -0.218844
     7  H    0.227847
     8  H    0.227578
     9  H    0.274987
    10  H    0.275931
    11  H    0.224765
    12  N    0.490178
    13  O   -0.455958
    14  O   -0.472062
    15  C   -0.172350
    16  C   -0.235014
    17  C   -0.181147
    18  C    0.157328
    19  C   -0.172532
    20  C   -0.218996
    21  H    0.229941
    22  H    0.247972
    23  H    0.279850
    24  H    0.275876
    25  H    0.224471
    26  N    0.487494
    27  O   -0.460340
    28  O   -0.459102
 Sum of Mulliken charges =  -0.00000

 Dipole moment (field-independent basis, Debye):
    X=              1.5945    Y=              1.5040    Z=              5.3612  Tot=              5.7920
 Quadrupole moment (field-independent basis, Debye-Ang):
   XX=           -117.3380   YY=           -104.6743   ZZ=           -104.5926
   XY=             25.6663   XZ=             -7.1395   YZ=              0.5320

 Normal termination of Gaussian 16 at Fri May  7 06:26:43 2021.
