 Gaussian 16, Revision A.03,
 Gaussian 16:  EM64L-G16RevA.03 25-Dec-2016

 -------------
 #p 6-31g* mp2
 -------------

 ------------------------------------------------------
 Input file generated by CHIRIPA (05-May-2021 14:53:18)
 ------------------------------------------------------
 Symbolic Z-matrix:
 Charge =  0 Multiplicity = 1

                         Standard orientation:
 ---------------------------------------------------------------------
 Center     Atomic      Atomic             Coordinates (Angstroms)
 Number     Number       Type             X           Y           Z
 ---------------------------------------------------------------------
      1          6           0       -3.271896    0.930523   -0.369721
      2          6           0       -2.529620    2.185664    0.090316
      3          6           0       -2.717729    3.366383   -0.862737
      4          1           0       -2.922258    0.652684   -1.373466
      5          1           0       -4.342360    1.159908   -0.463984
      6          1           0       -1.461071    1.953606    0.185015
      7          1           0       -2.880928    2.460436    1.093162
      8          1           0       -3.777713    3.626104   -0.949794
      9          1           0       -2.349790    3.116394   -1.863101
     10          1           0       -2.178653    4.253039   -0.514747
     11          6           0       -3.093494   -0.258440    0.572758
     12          6           0       -3.835769   -1.513580    0.112720
     13          6           0       -3.647661   -2.694300    1.065773
     14          1           0       -2.023030   -0.487825    0.667020
     15          1           0       -3.443131    0.019399    1.576503
     16          1           0       -3.484462   -1.788353   -0.890126
     17          1           0       -4.904318   -1.281522    0.018021
     18          1           0       -4.015600   -2.444310    2.066137
     19          1           0       -2.587676   -2.954021    1.152830
     20          1           0       -4.186737   -3.580956    0.717783
     21          6           0        3.750147    1.751483    0.764971
     22          6           0        2.375451    1.838975    0.521916
     23          6           0        1.665124    0.729443    0.054025
     24          6           0        2.364314   -0.457240   -0.160933
     25          6           0        3.733632   -0.575882    0.071836
     26          6           0        4.423663    0.546458    0.539553
     27          1           0        4.294063    2.618368    1.128373
     28          1           0        1.849786    2.773526    0.696088
     29          1           0        0.600593    0.769407   -0.142428
     30          1           0        4.230207   -1.521047   -0.111175
     31          1           0        5.491240    0.475600    0.727444
     32          7           0        1.623065   -1.638631   -0.656176
     33          8           0        2.262214   -2.672653   -0.837629
     34          8           0        0.416962   -1.508214   -0.853518
 ---------------------------------------------------------------------

 SCF Done:  E(RHF) =  -669.535976286     A.U. after   15 cycles
 E2 =    -0.2092328289D+01 EUMP2 =    -0.67162830457583D+03

 The electronic state is 1-A.
 Alpha  occ. eigenvalues --  -20.60945 -20.60933 -15.85974 -11.31261 -11.27825
 Alpha  occ. eigenvalues --  -11.27806 -11.27557 -11.26829 -11.26812 -11.21863
 Alpha  occ. eigenvalues --  -11.21301 -11.21121 -11.20848 -11.20762 -11.20248
 Alpha  occ. eigenvalues --   -1.60002  -1.39559  -1.19429  -1.08840  -1.08100
 Alpha  occ. eigenvalues --   -1.04823  -1.03214  -0.95689  -0.95642  -0.86676
 Alpha  occ. eigenvalues --   -0.86226  -0.82522  -0.79369  -0.77863  -0.77543
 Alpha  occ. eigenvalues --   -0.72200  -0.71314  -0.70551  -0.65089  -0.64926
 Alpha  occ. eigenvalues --   -0.64637  -0.62181  -0.60581  -0.59097  -0.57248
 Alpha  occ. eigenvalues --   -0.55332  -0.54902  -0.53155  -0.52929  -0.52403
 Alpha  occ. eigenvalues --   -0.52067  -0.49611  -0.48946  -0.48941  -0.47653
 Alpha  occ. eigenvalues --   -0.46403  -0.45407  -0.45274  -0.44856  -0.43443
 Alpha  occ. eigenvalues --   -0.37409  -0.36420
 Alpha virt. eigenvalues --    0.04921   0.11220   0.16421   0.19447   0.23087
 Alpha virt. eigenvalues --    0.24463   0.25489   0.27280   0.27595   0.28308
 Alpha virt. eigenvalues --    0.29485   0.31237   0.31610   0.31915   0.32507

 Mulliken charges:
               1
     1  C   -0.298727
     2  C   -0.301375
     3  C   -0.475554
     4  H    0.155654
     5  H    0.148996
     6  H    0.138458
     7  H    0.153193
     8  H    0.158403
     9  H    0.156930
    10  H    0.155409
    11  C   -0.304300
    12  C   -0.298648
    13  C   -0.477597
    14  H    0.162287
    15  H    0.144194
    16  H    0.160516
    17  H    0.146851
    18  H    0.149728
    19  H    0.164587
    20  H    0.158845
    21  C   -0.170437
    22  C   -0.221975
    23  C   -0.181965
    24  C    0.159446
    25  C   -0.169954
    26  C   -0.219031
    27  H    0.225996
    28  H    0.224313
    29  H    0.289767
    30  H    0.275674
    31  H    0.223777
    32  N    0.488817
    33  O   -0.458814
    34  O   -0.463467
 Sum of Mulliken charges =  -0.00000

 Dipole moment (field-independent basis, Debye):
    X=              2.6862    Y=              4.0180    Z=              1.6541  Tot=              5.1084
 Quadrupole moment (field-independent basis, Debye-Ang):
   XX=            -78.3557   YY=            -98.4891   ZZ=            -96.3336
   XY=              6.0687   XZ=              3.7851   YZ=             -0.6621

 Normal termination of Gaussian 16 at Wed May  5 18:49:42 2021.
