 Gaussian 16, Revision A.03,
 Gaussian 16:  EM64L-G16RevA.03 25-Dec-2016

 -------------
 #p 6-31g* mp2
 -------------

 ------------------------------------------------------
 Input file generated by CHIRIPA (05-May-2021 14:53:15)
 ------------------------------------------------------
 Symbolic Z-matrix:
 Charge =  0 Multiplicity = 1

                         Standard orientation:
 ---------------------------------------------------------------------
 Center     Atomic      Atomic             Coordinates (Angstroms)
 Number     Number       Type             X           Y           Z
 ---------------------------------------------------------------------
      1          6           0        3.933376    0.658656   -0.667278
      2          6           0        2.441384    0.983835   -0.746056
      3          6           0        2.135807    2.126860   -1.714513
      4          1           0        4.482591    1.558880   -0.359214
      5          1           0        4.298176    0.397937   -1.670444
      6          1           0        2.079202    1.242520    0.257200
      7          1           0        1.895636    0.082681   -1.053784
      8          1           0        2.469901    1.874422   -2.726075
      9          1           0        2.654510    3.040851   -1.407643
     10          1           0        1.063604    2.342673   -1.755314
     11          6           0        4.254737   -0.481942    0.296822
     12          6           0        5.746728   -0.807121    0.375600
     13          6           0        6.052305   -1.950147    1.344057
     14          1           0        3.889936   -0.221224    1.299988
     15          1           0        3.705521   -1.382166   -0.011243
     16          1           0        6.292477    0.094032    0.683327
     17          1           0        6.108910   -1.065807   -0.627656
     18          1           0        5.533602   -2.864137    1.037187
     19          1           0        5.718212   -1.697708    2.355619
     20          1           0        7.124508   -2.165960    1.384857
     21          6           0       -2.295597    2.004723    1.262868
     22          6           0       -3.386466    1.328291    1.818715
     23          6           0       -3.895068    0.178254    1.207742
     24          6           0       -3.285769   -0.269511    0.036610
     25          6           0       -2.197666    0.382443   -0.541557
     26          6           0       -1.705719    1.530476    0.086579
     27          1           0       -1.906972    2.897321    1.744153
     28          1           0       -3.846570    1.694309    2.732160
     29          1           0       -4.738485   -0.364822    1.616563
     30          1           0       -1.760051   -0.006531   -1.452935
     31          1           0       -0.858421    2.053768   -0.347352
     32          7           0       -3.815387   -1.485943   -0.619285
     33          8           0       -3.260831   -1.860071   -1.650368
     34          8           0       -4.775030   -2.042221   -0.089872
 ---------------------------------------------------------------------

 SCF Done:  E(RHF) =  -669.535515156     A.U. after   15 cycles
 E2 =    -0.2091149728D+01 EUMP2 =    -0.67162666488427D+03

 The electronic state is 1-A.
 Alpha  occ. eigenvalues --  -20.60738 -20.60733 -15.85791 -11.31149 -11.27720
 Alpha  occ. eigenvalues --  -11.27709 -11.27458 -11.26737 -11.26699 -11.22357
 Alpha  occ. eigenvalues --  -11.22033 -11.21923 -11.21892 -11.21746 -11.21284
 Alpha  occ. eigenvalues --   -1.59814  -1.39367  -1.19320  -1.08934  -1.08717
 Alpha  occ. eigenvalues --   -1.04724  -1.04073  -0.96526  -0.95554  -0.87540
 Alpha  occ. eigenvalues --   -0.86121  -0.82387  -0.80139  -0.78704  -0.77436
 Alpha  occ. eigenvalues --   -0.72010  -0.71136  -0.70432  -0.65557  -0.64973
 Alpha  occ. eigenvalues --   -0.64760  -0.62132  -0.61454  -0.59911  -0.58125
 Alpha  occ. eigenvalues --   -0.55786  -0.55225  -0.53324  -0.53052  -0.53029
 Alpha  occ. eigenvalues --   -0.52629  -0.50440  -0.48768  -0.48765  -0.48455
 Alpha  occ. eigenvalues --   -0.47159  -0.46252  -0.46149  -0.44775  -0.44318
 Alpha  occ. eigenvalues --   -0.37302  -0.36319
 Alpha virt. eigenvalues --    0.05095   0.11305   0.16567   0.19513   0.22660
 Alpha virt. eigenvalues --    0.23738   0.25966   0.26082   0.27034   0.28181
 Alpha virt. eigenvalues --    0.28910   0.29847   0.30914   0.31594   0.31928

 Mulliken charges:
               1
     1  C   -0.298652
     2  C   -0.302181
     3  C   -0.479759
     4  H    0.150063
     5  H    0.152083
     6  H    0.149699
     7  H    0.154594
     8  H    0.162030
     9  H    0.158160
    10  H    0.150305
    11  C   -0.299017
    12  C   -0.300155
    13  C   -0.476080
    14  H    0.149250
    15  H    0.152401
    16  H    0.151702
    17  H    0.153050
    18  H    0.156813
    19  H    0.155091
    20  H    0.161226
    21  C   -0.172588
    22  C   -0.218407
    23  C   -0.171157
    24  C    0.158619
    25  C   -0.173319
    26  C   -0.224592
    27  H    0.225932
    28  H    0.223175
    29  H    0.275446
    30  H    0.275327
    31  H    0.234002
    32  N    0.488149
    33  O   -0.460582
    34  O   -0.460625
 Sum of Mulliken charges =  -0.00000

 Dipole moment (field-independent basis, Debye):
    X=              2.0567    Y=              4.2343    Z=              2.3058  Tot=              5.2417
 Quadrupole moment (field-independent basis, Debye-Ang):
   XX=           -104.5615   YY=            -98.0012   ZZ=            -92.1790
   XY=            -14.0383   XZ=            -10.8207   YZ=              0.3316

 Normal termination of Gaussian 16 at Thu May  6 18:48:35 2021.
