 Gaussian 16, Revision A.03,
 Gaussian 16:  EM64L-G16RevA.03 25-Dec-2016

 -------------
 #p 6-31g* mp2
 -------------

 ------------------------------------------------------
 Input file generated by CHIRIPA (05-May-2021 14:51:14)
 ------------------------------------------------------
 Symbolic Z-matrix:
 Charge =  0 Multiplicity = 1

                         Standard orientation:
 ---------------------------------------------------------------------
 Center     Atomic      Atomic             Coordinates (Angstroms)
 Number     Number       Type             X           Y           Z
 ---------------------------------------------------------------------
      1          6           0        2.846453   -0.603390   -0.052831
      2          6           0        3.991030   -1.582885   -0.314590
      3          6           0        3.825801   -2.901058    0.442320
      4          1           0        2.783022   -0.403194    1.025521
      5          1           0        1.896465   -1.075320   -0.339538
      6          1           0        4.938715   -1.108738   -0.028768
      7          1           0        4.051866   -1.780623   -1.392464
      8          1           0        2.895433   -3.398880    0.150449
      9          1           0        3.787321   -2.723177    1.521894
     10          1           0        4.654975   -3.586405    0.240752
     11          6           0        2.997395    0.719055   -0.802554
     12          6           0        1.852818    1.698550   -0.540796
     13          6           0        2.018047    3.016723   -1.297705
     14          1           0        3.947383    1.190985   -0.515847
     15          1           0        3.060826    0.518859   -1.880906
     16          1           0        1.791982    1.896288    0.537079
     17          1           0        0.905133    1.224403   -0.826617
     18          1           0        2.056527    2.838842   -2.377279
     19          1           0        2.948415    3.514546   -1.005834
     20          1           0        1.188873    3.702070   -1.096137
     21          6           0       -2.513706   -0.138686    1.068202
     22          6           0       -1.677754    1.093993    1.414136
     23          6           0       -0.866674    0.916904    2.698109
     24          1           0       -3.191327   -0.360658    1.903967
     25          1           0       -1.848530   -1.007294    0.965949
     26          1           0       -2.344157    1.960296    1.514346
     27          1           0       -1.002178    1.313170    0.577372
     28          1           0       -0.178913    0.070129    2.605611
     29          1           0       -1.528516    0.720931    3.547910
     30          1           0       -0.276551    1.809888    2.926568
     31          6           0       -3.330142    0.023021   -0.212818
     32          6           0       -4.166094   -1.209658   -0.558751
     33          6           0       -4.977173   -1.032569   -1.842723
     34          1           0       -3.995317    0.891630   -0.110564
     35          1           0       -2.652520    0.244993   -1.048582
     36          1           0       -4.841669   -1.428835    0.278014
     37          1           0       -3.499691   -2.075961   -0.658961
     38          1           0       -4.315332   -0.836596   -2.692525
     39          1           0       -5.664935   -0.185793   -1.750226
     40          1           0       -5.567297   -1.925553   -2.071182
 ---------------------------------------------------------------------

 SCF Done:  E(RHF) =  -470.733097805     A.U. after   11 cycles
 E2 =    -0.1583442492D+01 EUMP2 =    -0.47231654029730D+03

 The electronic state is 1-A.
 Alpha  occ. eigenvalues --  -11.21645 -11.21643 -11.21597 -11.21471 -11.21459
 Alpha  occ. eigenvalues --  -11.21399 -11.21381 -11.21311 -11.21111 -11.21107
 Alpha  occ. eigenvalues --  -11.21071 -11.21014  -1.08490  -1.08388  -1.03593
 Alpha  occ. eigenvalues --   -1.03474  -0.96024  -0.95946  -0.87040  -0.86962
 Alpha  occ. eigenvalues --   -0.79716  -0.79500  -0.78346  -0.78161  -0.65139
 Alpha  occ. eigenvalues --   -0.65009  -0.61008  -0.60880  -0.59444  -0.59259
 Alpha  occ. eigenvalues --   -0.57682  -0.57505  -0.55312  -0.55235  -0.52716
 Alpha  occ. eigenvalues --   -0.52639  -0.52449  -0.52371  -0.49986  -0.49881
 Alpha  occ. eigenvalues --   -0.48114  -0.47809  -0.46794  -0.46491  -0.45998
 Alpha  occ. eigenvalues --   -0.45774  -0.45703  -0.45368  -0.43828  -0.43746
 Alpha virt. eigenvalues --    0.20840   0.23239   0.23613   0.24349   0.25249
 Alpha virt. eigenvalues --    0.26356   0.26922   0.28099   0.28315   0.29272
 Alpha virt. eigenvalues --    0.30853   0.30878   0.31677   0.31985   0.32067

 Mulliken charges:
               1
     1  C   -0.299153
     2  C   -0.299650
     3  C   -0.475781
     4  H    0.150659
     5  H    0.148643
     6  H    0.152210
     7  H    0.152039
     8  H    0.155000
     9  H    0.155361
    10  H    0.160487
    11  C   -0.297589
    12  C   -0.305084
    13  C   -0.476157
    14  H    0.149808
    15  H    0.149602
    16  H    0.155263
    17  H    0.154172
    18  H    0.155162
    19  H    0.155479
    20  H    0.160893
    21  C   -0.298090
    22  C   -0.307471
    23  C   -0.476057
    24  H    0.149417
    25  H    0.149150
    26  H    0.150954
    27  H    0.161684
    28  H    0.156085
    29  H    0.154640
    30  H    0.159315
    31  C   -0.298142
    32  C   -0.299569
    33  C   -0.475668
    34  H    0.149652
    35  H    0.148517
    36  H    0.152095
    37  H    0.151694
    38  H    0.154967
    39  H    0.155235
    40  H    0.160227
 Sum of Mulliken charges =  -0.00000

 Dipole moment (field-independent basis, Debye):
    X=              0.0470    Y=              0.0141    Z=             -0.0109  Tot=              0.0503
 Quadrupole moment (field-independent basis, Debye-Ang):
   XX=            -84.3099   YY=            -85.4920   ZZ=            -84.9785
   XY=             -0.0608   XZ=             -0.5784   YZ=              0.9595

 Normal termination of Gaussian 16 at Thu May  6 02:25:01 2021.
