 Gaussian 16, Revision A.03,
 Gaussian 16:  EM64L-G16RevA.03 25-Dec-2016

 -------------
 #p 6-31g* mp2
 -------------

 ------------------------------------------------------
 Input file generated by CHIRIPA (05-May-2021 14:57:23)
 ------------------------------------------------------
 Symbolic Z-matrix:
 Charge =  0 Multiplicity = 1

                         Standard orientation:
 ---------------------------------------------------------------------
 Center     Atomic      Atomic             Coordinates (Angstroms)
 Number     Number       Type             X           Y           Z
 ---------------------------------------------------------------------
      1          6           0       -3.138935    2.214773   -0.117475
      2          6           0       -2.867458    1.477037   -1.274440
      3          6           0       -2.621387    0.102887   -1.198872
      4          6           0       -2.654821   -0.504042    0.055643
      5          6           0       -2.922351    0.203728    1.226446
      6          6           0       -3.165468    1.576888    1.127081
      7          1           0       -3.328941    3.281861   -0.185422
      8          1           0       -2.846204    1.969780   -2.242323
      9          1           0       -2.408616   -0.492291   -2.078593
     10          1           0       -2.936718   -0.315346    2.177116
     11          1           0       -3.376028    2.147303    2.027268
     12          7           0       -2.395880   -1.958269    0.148240
     13          8           0       -2.431093   -2.469434    1.265427
     14          8           0       -2.162613   -2.559391   -0.898123
     15          6           0        1.649619    2.559453   -0.019009
     16          6           0        0.903044    1.452942   -0.437076
     17          6           0        1.473380    0.176614   -0.453003
     18          6           0        2.798803    0.042487   -0.042448
     19          6           0        3.568531    1.125456    0.379440
     20          6           0        2.977637    2.392473    0.387200
     21          1           0        1.198583    3.547319   -0.009809
     22          1           0       -0.128523    1.579639   -0.753082
     23          1           0        0.918258   -0.697196   -0.771929
     24          1           0        4.594622    0.967738    0.688761
     25          1           0        3.559831    3.250003    0.712371
     26          7           0        3.413473   -1.303775   -0.054986
     27          8           0        4.583052   -1.395414    0.311517
     28          8           0        2.714034   -2.241846   -0.431079
 ---------------------------------------------------------------------

 SCF Done:  E(RHF) =  -868.336224700     A.U. after   16 cycles
 E2 =    -0.2603351079D+01 EUMP2 =    -0.87093957577884D+03

 The electronic state is 1-A.
 Alpha  occ. eigenvalues --  -20.61351 -20.61346 -20.60440 -20.60401 -15.86406
 Alpha  occ. eigenvalues --  -15.85476 -11.32125 -11.30993 -11.28729 -11.28662
 Alpha  occ. eigenvalues --  -11.28508 -11.27801 -11.27738 -11.27581 -11.27512
 Alpha  occ. eigenvalues --  -11.27372 -11.26665 -11.26462  -1.60414  -1.59499
 Alpha  occ. eigenvalues --   -1.39957  -1.39045  -1.20348  -1.19169  -1.09661
 Alpha  occ. eigenvalues --   -1.08552  -1.05773  -1.04583  -0.96423  -0.95364
 Alpha  occ. eigenvalues --   -0.87129  -0.85985  -0.83233  -0.82186  -0.78225
 Alpha  occ. eigenvalues --   -0.77207  -0.72602  -0.71768  -0.71681  -0.71383
 Alpha  occ. eigenvalues --   -0.70828  -0.70313  -0.65951  -0.65715  -0.64819
 Alpha  occ. eigenvalues --   -0.64638  -0.63061  -0.61984  -0.56222  -0.55205
 Alpha  occ. eigenvalues --   -0.54191  -0.53806  -0.52921  -0.52437  -0.49390
 Alpha  occ. eigenvalues --   -0.49347  -0.48466  -0.48437  -0.45273  -0.44418
 Alpha  occ. eigenvalues --   -0.38358  -0.37395  -0.37175  -0.36181
 Alpha virt. eigenvalues --    0.04276   0.05318   0.10158   0.11443   0.15678
 Alpha virt. eigenvalues --    0.16786   0.20474   0.21699   0.26359   0.27212
 Alpha virt. eigenvalues --    0.27797   0.28278   0.30126   0.31402   0.31701

 Mulliken charges:
               1
     1  C   -0.173641
     2  C   -0.231940
     3  C   -0.180611
     4  C    0.160888
     5  C   -0.167974
     6  C   -0.216856
     7  H    0.227721
     8  H    0.227395
     9  H    0.280396
    10  H    0.280716
    11  H    0.227351
    12  N    0.487421
    13  O   -0.453829
    14  O   -0.456105
    15  C   -0.175564
    16  C   -0.225088
    17  C   -0.179337
    18  C    0.159770
    19  C   -0.171969
    20  C   -0.218214
    21  H    0.219789
    22  H    0.233409
    23  H    0.278985
    24  H    0.275227
    25  H    0.221452
    26  N    0.487389
    27  O   -0.462391
    28  O   -0.454389
 Sum of Mulliken charges =  -0.00000

 Dipole moment (field-independent basis, Debye):
    X=             -3.4057    Y=              9.5663    Z=             -0.1578  Tot=             10.1557
 Quadrupole moment (field-independent basis, Debye-Ang):
   XX=           -108.8118   YY=           -109.9627   ZZ=            -99.8780
   XY=              1.7276   XZ=              1.6999   YZ=              1.3402

 Normal termination of Gaussian 16 at Thu May  6 05:00:39 2021.
