 Gaussian 16, Revision A.03,
 Gaussian 16:  EM64L-G16RevA.03 25-Dec-2016

 -------------
 #p 6-31g* mp2
 -------------

 ------------------------------------------------------
 Input file generated by CHIRIPA (05-May-2021 14:55:22)
 ------------------------------------------------------
 Symbolic Z-matrix:
 Charge =  0 Multiplicity = 1

                         Standard orientation:
 ---------------------------------------------------------------------
 Center     Atomic      Atomic             Coordinates (Angstroms)
 Number     Number       Type             X           Y           Z
 ---------------------------------------------------------------------
      1          6           0        1.892170    1.422576    0.052891
      2          6           0        2.924396    1.730074   -0.839565
      3          6           0        4.074798    0.937569   -0.894862
      4          6           0        4.160120   -0.159876   -0.039511
      5          6           0        3.148760   -0.492117    0.860521
      6          6           0        2.007444    0.314416    0.898594
      7          1           0        1.002039    2.043662    0.089157
      8          1           0        2.837604    2.590071   -1.497529
      9          1           0        4.888977    1.152793   -1.576192
     10          1           0        3.264056   -1.355878    1.503981
     11          1           0        1.207383    0.073217    1.592691
     12          7           0        5.373190   -1.006291   -0.088935
     13          8           0        5.424062   -1.967676    0.675125
     14          8           0        6.250152   -0.692299   -0.890797
     15          6           0       -4.638321    0.481400    0.476720
     16          6           0       -3.189377    0.585488   -0.000473
     17          6           0       -2.340249    1.499889    0.883067
     18          1           0       -5.082661    1.485844    0.501210
     19          1           0       -4.650746    0.108829    1.510369
     20          1           0       -3.179752    0.956438   -1.033390
     21          1           0       -2.748495   -0.419343   -0.024013
     22          1           0       -2.320063    1.129884    1.913257
     23          1           0       -2.753771    2.513483    0.898144
     24          1           0       -1.308153    1.559861    0.523845
     25          6           0       -5.499768   -0.429236   -0.396424
     26          6           0       -6.948712   -0.533323    0.080769
     27          6           0       -7.797841   -1.447724   -0.802771
     28          1           0       -5.487343   -0.056665   -1.430073
     29          1           0       -5.055429   -1.433679   -0.420915
     30          1           0       -7.389595    0.471508    0.104310
     31          1           0       -6.958337   -0.904274    1.113687
     32          1           0       -7.384318   -2.461319   -0.817849
     33          1           0       -7.818026   -1.077720   -1.832960
     34          1           0       -8.829937   -1.507697   -0.443549
 ---------------------------------------------------------------------

 SCF Done:  E(RHF) =  -669.535483672     A.U. after   15 cycles
 E2 =    -0.2090879280D+01 EUMP2 =    -0.67162636295181D+03

 The electronic state is 1-A.
 Alpha  occ. eigenvalues --  -20.60740 -20.60735 -15.85793 -11.31156 -11.27723
 Alpha  occ. eigenvalues --  -11.27719 -11.27446 -11.26738 -11.26722 -11.22491
 Alpha  occ. eigenvalues --  -11.22297 -11.22079 -11.22046 -11.21911 -11.21433
 Alpha  occ. eigenvalues --   -1.59815  -1.39369  -1.19326  -1.09091  -1.08722
 Alpha  occ. eigenvalues --   -1.04728  -1.04236  -0.96708  -0.95559  -0.87730
 Alpha  occ. eigenvalues --   -0.86124  -0.82392  -0.80302  -0.78856  -0.77437
 Alpha  occ. eigenvalues --   -0.72011  -0.71138  -0.70462  -0.65715  -0.64980
 Alpha  occ. eigenvalues --   -0.64738  -0.62080  -0.61621  -0.60140  -0.58303
 Alpha  occ. eigenvalues --   -0.55979  -0.55274  -0.53400  -0.53129  -0.53029
 Alpha  occ. eigenvalues --   -0.52816  -0.50630  -0.48771  -0.48767  -0.48612
 Alpha  occ. eigenvalues --   -0.47314  -0.46410  -0.46306  -0.44775  -0.44484
 Alpha  occ. eigenvalues --   -0.37303  -0.36333
 Alpha virt. eigenvalues --    0.05087   0.11306   0.16551   0.19736   0.22470
 Alpha virt. eigenvalues --    0.23889   0.25953   0.26004   0.26810   0.27317
 Alpha virt. eigenvalues --    0.28482   0.30283   0.30812   0.31456   0.32165

 Mulliken charges:
               1
     1  C   -0.175216
     2  C   -0.218749
     3  C   -0.170916
     4  C    0.158422
     5  C   -0.171039
     6  C   -0.220388
     7  H    0.231263
     8  H    0.223619
     9  H    0.275451
    10  H    0.275465
    11  H    0.224575
    12  N    0.488057
    13  O   -0.460538
    14  O   -0.460483
    15  C   -0.299294
    16  C   -0.298865
    17  C   -0.481418
    18  H    0.150782
    19  H    0.150461
    20  H    0.153736
    21  H    0.153562
    22  H    0.157112
    23  H    0.159480
    24  H    0.150582
    25  C   -0.298829
    26  C   -0.300133
    27  C   -0.476076
    28  H    0.150396
    29  H    0.150790
    30  H    0.152408
    31  H    0.152524
    32  H    0.155976
    33  H    0.155717
    34  H    0.161566
 Sum of Mulliken charges =  -0.00000

 Dipole moment (field-independent basis, Debye):
    X=             -4.5012    Y=              2.9590    Z=              0.1620  Tot=              5.3891
 Quadrupole moment (field-independent basis, Debye-Ang):
   XX=           -129.8343   YY=            -94.2509   ZZ=            -92.5564
   XY=             13.8079   XZ=             -0.9235   YZ=             -3.4612

 Normal termination of Gaussian 16 at Thu May  6 06:14:11 2021.
