 Gaussian 16, Revision A.03,
 Gaussian 16:  EM64L-G16RevA.03 25-Dec-2016

 -------------
 #p 6-31g* mp2
 -------------

 ------------------------------------------------------
 Input file generated by CHIRIPA (05-May-2021 14:55:21)
 ------------------------------------------------------
 Symbolic Z-matrix:
 Charge =  0 Multiplicity = 1

                         Standard orientation:
 ---------------------------------------------------------------------
 Center     Atomic      Atomic             Coordinates (Angstroms)
 Number     Number       Type             X           Y           Z
 ---------------------------------------------------------------------
      1          6           0        2.764532   -2.701046   -0.238952
      2          6           0        1.933018   -2.223569    0.779439
      3          6           0        1.778958   -0.849244    0.984487
      4          6           0        2.474477    0.023247    0.148842
      5          6           0        3.310255   -0.421612   -0.874324
      6          6           0        3.449290   -1.800132   -1.061134
      7          1           0        2.878374   -3.770285   -0.391155
      8          1           0        1.399999   -2.920908    1.419480
      9          1           0        1.141686   -0.452363    1.765376
     10          1           0        3.828654    0.298005   -1.496282
     11          1           0        4.095731   -2.168093   -1.852817
     12          7           0        2.319334    1.480404    0.356263
     13          8           0        2.943013    2.228407   -0.393505
     14          8           0        1.576992    1.846929    1.264682
     15          6           0       -3.570340   -0.311180   -0.462370
     16          6           0       -3.802414   -1.471122    0.506476
     17          6           0       -4.544304   -2.641585   -0.139596
     18          1           0       -4.538822    0.035014   -0.848556
     19          1           0       -3.000259   -0.674568   -1.328598
     20          1           0       -4.370695   -1.105342    1.371275
     21          1           0       -2.833281   -1.814469    0.890547
     22          1           0       -3.978224   -3.033873   -0.990632
     23          1           0       -5.524372   -2.320718   -0.507173
     24          1           0       -4.699553   -3.459675    0.570677
     25          6           0       -2.829780    0.866471    0.168850
     26          6           0       -2.597706    2.026412   -0.799996
     27          6           0       -1.855816    3.196876   -0.153924
     28          1           0       -3.399861    1.229858    1.035077
     29          1           0       -1.861299    0.520277    0.555035
     30          1           0       -3.566839    2.369759   -1.184067
     31          1           0       -2.029425    1.660633   -1.664796
     32          1           0       -0.875748    2.876009    0.213652
     33          1           0       -2.421897    3.589164    0.697113
     34          1           0       -1.700568    4.014965   -0.864197
 ---------------------------------------------------------------------

 SCF Done:  E(RHF) =  -669.536451614     A.U. after   15 cycles
 E2 =    -0.2091611542D+01 EUMP2 =    -0.67162806315594D+03

 The electronic state is 1-A.
 Alpha  occ. eigenvalues --  -20.61014 -20.61008 -15.86028 -11.31338 -11.27897
 Alpha  occ. eigenvalues --  -11.27892 -11.27627 -11.26901 -11.26891 -11.21641
 Alpha  occ. eigenvalues --  -11.21218 -11.21168 -11.21012 -11.20947 -11.19914
 Alpha  occ. eigenvalues --   -1.60064  -1.39621  -1.19502  -1.08909  -1.08142
 Alpha  occ. eigenvalues --   -1.04895  -1.03152  -0.95754  -0.95569  -0.86583
 Alpha  occ. eigenvalues --   -0.86295  -0.82586  -0.79260  -0.77910  -0.77638
 Alpha  occ. eigenvalues --   -0.72248  -0.71375  -0.70608  -0.65158  -0.64897
 Alpha  occ. eigenvalues --   -0.64782  -0.62241  -0.60552  -0.59018  -0.57173
 Alpha  occ. eigenvalues --   -0.55398  -0.54851  -0.53227  -0.52985  -0.52262
 Alpha  occ. eigenvalues --   -0.51981  -0.49544  -0.49012  -0.48978  -0.47548
 Alpha  occ. eigenvalues --   -0.46336  -0.45525  -0.45400  -0.44824  -0.43418
 Alpha  occ. eigenvalues --   -0.37477  -0.36494
 Alpha virt. eigenvalues --    0.04831   0.11118   0.16317   0.21042   0.23027
 Alpha virt. eigenvalues --    0.24668   0.25969   0.27280   0.27669   0.28542
 Alpha virt. eigenvalues --    0.28854   0.30586   0.31755   0.31927   0.32308

 Mulliken charges:
               1
     1  C   -0.170542
     2  C   -0.218602
     3  C   -0.171971
     4  C    0.158326
     5  C   -0.170763
     6  C   -0.218482
     7  H    0.226283
     8  H    0.224284
     9  H    0.276731
    10  H    0.276007
    11  H    0.224048
    12  N    0.487852
    13  O   -0.457702
    14  O   -0.459386
    15  C   -0.297844
    16  C   -0.297728
    17  C   -0.475407
    18  H    0.150000
    19  H    0.147839
    20  H    0.152901
    21  H    0.145328
    22  H    0.153672
    23  H    0.156588
    24  H    0.158301
    25  C   -0.297327
    26  C   -0.299500
    27  C   -0.485742
    28  H    0.149676
    29  H    0.147486
    30  H    0.148730
    31  H    0.148660
    32  H    0.178464
    33  H    0.151498
    34  H    0.158321
 Sum of Mulliken charges =  -0.00000

 Dipole moment (field-independent basis, Debye):
    X=              0.7730    Y=             -5.0794    Z=             -0.7042  Tot=              5.1859
 Quadrupole moment (field-independent basis, Debye-Ang):
   XX=            -90.2923   YY=            -96.1120   ZZ=            -92.5599
   XY=            -13.0540   XZ=             -5.1114   YZ=             -1.5818

 Normal termination of Gaussian 16 at Wed May  5 17:25:49 2021.
