 Gaussian 16, Revision A.03,
 Gaussian 16:  EM64L-G16RevA.03 25-Dec-2016

 -------------
 #p 6-31g* mp2
 -------------

 ------------------------------------------------------
 Input file generated by CHIRIPA (05-May-2021 14:51:09)
 ------------------------------------------------------
 Symbolic Z-matrix:
 Charge =  0 Multiplicity = 1

                         Standard orientation:
 ---------------------------------------------------------------------
 Center     Atomic      Atomic             Coordinates (Angstroms)
 Number     Number       Type             X           Y           Z
 ---------------------------------------------------------------------
      1          6           0       -4.399040   -0.206082   -0.493624
      2          6           0       -5.848357    0.004847   -0.054336
      3          6           0       -6.774033    0.356225   -1.219433
      4          1           0       -4.036749    0.704659   -0.989850
      5          1           0       -4.363910   -1.006710   -1.245392
      6          1           0       -5.880572    0.803895    0.697396
      7          1           0       -6.207179   -0.906434    0.441073
      8          1           0       -6.771589   -0.442773   -1.967896
      9          1           0       -6.443127    1.277274   -1.710117
     10          1           0       -7.805127    0.502690   -0.882904
     11          6           0       -3.461460   -0.558012    0.659986
     12          6           0       -2.012143   -0.768940    0.220698
     13          6           0       -1.086467   -1.120319    1.385795
     14          1           0       -3.496590    0.242617    1.411754
     15          1           0       -3.823751   -1.468753    1.156213
     16          1           0       -1.653321    0.142341   -0.274711
     17          1           0       -1.979928   -1.567989   -0.531034
     18          1           0       -1.417374   -2.041368    1.876479
     19          1           0       -1.088911   -0.321320    2.134258
     20          1           0       -0.055373   -1.266783    1.049266
     21          6           0        4.680369    0.398013   -0.226357
     22          6           0        5.285722   -0.989067   -0.444395
     23          6           0        6.787062   -0.940647   -0.729753
     24          1           0        4.866332    1.016123   -1.115348
     25          1           0        5.197765    0.888967    0.609502
     26          1           0        4.766410   -1.477802   -1.278703
     27          1           0        5.098129   -1.604007    0.445140
     28          1           0        7.323023   -0.476808    0.104632
     29          1           0        6.989419   -0.349886   -1.629005
     30          1           0        7.199223   -1.942979   -0.882447
     31          6           0        3.180132    0.366080    0.059995
     32          6           0        2.574778    1.753160    0.278034
     33          6           0        1.073438    1.704741    0.563391
     34          1           0        2.662735   -0.124873   -0.775864
     35          1           0        2.994169   -0.252030    0.948985
     36          1           0        2.762371    2.368099   -0.611502
     37          1           0        3.094090    2.241895    1.112341
     38          1           0        0.871081    1.113979    1.462643
     39          1           0        0.537477    1.240901   -0.270995
     40          1           0        0.661276    2.707071    0.716085
 ---------------------------------------------------------------------

 SCF Done:  E(RHF) =  -470.732050353     A.U. after   11 cycles
 E2 =    -0.1583664831D+01 EUMP2 =    -0.47231571518438D+03

 The electronic state is 1-A.
 Alpha  occ. eigenvalues --  -11.21604 -11.21575 -11.21573 -11.21513 -11.21412
 Alpha  occ. eigenvalues --  -11.21359 -11.21353 -11.21297 -11.21072 -11.21050
 Alpha  occ. eigenvalues --  -11.20959 -11.20951  -1.08436  -1.08373  -1.03571
 Alpha  occ. eigenvalues --   -1.03426  -0.96056  -0.95845  -0.87062  -0.86877
 Alpha  occ. eigenvalues --   -0.79597  -0.79542  -0.78252  -0.78193  -0.65060
 Alpha  occ. eigenvalues --   -0.65018  -0.60928  -0.60914  -0.59479  -0.59199
 Alpha  occ. eigenvalues --   -0.57725  -0.57381  -0.55364  -0.55156  -0.52714
 Alpha  occ. eigenvalues --   -0.52642  -0.52366  -0.52240  -0.50157  -0.49660
 Alpha  occ. eigenvalues --   -0.47884  -0.47817  -0.46826  -0.46365  -0.45819
 Alpha  occ. eigenvalues --   -0.45735  -0.45698  -0.45545  -0.43786  -0.43702
 Alpha virt. eigenvalues --    0.21847   0.22961   0.23499   0.24965   0.25921
 Alpha virt. eigenvalues --    0.26487   0.26915   0.27494   0.27728   0.29463
 Alpha virt. eigenvalues --    0.29917   0.30404   0.31410   0.32019   0.32309

 Mulliken charges:
               1
     1  C   -0.298350
     2  C   -0.299601
     3  C   -0.475682
     4  H    0.149587
     5  H    0.149305
     6  H    0.151923
     7  H    0.151882
     8  H    0.155092
     9  H    0.155122
    10  H    0.160157
    11  C   -0.297960
    12  C   -0.303879
    13  C   -0.477026
    14  H    0.149683
    15  H    0.149396
    16  H    0.156350
    17  H    0.151144
    18  H    0.154004
    19  H    0.155401
    20  H    0.162958
    21  C   -0.298199
    22  C   -0.299710
    23  C   -0.475710
    24  H    0.149760
    25  H    0.149640
    26  H    0.151893
    27  H    0.151991
    28  H    0.155211
    29  H    0.155182
    30  H    0.160273
    31  C   -0.299505
    32  C   -0.299457
    33  C   -0.481657
    34  H    0.149378
    35  H    0.150122
    36  H    0.151436
    37  H    0.151591
    38  H    0.161521
    39  H    0.158083
    40  H    0.158651
 Sum of Mulliken charges =  -0.00000

 Dipole moment (field-independent basis, Debye):
    X=              0.0154    Y=              0.0050    Z=              0.0105  Tot=              0.0193
 Quadrupole moment (field-independent basis, Debye-Ang):
   XX=            -86.6691   YY=            -83.9935   ZZ=            -84.3380
   XY=              0.4464   XZ=             -0.1018   YZ=              0.2677

 Normal termination of Gaussian 16 at Wed May  5 22:57:49 2021.
