 Gaussian 16, Revision A.03,
 Gaussian 16:  EM64L-G16RevA.03 25-Dec-2016

 -------------
 #p 6-31g* mp2
 -------------

 ------------------------------------------------------
 Input file generated by CHIRIPA (05-May-2021 14:51:08)
 ------------------------------------------------------
 Symbolic Z-matrix:
 Charge =  0 Multiplicity = 1

                         Standard orientation:
 ---------------------------------------------------------------------
 Center     Atomic      Atomic             Coordinates (Angstroms)
 Number     Number       Type             X           Y           Z
 ---------------------------------------------------------------------
      1          6           0       -2.517624   -1.300251    0.528032
      2          6           0       -1.043735   -1.645742    0.312925
      3          6           0       -0.546807   -2.734524    1.264455
      4          1           0       -2.663632   -0.975506    1.567343
      5          1           0       -3.122801   -2.207874    0.396208
      6          1           0       -0.441650   -0.737450    0.443754
      7          1           0       -0.901183   -1.969520   -0.726047
      8          1           0       -1.122324   -3.656042    1.129597
      9          1           0       -0.660180   -2.416972    2.306044
     10          1           0        0.509149   -2.965904    1.093339
     11          6           0       -3.029081   -0.213362   -0.415796
     12          6           0       -4.502970    0.132128   -0.200689
     13          6           0       -4.999898    1.220911   -1.152219
     14          1           0       -2.423904    0.694260   -0.283973
     15          1           0       -2.883073   -0.538108   -1.455107
     16          1           0       -4.645522    0.455906    0.838283
     17          1           0       -5.105055   -0.776163   -0.331518
     18          1           0       -4.886525    0.903358   -2.193808
     19          1           0       -4.424381    2.142428   -1.017361
     20          1           0       -6.055854    1.452290   -0.981104
     21          6           0        2.905905    0.004780   -0.038276
     22          6           0        4.069651   -0.427158   -0.931087
     23          6           0        4.322524   -1.934374   -0.884709
     24          1           0        3.112179   -0.302186    0.996212
     25          1           0        1.997314   -0.530081   -0.347759
     26          1           0        4.975475    0.109392   -0.620905
     27          1           0        3.860669   -0.118958   -1.963538
     28          1           0        3.435082   -2.484210   -1.214450
     29          1           0        4.556222   -2.254564    0.135812
     30          1           0        5.158596   -2.221225   -1.530124
     31          6           0        2.640800    1.508833   -0.073959
     32          6           0        1.477054    1.940772    0.818851
     33          6           0        1.224181    3.447987    0.772474
     34          1           0        3.549391    2.043694    0.235523
     35          1           0        2.434525    1.815799   -1.108448
     36          1           0        1.686036    1.632572    1.851302
     37          1           0        0.571230    1.404222    0.508669
     38          1           0        0.990483    3.768177   -0.248048
     39          1           0        2.111622    3.997824    1.102214
     40          1           0        0.388109    3.734839    1.417888
 ---------------------------------------------------------------------

 SCF Done:  E(RHF) =  -470.733016133     A.U. after   11 cycles
 E2 =    -0.1583910617D+01 EUMP2 =    -0.47231692674986D+03

 The electronic state is 1-A.
 Alpha  occ. eigenvalues --  -11.21644 -11.21616 -11.21601 -11.21569 -11.21422
 Alpha  occ. eigenvalues --  -11.21410 -11.21358 -11.21336 -11.21114 -11.21082
 Alpha  occ. eigenvalues --  -11.21081 -11.21043  -1.08475  -1.08415  -1.03556
 Alpha  occ. eigenvalues --   -1.03530  -0.96006  -0.95971  -0.87019  -0.86991
 Alpha  occ. eigenvalues --   -0.79660  -0.79582  -0.78406  -0.78115  -0.65215
 Alpha  occ. eigenvalues --   -0.64952  -0.61018  -0.60869  -0.59368  -0.59352
 Alpha  occ. eigenvalues --   -0.57670  -0.57537  -0.55301  -0.55246  -0.52712
 Alpha  occ. eigenvalues --   -0.52658  -0.52444  -0.52384  -0.49955  -0.49917
 Alpha  occ. eigenvalues --   -0.48064  -0.47872  -0.46889  -0.46574  -0.46126
 Alpha  occ. eigenvalues --   -0.45781  -0.45745  -0.45076  -0.43803  -0.43777
 Alpha virt. eigenvalues --    0.20872   0.22664   0.23644   0.24097   0.25595
 Alpha virt. eigenvalues --    0.26748   0.26988   0.27423   0.27615   0.29580
 Alpha virt. eigenvalues --    0.30778   0.31549   0.31642   0.31874   0.32462

 Mulliken charges:
               1
     1  C   -0.297320
     2  C   -0.310766
     3  C   -0.476131
     4  H    0.149687
     5  H    0.149560
     6  H    0.163063
     7  H    0.150554
     8  H    0.154944
     9  H    0.155149
    10  H    0.161567
    11  C   -0.299838
    12  C   -0.299601
    13  C   -0.475775
    14  H    0.149871
    15  H    0.149495
    16  H    0.152086
    17  H    0.152131
    18  H    0.155101
    19  H    0.155287
    20  H    0.160345
    21  C   -0.304826
    22  C   -0.299399
    23  C   -0.476010
    24  H    0.149328
    25  H    0.157234
    26  H    0.151910
    27  H    0.151932
    28  H    0.155132
    29  H    0.155158
    30  H    0.160402
    31  C   -0.297852
    32  C   -0.307417
    33  C   -0.475188
    34  H    0.149642
    35  H    0.149601
    36  H    0.151858
    37  H    0.158299
    38  H    0.155373
    39  H    0.155541
    40  H    0.159874
 Sum of Mulliken charges =  -0.00000

 Dipole moment (field-independent basis, Debye):
    X=              0.0094    Y=              0.0064    Z=              0.0025  Tot=              0.0116
 Quadrupole moment (field-independent basis, Debye-Ang):
   XX=            -84.6682   YY=            -86.0466   ZZ=            -84.0828
   XY=              0.9874   XZ=              0.3905   YZ=              0.9899

 Normal termination of Gaussian 16 at Thu May  6 08:27:25 2021.
