 Gaussian 16, Revision A.03,
 Gaussian 16:  EM64L-G16RevA.03 25-Dec-2016

 -------------
 #p 6-31g* mp2
 -------------

 ------------------------------------------------------
 Input file generated by CHIRIPA (05-May-2021 14:57:24)
 ------------------------------------------------------
 Symbolic Z-matrix:
 Charge =  0 Multiplicity = 1

                         Standard orientation:
 ---------------------------------------------------------------------
 Center     Atomic      Atomic             Coordinates (Angstroms)
 Number     Number       Type             X           Y           Z
 ---------------------------------------------------------------------
      1          6           0        2.656959    2.215716    0.992431
      2          6           0        3.964891    2.074376    0.517185
      3          6           0        4.395335    0.860620   -0.026930
      4          6           0        3.487387   -0.195812   -0.080514
      5          6           0        2.177880   -0.086134    0.384730
      6          6           0        1.769193    1.136912    0.924806
      7          1           0        2.331031    3.162200    1.413543
      8          1           0        4.656510    2.910488    0.568427
      9          1           0        5.402261    0.723720   -0.402133
     10          1           0        1.511288   -0.937551    0.320208
     11          1           0        0.752846    1.243798    1.293125
     12          7           0        3.931562   -1.485679   -0.654406
     13          8           0        3.112367   -2.401251   -0.690266
     14          8           0        5.090490   -1.556681   -1.057496
     15          6           0       -3.547201   -2.337698    0.966511
     16          6           0       -2.564751   -1.445945    1.409331
     17          6           0       -2.481676   -0.157500    0.873090
     18          6           0       -3.401322    0.207605   -0.108868
     19          6           0       -4.391507   -0.658088   -0.570820
     20          6           0       -4.455842   -1.941621   -0.020412
     21          1           0       -3.604456   -3.336685    1.388580
     22          1           0       -1.857762   -1.750814    2.175665
     23          1           0       -1.731108    0.552969    1.197589
     24          1           0       -5.082290   -0.325414   -1.336043
     25          1           0       -5.219875   -2.632061   -0.366231
     26          7           0       -3.323294    1.569025   -0.684063
     27          8           0       -4.145303    1.866396   -1.548070
     28          8           0       -2.441604    2.312955   -0.260003
 ---------------------------------------------------------------------

 SCF Done:  E(RHF) =  -868.337817466     A.U. after   16 cycles
 E2 =    -0.2599484275D+01 EUMP2 =    -0.87093730174173D+03

 The electronic state is 1-A.
 Alpha  occ. eigenvalues --  -20.61345 -20.61310 -20.60818 -20.60805 -15.86382
 Alpha  occ. eigenvalues --  -15.85868 -11.31730 -11.31180 -11.28404 -11.28220
 Alpha  occ. eigenvalues --  -11.27945 -11.27789 -11.27727 -11.27430 -11.27315
 Alpha  occ. eigenvalues --  -11.27215 -11.26787 -11.26706  -1.60398  -1.59890
 Alpha  occ. eigenvalues --   -1.39958  -1.39446  -1.19878  -1.19344  -1.09257
 Alpha  occ. eigenvalues --   -1.08734  -1.05293  -1.04756  -0.96111  -0.95582
 Alpha  occ. eigenvalues --   -0.86683  -0.86144  -0.82955  -0.82433  -0.78033
 Alpha  occ. eigenvalues --   -0.77493  -0.72605  -0.72088  -0.71714  -0.71211
 Alpha  occ. eigenvalues --   -0.70984  -0.70427  -0.65532  -0.65316  -0.64999
 Alpha  occ. eigenvalues --   -0.64753  -0.62706  -0.62070  -0.55745  -0.55206
 Alpha  occ. eigenvalues --   -0.53591  -0.53417  -0.53060  -0.52819  -0.49374
 Alpha  occ. eigenvalues --   -0.49342  -0.48848  -0.48837  -0.45367  -0.44864
 Alpha  occ. eigenvalues --   -0.37809  -0.37284  -0.36891  -0.36352
 Alpha virt. eigenvalues --    0.04515   0.05060   0.10757   0.11313   0.16028
 Alpha virt. eigenvalues --    0.16570   0.18712   0.22125   0.24694   0.27209
 Alpha virt. eigenvalues --    0.28302   0.29352   0.29722   0.31202   0.32239

 Mulliken charges:
               1
     1  C   -0.170285
     2  C   -0.218504
     3  C   -0.170651
     4  C    0.158685
     5  C   -0.173066
     6  C   -0.217788
     7  H    0.230136
     8  H    0.224404
     9  H    0.275664
    10  H    0.270898
    11  H    0.224001
    12  N    0.488381
    13  O   -0.462781
    14  O   -0.459875
    15  C   -0.169126
    16  C   -0.220233
    17  C   -0.177553
    18  C    0.160059
    19  C   -0.169260
    20  C   -0.217656
    21  H    0.229329
    22  H    0.223997
    23  H    0.271990
    24  H    0.277570
    25  H    0.226487
    26  N    0.487920
    27  O   -0.456458
    28  O   -0.466284
 Sum of Mulliken charges =  -0.00000

 Dipole moment (field-independent basis, Debye):
    X=             -2.0072    Y=             -0.2676    Z=              3.9746  Tot=              4.4607
 Quadrupole moment (field-independent basis, Debye-Ang):
   XX=           -105.8594   YY=           -108.2968   ZZ=           -105.0407
   XY=             36.5206   XZ=              2.3036   YZ=              0.4275

 Normal termination of Gaussian 16 at Wed May  5 17:53:16 2021.
