 Gaussian 16, Revision A.03,
 Gaussian 16:  EM64L-G16RevA.03 25-Dec-2016

 -------------
 #p 6-31g* mp2
 -------------

 ------------------------------------------------------
 Input file generated by CHIRIPA (05-May-2021 14:53:18)
 ------------------------------------------------------
 Symbolic Z-matrix:
 Charge =  0 Multiplicity = 1

                         Standard orientation:
 ---------------------------------------------------------------------
 Center     Atomic      Atomic             Coordinates (Angstroms)
 Number     Number       Type             X           Y           Z
 ---------------------------------------------------------------------
      1          6           0        4.163985   -0.247363    0.013802
      2          6           0        4.442773    1.127677   -0.594085
      3          6           0        5.914923    1.529238   -0.497553
      4          1           0        4.476832   -0.245907    1.066926
      5          1           0        4.783960   -0.998187   -0.495402
      6          1           0        3.821437    1.875478   -0.084819
      7          1           0        4.129049    1.123006   -1.645832
      8          1           0        6.546929    0.805100   -1.021760
      9          1           0        6.237569    1.561847    0.548122
     10          1           0        6.091775    2.515404   -0.938075
     11          6           0        2.696598   -0.662816   -0.075094
     12          6           0        2.417810   -2.037856    0.532793
     13          6           0        0.945660   -2.439417    0.436261
     14          1           0        2.076623    0.088008    0.434110
     15          1           0        2.383751   -0.664272   -1.128218
     16          1           0        2.731534   -2.033185    1.584540
     17          1           0        3.039146   -2.785657    0.023527
     18          1           0        0.623013   -2.472025   -0.609414
     19          1           0        0.313654   -1.715279    0.960469
     20          1           0        0.768808   -3.425583    0.876783
     21          6           0       -2.281350    2.776662    0.611508
     22          6           0       -3.036262    2.445711   -0.518581
     23          6           0       -3.263486    1.107580   -0.853725
     24          6           0       -2.718447    0.121474   -0.032862
     25          6           0       -1.962047    0.419299    1.099591
     26          6           0       -1.747593    1.764184    1.415570
     27          1           0       -2.109797    3.818777    0.864412
     28          1           0       -3.452010    3.229918   -1.144853
     29          1           0       -3.844152    0.823214   -1.722852
     30          1           0       -1.560516   -0.384511    1.704635
     31          1           0       -1.160924    2.018254    2.293814
     32          7           0       -2.952239   -1.298721   -0.377519
     33          8           0       -2.461163   -2.148846    0.361919
     34          8           0       -3.622135   -1.534853   -1.380573
 ---------------------------------------------------------------------

 SCF Done:  E(RHF) =  -669.534954640     A.U. after   15 cycles
 E2 =    -0.2092481321D+01 EUMP2 =    -0.67162743596163D+03

 The electronic state is 1-A.
 Alpha  occ. eigenvalues --  -20.60817 -20.60784 -15.85834 -11.31222 -11.27795
 Alpha  occ. eigenvalues --  -11.27787 -11.27536 -11.26818 -11.26805 -11.21668
 Alpha  occ. eigenvalues --  -11.21360 -11.21281 -11.21220 -11.21151 -11.20390
 Alpha  occ. eigenvalues --   -1.59866  -1.39421  -1.19396  -1.08786  -1.08327
 Alpha  occ. eigenvalues --   -1.04806  -1.03351  -0.95794  -0.95601  -0.86783
 Alpha  occ. eigenvalues --   -0.86200  -0.82454  -0.79428  -0.78149  -0.77480
 Alpha  occ. eigenvalues --   -0.72060  -0.71180  -0.70514  -0.65053  -0.64988
 Alpha  occ. eigenvalues --   -0.64804  -0.62188  -0.60746  -0.59169  -0.57388
 Alpha  occ. eigenvalues --   -0.55333  -0.55056  -0.53126  -0.52921  -0.52419
 Alpha  occ. eigenvalues --   -0.52181  -0.49747  -0.48820  -0.48818  -0.47725
 Alpha  occ. eigenvalues --   -0.46474  -0.45711  -0.45608  -0.44696  -0.43589
 Alpha  occ. eigenvalues --   -0.37370  -0.36394
 Alpha virt. eigenvalues --    0.05005   0.11170   0.16477   0.21035   0.22951
 Alpha virt. eigenvalues --    0.24322   0.26158   0.27067   0.27649   0.27748
 Alpha virt. eigenvalues --    0.28998   0.30491   0.31489   0.31879   0.32234

 Mulliken charges:
               1
     1  C   -0.297782
     2  C   -0.298874
     3  C   -0.475526
     4  H    0.148244
     5  H    0.150762
     6  H    0.148473
     7  H    0.152409
     8  H    0.156205
     9  H    0.154573
    10  H    0.159266
    11  C   -0.296755
    12  C   -0.302973
    13  C   -0.467931
    14  H    0.142970
    15  H    0.150697
    16  H    0.147862
    17  H    0.151874
    18  H    0.158444
    19  H    0.148379
    20  H    0.165166
    21  C   -0.170563
    22  C   -0.218248
    23  C   -0.170917
    24  C    0.158762
    25  C   -0.170701
    26  C   -0.219578
    27  H    0.225761
    28  H    0.223621
    29  H    0.275698
    30  H    0.277540
    31  H    0.223473
    32  N    0.488027
    33  O   -0.457871
    34  O   -0.460485
 Sum of Mulliken charges =  -0.00000

 Dipole moment (field-independent basis, Debye):
    X=              0.6788    Y=              4.9032    Z=              1.1588  Tot=              5.0838
 Quadrupole moment (field-independent basis, Debye-Ang):
   XX=            -99.8134   YY=            -93.3342   ZZ=            -91.1758
   XY=            -15.0675   XZ=             -1.1458   YZ=             -0.8432

 Normal termination of Gaussian 16 at Thu May  6 17:19:29 2021.
