 Gaussian 16, Revision A.03,
 Gaussian 16:  EM64L-G16RevA.03 25-Dec-2016

 -------------
 #p 6-31g* mp2
 -------------

 ------------------------------------------------------
 Input file generated by CHIRIPA (05-May-2021 14:57:27)
 ------------------------------------------------------
 Symbolic Z-matrix:
 Charge =  0 Multiplicity = 1

                         Standard orientation:
 ---------------------------------------------------------------------
 Center     Atomic      Atomic             Coordinates (Angstroms)
 Number     Number       Type             X           Y           Z
 ---------------------------------------------------------------------
      1          6           0       -1.884227    1.398035    1.290165
      2          6           0       -2.535018    0.357970    1.961921
      3          6           0       -3.479099   -0.433251    1.300686
      4          6           0       -3.749295   -0.155300   -0.038354
      5          6           0       -3.117625    0.873775   -0.734980
      6          6           0       -2.177092    1.652170   -0.053772
      7          1           0       -1.152221    2.007693    1.811586
      8          1           0       -2.309573    0.158316    3.005644
      9          1           0       -3.997682   -1.244759    1.796613
     10          1           0       -3.363403    1.048680   -1.775374
     11          1           0       -1.673226    2.459236   -0.577995
     12          7           0       -4.746873   -0.986141   -0.748946
     13          8           0       -4.967150   -0.720904   -1.928676
     14          8           0       -5.289609   -1.886860   -0.112722
     15          6           0        1.671916    1.663285   -0.051663
     16          6           0        2.612715    1.700727   -1.086080
     17          6           0        3.676724    0.794197   -1.111269
     18          6           0        3.769820   -0.140656   -0.081380
     19          6           0        2.848461   -0.203203    0.962879
     20          6           0        1.792580    0.713114    0.967717
     21          1           0        0.848525    2.371301   -0.040000
     22          1           0        2.521515    2.437550   -1.879062
     23          1           0        4.419161    0.800912   -1.900040
     24          1           0        2.965808   -0.949228    1.739471
     25          1           0        1.063421    0.681701    1.772320
     26          7           0        4.891937   -1.105541   -0.097275
     27          8           0        4.951637   -1.919418    0.821788
     28          8           0        5.690505   -1.029668   -1.028495
 ---------------------------------------------------------------------

 SCF Done:  E(RHF) =  -868.334951108     A.U. after   16 cycles
 E2 =    -0.2602120498D+01 EUMP2 =    -0.87093707160649D+03

 The electronic state is 1-A.
 Alpha  occ. eigenvalues --  -20.61413 -20.61408 -20.61189 -20.61183 -15.86475
 Alpha  occ. eigenvalues --  -15.86247 -11.32070 -11.31752 -11.28676 -11.28640
 Alpha  occ. eigenvalues --  -11.28599 -11.28344 -11.28319 -11.28234 -11.27852
 Alpha  occ. eigenvalues --  -11.27762 -11.27456 -11.27410  -1.60482  -1.60260
 Alpha  occ. eigenvalues --   -1.40030  -1.39810  -1.20290  -1.19953  -1.09701
 Alpha  occ. eigenvalues --   -1.09339  -1.05720  -1.05377  -0.96489  -0.96144
 Alpha  occ. eigenvalues --   -0.87146  -0.86797  -0.83286  -0.82983  -0.78262
 Alpha  occ. eigenvalues --   -0.77983  -0.72697  -0.72471  -0.71806  -0.71658
 Alpha  occ. eigenvalues --   -0.71584  -0.71033  -0.65964  -0.65818  -0.65617
 Alpha  occ. eigenvalues --   -0.65361  -0.63063  -0.62730  -0.56343  -0.55995
 Alpha  occ. eigenvalues --   -0.54094  -0.53830  -0.53646  -0.53448  -0.49471
 Alpha  occ. eigenvalues --   -0.49429  -0.49236  -0.49209  -0.45383  -0.45184
 Alpha  occ. eigenvalues --   -0.38496  -0.37841  -0.37256  -0.36936
 Alpha virt. eigenvalues --    0.04233   0.04542   0.10222   0.10672   0.15535
 Alpha virt. eigenvalues --    0.16030   0.17857   0.22461   0.24143   0.25526
 Alpha virt. eigenvalues --    0.27786   0.29191   0.30161   0.30556   0.32893

 Mulliken charges:
               1
     1  C   -0.174708
     2  C   -0.219219
     3  C   -0.168644
     4  C    0.160138
     5  C   -0.169049
     6  C   -0.216959
     7  H    0.218566
     8  H    0.225202
     9  H    0.279351
    10  H    0.278461
    11  H    0.217925
    12  N    0.487934
    13  O   -0.458024
    14  O   -0.457366
    15  C   -0.168222
    16  C   -0.218849
    17  C   -0.169730
    18  C    0.159479
    19  C   -0.170357
    20  C   -0.214896
    21  H    0.213883
    22  H    0.223927
    23  H    0.277832
    24  H    0.276873
    25  H    0.216078
    26  N    0.487954
    27  O   -0.459068
    28  O   -0.458513
 Sum of Mulliken charges =  -0.00000

 Dipole moment (field-independent basis, Debye):
    X=             -0.5709    Y=              6.0667    Z=              2.4447  Tot=              6.5656
 Quadrupole moment (field-independent basis, Debye-Ang):
   XX=           -159.9389   YY=           -105.9369   ZZ=            -98.2702
   XY=              3.2758   XZ=            -11.4954   YZ=             -5.6348

 Normal termination of Gaussian 16 at Fri May  7 02:04:34 2021.
