 Gaussian 16, Revision A.03,
 Gaussian 16:  EM64L-G16RevA.03 25-Dec-2016

 -------------
 #p 6-31g* mp2
 -------------

 ------------------------------------------------------
 Input file generated by CHIRIPA (05-May-2021 14:51:08)
 ------------------------------------------------------
 Symbolic Z-matrix:
 Charge =  0 Multiplicity = 1

                         Standard orientation:
 ---------------------------------------------------------------------
 Center     Atomic      Atomic             Coordinates (Angstroms)
 Number     Number       Type             X           Y           Z
 ---------------------------------------------------------------------
      1          6           0       -2.843556    0.879809   -0.403144
      2          6           0       -2.920885    2.143106    0.454811
      3          6           0       -3.014694    3.420238   -0.380608
      4          1           0       -1.972302    0.949068   -1.068775
      5          1           0       -3.729231    0.830624   -1.051646
      6          1           0       -2.036010    2.189179    1.102491
      7          1           0       -3.791947    2.070746    1.118612
      8          1           0       -3.906242    3.400514   -1.015710
      9          1           0       -2.140328    3.519619   -1.031922
     10          1           0       -3.068971    4.311183    0.252741
     11          6           0       -2.749354   -0.405138    0.417689
     12          6           0       -2.672025   -1.668434   -0.440266
     13          6           0       -2.578217   -2.945567    0.395154
     14          1           0       -1.863679   -0.355953    1.066191
     15          1           0       -3.620608   -0.474397    1.083320
     16          1           0       -1.800964   -1.596075   -1.104067
     17          1           0       -3.556900   -1.714508   -1.087946
     18          1           0       -3.452582   -3.044948    1.046467
     19          1           0       -1.686669   -2.925842    1.030255
     20          1           0       -2.523940   -3.836512   -0.238196
     21          6           0        3.184454    0.345780   -0.312010
     22          6           0        3.238806    1.576930    0.593143
     23          6           0        4.018417    2.735076   -0.030316
     24          1           0        4.208779    0.019975   -0.539064
     25          1           0        2.725245    0.624115   -1.270682
     26          1           0        3.696515    1.296035    1.550334
     27          1           0        2.214230    1.899728    0.818225
     28          1           0        3.560024    3.043408   -0.975519
     29          1           0        5.050730    2.436285   -0.239249
     30          1           0        4.044716    3.604785    0.633592
     31          6           0        2.408456   -0.820452    0.297464
     32          6           0        2.354105   -2.051602   -0.607688
     33          6           0        1.574493   -3.209746    0.015771
     34          1           0        2.867665   -1.098785    1.256137
     35          1           0        1.384131   -0.494646    0.524519
     36          1           0        3.378680   -2.374399   -0.832769
     37          1           0        1.896395   -1.770707   -1.564880
     38          1           0        0.542180   -2.910955    0.224704
     39          1           0        2.032886   -3.518079    0.960974
     40          1           0        1.548194   -4.079456   -0.648137
 ---------------------------------------------------------------------

 SCF Done:  E(RHF) =  -470.733214144     A.U. after   11 cycles
 E2 =    -0.1583220226D+01 EUMP2 =    -0.47231643436981D+03

 The electronic state is 1-A.
 Alpha  occ. eigenvalues --  -11.21651 -11.21645 -11.21644 -11.21629 -11.21461
 Alpha  occ. eigenvalues --  -11.21456 -11.21401 -11.21395 -11.21107 -11.21102
 Alpha  occ. eigenvalues --  -11.21078 -11.21043  -1.08492  -1.08462  -1.03598
 Alpha  occ. eigenvalues --   -1.03535  -0.96061  -0.95968  -0.87083  -0.86977
 Alpha  occ. eigenvalues --   -0.79668  -0.79589  -0.78309  -0.78270  -0.65244
 Alpha  occ. eigenvalues --   -0.64990  -0.61200  -0.60761  -0.59397  -0.59360
 Alpha  occ. eigenvalues --   -0.57665  -0.57589  -0.55583  -0.55046  -0.52727
 Alpha  occ. eigenvalues --   -0.52676  -0.52513  -0.52355  -0.50164  -0.49730
 Alpha  occ. eigenvalues --   -0.48036  -0.47848  -0.46774  -0.46541  -0.45944
 Alpha  occ. eigenvalues --   -0.45797  -0.45781  -0.45617  -0.43836  -0.43808
 Alpha virt. eigenvalues --    0.19498   0.23075   0.23664   0.25098   0.25584
 Alpha virt. eigenvalues --    0.26738   0.26850   0.27706   0.28872   0.29379
 Alpha virt. eigenvalues --    0.30353   0.31332   0.31526   0.31847   0.32206

 Mulliken charges:
               1
     1  C   -0.298256
     2  C   -0.299672
     3  C   -0.475705
     4  H    0.149142
     5  H    0.149841
     6  H    0.151701
     7  H    0.152227
     8  H    0.155325
     9  H    0.155024
    10  H    0.160495
    11  C   -0.299450
    12  C   -0.301626
    13  C   -0.478665
    14  H    0.149832
    15  H    0.150214
    16  H    0.152359
    17  H    0.152534
    18  H    0.155706
    19  H    0.157805
    20  H    0.161055
    21  C   -0.298253
    22  C   -0.299594
    23  C   -0.475719
    24  H    0.150022
    25  H    0.149352
    26  H    0.152116
    27  H    0.151444
    28  H    0.155179
    29  H    0.155326
    30  H    0.160441
    31  C   -0.299335
    32  C   -0.299263
    33  C   -0.483389
    34  H    0.149855
    35  H    0.149174
    36  H    0.152122
    37  H    0.151492
    38  H    0.163772
    39  H    0.154919
    40  H    0.160453
 Sum of Mulliken charges =  -0.00000

 Dipole moment (field-independent basis, Debye):
    X=             -0.0172    Y=             -0.0112    Z=              0.0052  Tot=              0.0212
 Quadrupole moment (field-independent basis, Debye-Ang):
   XX=            -83.1513   YY=            -86.4697   ZZ=            -84.9357
   XY=             -0.6193   XZ=              0.4984   YZ=              0.6023

 Normal termination of Gaussian 16 at Thu May  6 05:17:14 2021.
