 Gaussian 16, Revision A.03,
 Gaussian 16:  EM64L-G16RevA.03 25-Dec-2016

 -------------
 #p 6-31g* mp2
 -------------

 ------------------------------------------------------
 Input file generated by CHIRIPA (05-May-2021 14:57:21)
 ------------------------------------------------------
 Symbolic Z-matrix:
 Charge =  0 Multiplicity = 1

                         Standard orientation:
 ---------------------------------------------------------------------
 Center     Atomic      Atomic             Coordinates (Angstroms)
 Number     Number       Type             X           Y           Z
 ---------------------------------------------------------------------
      1          6           0       -1.840461   -1.976575    0.415974
      2          6           0       -2.665664   -2.136542   -0.702047
      3          6           0       -3.708059   -1.238353   -0.949471
      4          6           0       -3.897650   -0.186813   -0.054145
      5          6           0       -3.092475   -0.000723    1.068509
      6          6           0       -2.056120   -0.911055    1.296132
      7          1           0       -1.033049   -2.679027    0.600488
      8          1           0       -2.500518   -2.963108   -1.387292
      9          1           0       -4.361899   -1.338625   -1.807292
     10          1           0       -3.281733    0.833047    1.733661
     11          1           0       -1.416828   -0.784353    2.165211
     12          7           0       -4.997989    0.770487   -0.305601
     13          8           0       -5.144223    1.688615    0.498323
     14          8           0       -5.693367    0.584564   -1.301854
     15          6           0        1.652034    1.711890    0.497686
     16          6           0        1.774702    0.420118    1.019987
     17          6           0        2.914022   -0.346526    0.757774
     18          6           0        3.915866    0.212402   -0.034184
     19          6           0        3.823021    1.496416   -0.568953
     20          6           0        2.674782    2.244977   -0.293722
     21          1           0        0.763519    2.300414    0.706436
     22          1           0        0.982007    0.003545    1.634925
     23          1           0        3.034903   -1.349228    1.149427
     24          1           0        4.629926    1.884583   -1.178582
     25          1           0        2.582233    3.247905   -0.700677
     26          7           0        5.126734   -0.589637   -0.318669
     27          8           0        5.995254   -0.074349   -1.019230
     28          8           0        5.184365   -1.718378    0.164301
 ---------------------------------------------------------------------

 SCF Done:  E(RHF) =  -868.336970100     A.U. after   16 cycles
 E2 =    -0.2599961691D+01 EUMP2 =    -0.87093693179042D+03

 The electronic state is 1-A.
 Alpha  occ. eigenvalues --  -20.61397 -20.61383 -20.61211 -20.61197 -15.86453
 Alpha  occ. eigenvalues --  -15.86264 -11.31919 -11.31675 -11.28578 -11.28469
 Alpha  occ. eigenvalues --  -11.28314 -11.28286 -11.28215 -11.27987 -11.27660
 Alpha  occ. eigenvalues --  -11.27462 -11.27359 -11.27212  -1.60467  -1.60281
 Alpha  occ. eigenvalues --   -1.40018  -1.39834  -1.20117  -1.19856  -1.09490
 Alpha  occ. eigenvalues --   -1.09233  -1.05548  -1.05279  -0.96301  -0.96061
 Alpha  occ. eigenvalues --   -0.86960  -0.86657  -0.83139  -0.82905  -0.78183
 Alpha  occ. eigenvalues --   -0.77943  -0.72667  -0.72480  -0.71795  -0.71606
 Alpha  occ. eigenvalues --   -0.71211  -0.70947  -0.65788  -0.65708  -0.65510
 Alpha  occ. eigenvalues --   -0.65183  -0.62942  -0.62577  -0.56029  -0.55749
 Alpha  occ. eigenvalues --   -0.53897  -0.53702  -0.53574  -0.53286  -0.49435
 Alpha  occ. eigenvalues --   -0.49415  -0.49242  -0.49231  -0.45401  -0.45230
 Alpha  occ. eigenvalues --   -0.38123  -0.37798  -0.37162  -0.36849
 Alpha virt. eigenvalues --    0.04374   0.04614   0.10249   0.10899   0.15788
 Alpha virt. eigenvalues --    0.16102   0.18694   0.21941   0.24851   0.26981
 Alpha virt. eigenvalues --    0.28150   0.28618   0.29358   0.31154   0.31854

 Mulliken charges:
               1
     1  C   -0.168484
     2  C   -0.218084
     3  C   -0.169299
     4  C    0.158854
     5  C   -0.172690
     6  C   -0.223267
     7  H    0.227147
     8  H    0.227681
     9  H    0.278438
    10  H    0.275156
    11  H    0.217170
    12  N    0.487961
    13  O   -0.460598
    14  O   -0.457729
    15  C   -0.170469
    16  C   -0.216998
    17  C   -0.173071
    18  C    0.159064
    19  C   -0.170251
    20  C   -0.218384
    21  H    0.227880
    22  H    0.215013
    23  H    0.272834
    24  H    0.277382
    25  H    0.226542
    26  N    0.488091
    27  O   -0.458454
    28  O   -0.461436
 Sum of Mulliken charges =  -0.00000

 Dipole moment (field-independent basis, Debye):
    X=             -0.4839    Y=             -0.5187    Z=              1.6618  Tot=              1.8069
 Quadrupole moment (field-independent basis, Debye-Ang):
   XX=           -167.9526   YY=            -98.5620   ZZ=           -101.0967
   XY=             25.5174   XZ=              0.5798   YZ=              0.2982

 Normal termination of Gaussian 16 at Thu May  6 11:10:55 2021.
