 Gaussian 16, Revision A.03,
 Gaussian 16:  EM64L-G16RevA.03 25-Dec-2016

 -------------
 #p 6-31g* mp2
 -------------

 ------------------------------------------------------
 Input file generated by CHIRIPA (05-May-2021 14:55:22)
 ------------------------------------------------------
 Symbolic Z-matrix:
 Charge =  0 Multiplicity = 1

                         Standard orientation:
 ---------------------------------------------------------------------
 Center     Atomic      Atomic             Coordinates (Angstroms)
 Number     Number       Type             X           Y           Z
 ---------------------------------------------------------------------
      1          6           0       -5.174019   -1.753490    0.279686
      2          6           0       -5.557962   -0.476597    0.702360
      3          6           0       -4.696265    0.612819    0.543626
      4          6           0       -3.452426    0.388328   -0.044388
      5          6           0       -3.041075   -0.871853   -0.475694
      6          6           0       -3.919013   -1.946702   -0.306958
      7          1           0       -5.849714   -2.594117    0.406880
      8          1           0       -6.532010   -0.323588    1.158282
      9          1           0       -4.968072    1.611952    0.861859
     10          1           0       -2.063708   -0.993204   -0.926743
     11          1           0       -3.618172   -2.937242   -0.636154
     12          7           0       -2.531589    1.533934   -0.217728
     13          8           0       -1.441160    1.309836   -0.738670
     14          8           0       -2.917703    2.634265    0.170633
     15          6           0        3.920403    0.004982   -0.168020
     16          6           0        2.816857   -1.042202   -0.014484
     17          6           0        1.436315   -0.506302   -0.394891
     18          1           0        3.679262    0.876676    0.455637
     19          1           0        3.937521    0.359736   -1.207853
     20          1           0        2.802738   -1.395882    1.024422
     21          1           0        3.060749   -1.911583   -0.638432
     22          1           0        1.426987   -0.170973   -1.437037
     23          1           0        1.167509    0.347658    0.235264
     24          1           0        0.662433   -1.271310   -0.277716
     25          6           0        5.306328   -0.515750    0.208518
     26          6           0        6.409874    0.531435    0.054983
     27          6           0        7.790415   -0.004465    0.435390
     28          1           0        5.289209   -0.870502    1.248351
     29          1           0        5.547468   -1.387442   -0.415139
     30          1           0        6.165980    1.400816    0.678930
     31          1           0        6.423993    0.885115   -0.983924
     32          1           0        8.059221   -0.858426   -0.194767
     33          1           0        7.799743   -0.339795    1.477535
     34          1           0        8.564297    0.760543    0.318215
 ---------------------------------------------------------------------

 SCF Done:  E(RHF) =  -669.535590469     A.U. after   15 cycles
 E2 =    -0.2091313739D+01 EUMP2 =    -0.67162690420800D+03

 The electronic state is 1-A.
 Alpha  occ. eigenvalues --  -20.60805 -20.60791 -15.85835 -11.31194 -11.27768
 Alpha  occ. eigenvalues --  -11.27749 -11.27514 -11.26784 -11.26773 -11.21211
 Alpha  occ. eigenvalues --  -11.21001 -11.20954 -11.20805 -11.20759 -11.20205
 Alpha  occ. eigenvalues --   -1.59869  -1.39422  -1.19369  -1.08768  -1.07929
 Alpha  occ. eigenvalues --   -1.04771  -1.03004  -0.95623  -0.95416  -0.86444
 Alpha  occ. eigenvalues --   -0.86169  -0.82435  -0.79073  -0.77747  -0.77452
 Alpha  occ. eigenvalues --   -0.72055  -0.71187  -0.70479  -0.65024  -0.64778
 Alpha  occ. eigenvalues --   -0.64563  -0.62123  -0.60399  -0.58846  -0.57057
 Alpha  occ. eigenvalues --   -0.55277  -0.54704  -0.53103  -0.52883  -0.52143
 Alpha  occ. eigenvalues --   -0.51828  -0.49354  -0.48822  -0.48811  -0.47365
 Alpha  occ. eigenvalues --   -0.46117  -0.45288  -0.45212  -0.44748  -0.43271
 Alpha  occ. eigenvalues --   -0.37353  -0.36374
 Alpha virt. eigenvalues --    0.05024   0.11261   0.16505   0.21067   0.23330
 Alpha virt. eigenvalues --    0.24468   0.26354   0.27166   0.27707   0.28005
 Alpha virt. eigenvalues --    0.29195   0.30468   0.31541   0.32022   0.32315

 Mulliken charges:
               1
     1  C   -0.170574
     2  C   -0.218711
     3  C   -0.170751
     4  C    0.157157
     5  C   -0.173447
     6  C   -0.219511
     7  H    0.225596
     8  H    0.223422
     9  H    0.275526
    10  H    0.281296
    11  H    0.223599
    12  N    0.489869
    13  O   -0.460391
    14  O   -0.460530
    15  C   -0.298068
    16  C   -0.302079
    17  C   -0.468819
    18  H    0.152306
    19  H    0.150356
    20  H    0.148286
    21  H    0.146759
    22  H    0.158843
    23  H    0.169731
    24  H    0.143810
    25  C   -0.297700
    26  C   -0.299436
    27  C   -0.475423
    28  H    0.148140
    29  H    0.147792
    30  H    0.152699
    31  H    0.152074
    32  H    0.154158
    33  H    0.154411
    34  H    0.159612
 Sum of Mulliken charges =  -0.00000

 Dipole moment (field-independent basis, Debye):
    X=             -3.3774    Y=             -3.8813    Z=              0.5890  Tot=              5.1786
 Quadrupole moment (field-independent basis, Debye-Ang):
   XX=            -72.1967   YY=            -96.6530   ZZ=            -93.8275
   XY=             11.1103   XZ=             -4.1380   YZ=              2.2355

 Normal termination of Gaussian 16 at Wed May  5 22:18:04 2021.
