 Gaussian 16, Revision A.03,
 Gaussian 16:  EM64L-G16RevA.03 25-Dec-2016

 -------------
 #p 6-31g* mp2
 -------------

 ------------------------------------------------------
 Input file generated by CHIRIPA (05-May-2021 14:53:16)
 ------------------------------------------------------
 Symbolic Z-matrix:
 Charge =  0 Multiplicity = 1

                         Standard orientation:
 ---------------------------------------------------------------------
 Center     Atomic      Atomic             Coordinates (Angstroms)
 Number     Number       Type             X           Y           Z
 ---------------------------------------------------------------------
      1          6           0       -3.985893   -0.569515   -0.453572
      2          6           0       -3.489112   -1.719926    0.422640
      3          6           0       -3.750294   -3.092090   -0.199246
      4          1           0       -5.062528   -0.692957   -0.634028
      5          1           0       -3.495750   -0.627475   -1.435303
      6          1           0       -3.979009   -1.659004    1.402898
      7          1           0       -2.413573   -1.593627    0.601190
      8          1           0       -3.247962   -3.177813   -1.168223
      9          1           0       -4.822293   -3.243563   -0.361960
     10          1           0       -3.387262   -3.899950    0.443740
     11          6           0       -3.731945    0.808626    0.154678
     12          6           0       -4.228725    1.959037   -0.721534
     13          6           0       -3.967544    3.331201   -0.099647
     14          1           0       -4.222088    0.866586    1.136409
     15          1           0       -2.655310    0.932068    0.335134
     16          1           0       -5.304264    1.832738   -0.900084
     17          1           0       -3.738829    1.898115   -1.701792
     18          1           0       -2.895545    3.482674    0.063066
     19          1           0       -4.469875    3.416924    0.869329
     20          1           0       -4.330576    4.139061   -0.742634
     21          6           0        0.755907   -0.767014    1.016566
     22          6           0        1.597886    0.049512    1.778718
     23          6           0        2.851628    0.428990    1.290173
     24          6           0        3.233160   -0.028280    0.029765
     25          6           0        2.416800   -0.842770   -0.753469
     26          6           0        1.167326   -1.209769   -0.244871
     27          1           0       -0.216373   -1.056954    1.403869
     28          1           0        1.280997    0.394855    2.758701
     29          1           0        3.523337    1.060267    1.859131
     30          1           0        2.760345   -1.171292   -1.726848
     31          1           0        0.515517   -1.843983   -0.838977
     32          7           0        4.558181    0.366850   -0.498051
     33          8           0        4.870965   -0.049289   -1.611438
     34          8           0        5.258861    1.085210    0.211629
 ---------------------------------------------------------------------

 SCF Done:  E(RHF) =  -669.535563969     A.U. after   15 cycles
 E2 =    -0.2091399674D+01 EUMP2 =    -0.67162696364366D+03

 The electronic state is 1-A.
 Alpha  occ. eigenvalues --  -20.60766 -20.60761 -15.85820 -11.31191 -11.27759
 Alpha  occ. eigenvalues --  -11.27754 -11.27476 -11.26776 -11.26764 -11.22777
 Alpha  occ. eigenvalues --  -11.22279 -11.22211 -11.22145 -11.22056 -11.21563
 Alpha  occ. eigenvalues --   -1.59841  -1.39395  -1.19362  -1.09287  -1.08754
 Alpha  occ. eigenvalues --   -1.04766  -1.04350  -0.96767  -0.95591  -0.87785
 Alpha  occ. eigenvalues --   -0.86162  -0.82425  -0.80447  -0.79084  -0.77469
 Alpha  occ. eigenvalues --   -0.72037  -0.71165  -0.70488  -0.65926  -0.65012
 Alpha  occ. eigenvalues --   -0.64764  -0.62118  -0.61745  -0.60160  -0.58381
 Alpha  occ. eigenvalues --   -0.56047  -0.55288  -0.53463  -0.53183  -0.53093
 Alpha  occ. eigenvalues --   -0.52855  -0.50714  -0.48805  -0.48792  -0.48730
 Alpha  occ. eigenvalues --   -0.47489  -0.46614  -0.46520  -0.44799  -0.44597
 Alpha  occ. eigenvalues --   -0.37337  -0.36371
 Alpha virt. eigenvalues --    0.05047   0.11275   0.16462   0.19102   0.22670
 Alpha virt. eigenvalues --    0.23665   0.24925   0.26061   0.27126   0.27593
 Alpha virt. eigenvalues --    0.29128   0.30236   0.30964   0.31322   0.32111

 Mulliken charges:
               1
     1  C   -0.298037
     2  C   -0.304669
     3  C   -0.475994
     4  H    0.153740
     5  H    0.150224
     6  H    0.155288
     7  H    0.141567
     8  H    0.154498
     9  H    0.160364
    10  H    0.161210
    11  C   -0.299612
    12  C   -0.300126
    13  C   -0.476441
    14  H    0.150054
    15  H    0.146886
    16  H    0.153541
    17  H    0.153662
    18  H    0.156011
    19  H    0.155221
    20  H    0.162889
    21  C   -0.176780
    22  C   -0.219312
    23  C   -0.170822
    24  C    0.158408
    25  C   -0.170980
    26  C   -0.220945
    27  H    0.234268
    28  H    0.224171
    29  H    0.275597
    30  H    0.275592
    31  H    0.223307
    32  N    0.488026
    33  O   -0.460453
    34  O   -0.460352
 Sum of Mulliken charges =  -0.00000

 Dipole moment (field-independent basis, Debye):
    X=             -4.8685    Y=             -1.3543    Z=              1.8211  Tot=              5.3715
 Quadrupole moment (field-independent basis, Debye-Ang):
   XX=           -123.7762   YY=            -94.7850   ZZ=            -91.2257
   XY=             -3.8894   XZ=              6.4544   YZ=              2.0883

 Normal termination of Gaussian 16 at Thu May  6 05:54:53 2021.
