 Gaussian 16, Revision A.03,
 Gaussian 16:  EM64L-G16RevA.03 25-Dec-2016

 -------------
 #p 6-31g* mp2
 -------------

 ------------------------------------------------------
 Input file generated by CHIRIPA (05-May-2021 14:55:19)
 ------------------------------------------------------
 Symbolic Z-matrix:
 Charge =  0 Multiplicity = 1

                         Standard orientation:
 ---------------------------------------------------------------------
 Center     Atomic      Atomic             Coordinates (Angstroms)
 Number     Number       Type             X           Y           Z
 ---------------------------------------------------------------------
      1          6           0        2.701773    1.889444    1.185847
      2          6           0        3.657649    1.315731    0.341054
      3          6           0        3.426503    0.070098   -0.250147
      4          6           0        2.223154   -0.576967    0.026525
      5          6           0        1.251245   -0.031384    0.863795
      6          6           0        1.503734    1.215244    1.444066
      7          1           0        2.889623    2.857469    1.640861
      8          1           0        4.588960    1.837043    0.138723
      9          1           0        4.149262   -0.397012   -0.908057
     10          1           0        0.332333   -0.575084    1.046580
     11          1           0        0.759581    1.658391    2.099735
     12          7           0        1.967153   -1.896190   -0.593567
     13          8           0        0.899010   -2.445968   -0.333854
     14          8           0        2.839490   -2.355439   -1.327568
     15          6           0       -2.783344    0.967241   -0.724081
     16          6           0       -1.984930    2.191880   -0.275997
     17          6           0       -1.760446    3.197086   -1.406023
     18          1           0       -2.255685    0.476826   -1.553547
     19          1           0       -3.753495    1.296072   -1.121664
     20          1           0       -1.017131    1.860731    0.121900
     21          1           0       -2.514455    2.679325    0.552626
     22          1           0       -2.717547    3.555664   -1.798429
     23          1           0       -1.211716    2.732418   -2.231602
     24          1           0       -1.187687    4.064633   -1.063726
     25          6           0       -3.015943   -0.046810    0.394547
     26          6           0       -3.814357   -1.271449   -0.053537
     27          6           0       -4.038841   -2.276655    1.076490
     28          1           0       -2.045791   -0.375642    0.792130
     29          1           0       -3.543602    0.443604    1.224013
     30          1           0       -3.284832   -1.758894   -0.882160
     31          1           0       -4.782155   -0.940300   -0.451435
     32          1           0       -4.587571   -1.811987    1.902068
     33          1           0       -3.081741   -2.635233    1.468895
     34          1           0       -4.611600   -3.144203    0.734192
 ---------------------------------------------------------------------

 SCF Done:  E(RHF) =  -669.534917205     A.U. after   15 cycles
 E2 =    -0.2093603447D+01 EUMP2 =    -0.67162852065189D+03

 The electronic state is 1-A.
 Alpha  occ. eigenvalues --  -20.60857 -20.60849 -15.85908 -11.31266 -11.27833
 Alpha  occ. eigenvalues --  -11.27823 -11.27566 -11.26847 -11.26827 -11.21854
 Alpha  occ. eigenvalues --  -11.21582 -11.21481 -11.21423 -11.21323 -11.20835
 Alpha  occ. eigenvalues --   -1.59930  -1.39484  -1.19446  -1.08836  -1.08538
 Alpha  occ. eigenvalues --   -1.04853  -1.03575  -0.96033  -0.95672  -0.87052
 Alpha  occ. eigenvalues --   -0.86240  -0.82513  -0.79672  -0.78403  -0.77531
 Alpha  occ. eigenvalues --   -0.72127  -0.71253  -0.70554  -0.65237  -0.65070
 Alpha  occ. eigenvalues --   -0.64830  -0.62180  -0.60965  -0.59426  -0.57653
 Alpha  occ. eigenvalues --   -0.55398  -0.55256  -0.53202  -0.52955  -0.52709
 Alpha  occ. eigenvalues --   -0.52439  -0.49965  -0.48884  -0.48882  -0.47978
 Alpha  occ. eigenvalues --   -0.46692  -0.45905  -0.45795  -0.44887  -0.43856
 Alpha  occ. eigenvalues --   -0.37418  -0.36371
 Alpha virt. eigenvalues --    0.04937   0.11154   0.16313   0.20113   0.23019
 Alpha virt. eigenvalues --    0.24044   0.25192   0.26845   0.27723   0.28081
 Alpha virt. eigenvalues --    0.29826   0.30743   0.31536   0.31758   0.32026

 Mulliken charges:
               1
     1  C   -0.171713
     2  C   -0.218701
     3  C   -0.170310
     4  C    0.157935
     5  C   -0.177152
     6  C   -0.220836
     7  H    0.226271
     8  H    0.223911
     9  H    0.275909
    10  H    0.286806
    11  H    0.226141
    12  N    0.487163
    13  O   -0.461284
    14  O   -0.459793
    15  C   -0.298780
    16  C   -0.307778
    17  C   -0.474396
    18  H    0.155359
    19  H    0.150906
    20  H    0.151896
    21  H    0.148515
    22  H    0.156564
    23  H    0.157943
    24  H    0.156558
    25  C   -0.301438
    26  C   -0.299940
    27  C   -0.476853
    28  H    0.143994
    29  H    0.147700
    30  H    0.161232
    31  H    0.150966
    32  H    0.151563
    33  H    0.159421
    34  H    0.162219
 Sum of Mulliken charges =  -0.00000

 Dipole moment (field-independent basis, Debye):
    X=              0.9403    Y=              4.5431    Z=              2.0928  Tot=              5.0896
 Quadrupole moment (field-independent basis, Debye-Ang):
   XX=            -86.0184   YY=           -101.2648   ZZ=            -94.6261
   XY=              9.9632   XZ=              2.8988   YZ=             -0.4565

 Normal termination of Gaussian 16 at Thu May  6 01:21:09 2021.
