 Gaussian 16, Revision A.03,
 Gaussian 16:  EM64L-G16RevA.03 25-Dec-2016

 -------------
 #p 6-31g* mp2
 -------------

 ------------------------------------------------------
 Input file generated by CHIRIPA (05-May-2021 14:51:09)
 ------------------------------------------------------
 Symbolic Z-matrix:
 Charge =  0 Multiplicity = 1

                         Standard orientation:
 ---------------------------------------------------------------------
 Center     Atomic      Atomic             Coordinates (Angstroms)
 Number     Number       Type             X           Y           Z
 ---------------------------------------------------------------------
      1          6           0        4.084211   -0.168209    0.307521
      2          6           0        4.686221    0.875739   -0.633618
      3          6           0        6.026597    1.417399   -0.135833
      4          1           0        3.954358    0.276826    1.303527
      5          1           0        4.794776   -0.997923    0.426124
      6          1           0        3.974151    1.702586   -0.751503
      7          1           0        4.814477    0.428225   -1.627549
      8          1           0        6.756172    0.607296   -0.035560
      9          1           0        5.911072    1.888898    0.845464
     10          1           0        6.439016    2.162177   -0.823639
     11          6           0        2.744099   -0.719126   -0.176544
     12          6           0        2.142089   -1.763073    0.764595
     13          6           0        0.801713   -2.304733    0.266810
     14          1           0        2.033534    0.110589   -0.295147
     15          1           0        2.873952   -1.164160   -1.172550
     16          1           0        2.013833   -1.315559    1.758526
     17          1           0        2.854159   -2.589920    0.882480
     18          1           0        0.917238   -2.776232   -0.714487
     19          1           0        0.072138   -1.494630    0.166537
     20          1           0        0.389294   -3.049511    0.954616
     21          6           0       -3.072543    1.093867   -0.275189
     22          6           0       -3.548316    2.311803    0.517435
     23          6           0       -2.855753    3.605006    0.086415
     24          1           0       -1.985808    0.987359   -0.154327
     25          1           0       -3.252450    1.268240   -1.345059
     26          1           0       -3.368832    2.134609    1.585613
     27          1           0       -4.634073    2.415312    0.394827
     28          1           0       -3.045028    3.808929   -0.972448
     29          1           0       -1.772598    3.526630    0.225103
     30          1           0       -3.210779    4.462933    0.665879
     31          6           0       -3.755767   -0.206532    0.144212
     32          6           0       -3.279994   -1.424469   -0.648412
     33          6           0       -3.972557   -2.717672   -0.217392
     34          1           0       -3.575859   -0.380906    1.214082
     35          1           0       -4.842503   -0.100025    0.023350
     36          1           0       -2.194237   -1.527978   -0.525804
     37          1           0       -3.459477   -1.247274   -1.716590
     38          1           0       -5.055712   -2.639296   -0.356079
     39          1           0       -3.783282   -2.921594    0.841472
     40          1           0       -3.617530   -3.575599   -0.796855
 ---------------------------------------------------------------------

 SCF Done:  E(RHF) =  -470.733242671     A.U. after   11 cycles
 E2 =    -0.1582694659D+01 EUMP2 =    -0.47231593733010D+03

 The electronic state is 1-A.
 Alpha  occ. eigenvalues --  -11.21652 -11.21621 -11.21610 -11.21493 -11.21441
 Alpha  occ. eigenvalues --  -11.21400 -11.21380 -11.21325 -11.21133 -11.21086
 Alpha  occ. eigenvalues --  -11.21086 -11.21003  -1.08468  -1.08407  -1.03574
 Alpha  occ. eigenvalues --   -1.03493  -0.96024  -0.95951  -0.87049  -0.86962
 Alpha  occ. eigenvalues --   -0.79676  -0.79526  -0.78295  -0.78203  -0.65139
 Alpha  occ. eigenvalues --   -0.65011  -0.61041  -0.60836  -0.59385  -0.59323
 Alpha  occ. eigenvalues --   -0.57638  -0.57554  -0.55326  -0.55235  -0.52718
 Alpha  occ. eigenvalues --   -0.52647  -0.52470  -0.52362  -0.50042  -0.49845
 Alpha  occ. eigenvalues --   -0.48056  -0.47807  -0.46776  -0.46499  -0.45914
 Alpha  occ. eigenvalues --   -0.45771  -0.45727  -0.45476  -0.43821  -0.43756
 Alpha virt. eigenvalues --    0.21091   0.23045   0.23975   0.24469   0.25445
 Alpha virt. eigenvalues --    0.26806   0.27116   0.27582   0.27913   0.29015
 Alpha virt. eigenvalues --    0.30881   0.31517   0.31727   0.31962   0.32063

 Mulliken charges:
               1
     1  C   -0.298327
     2  C   -0.299693
     3  C   -0.475733
     4  H    0.149614
     5  H    0.149656
     6  H    0.152009
     7  H    0.152055
     8  H    0.155209
     9  H    0.155188
    10  H    0.160382
    11  C   -0.298349
    12  C   -0.299800
    13  C   -0.480136
    14  H    0.149227
    15  H    0.149968
    16  H    0.151831
    17  H    0.152243
    18  H    0.155925
    19  H    0.158520
    20  H    0.160771
    21  C   -0.298921
    22  C   -0.299635
    23  C   -0.475610
    24  H    0.148612
    25  H    0.149855
    26  H    0.151865
    27  H    0.152211
    28  H    0.155313
    29  H    0.154720
    30  H    0.160300
    31  C   -0.297796
    32  C   -0.308498
    33  C   -0.474964
    34  H    0.149197
    35  H    0.149551
    36  H    0.162068
    37  H    0.151391
    38  H    0.154650
    39  H    0.154843
    40  H    0.160287
 Sum of Mulliken charges =  -0.00000

 Dipole moment (field-independent basis, Debye):
    X=              0.0301    Y=             -0.0161    Z=             -0.0063  Tot=              0.0347
 Quadrupole moment (field-independent basis, Debye-Ang):
   XX=            -85.1814   YY=            -85.4554   ZZ=            -84.1410
   XY=             -1.4279   XZ=              0.1125   YZ=              0.3662

 Normal termination of Gaussian 16 at Thu May  6 05:21:40 2021.
