 Gaussian 16, Revision A.03,
 Gaussian 16:  EM64L-G16RevA.03 25-Dec-2016

 -------------
 #p 6-31g* mp2
 -------------

 ------------------------------------------------------
 Input file generated by CHIRIPA (05-May-2021 14:57:25)
 ------------------------------------------------------
 Symbolic Z-matrix:
 Charge =  0 Multiplicity = 1

                         Standard orientation:
 ---------------------------------------------------------------------
 Center     Atomic      Atomic             Coordinates (Angstroms)
 Number     Number       Type             X           Y           Z
 ---------------------------------------------------------------------
      1          6           0        0.692596   -1.974143    0.213727
      2          6           0        1.190504   -1.284516    1.324143
      3          6           0        2.335879   -0.490741    1.211961
      4          6           0        2.961077   -0.408818   -0.031303
      5          6           0        2.489337   -1.083818   -1.156082
      6          6           0        1.342456   -1.871774   -1.020665
      7          1           0       -0.197744   -2.588506    0.309897
      8          1           0        0.687874   -1.362161    2.284028
      9          1           0        2.742818    0.053816    2.055333
     10          1           0        3.012090   -0.986857   -2.099875
     11          1           0        0.958025   -2.406229   -1.884734
     12          7           0        4.174432    0.428435   -0.162364
     13          8           0        4.706905    0.484096   -1.268714
     14          8           0        4.570011    1.013161    0.843743
     15          6           0       -0.739011    2.034274    0.263706
     16          6           0       -1.192872    1.278464    1.349654
     17          6           0       -2.312220    0.450882    1.220373
     18          6           0       -2.956591    0.403005   -0.014853
     19          6           0       -2.528636    1.143939   -1.115381
     20          6           0       -1.407163    1.964722   -0.963183
     21          1           0        0.131351    2.674519    0.373036
     22          1           0       -0.675949    1.330498    2.303661
     23          1           0       -2.684972   -0.144916    2.044692
     24          1           0       -3.064715    1.071192   -2.053862
     25          1           0       -1.056931    2.550574   -1.808262
     26          7           0       -4.142718   -0.469521   -0.163848
     27          8           0       -4.692860   -0.494075   -1.262655
     28          8           0       -4.499804   -1.112329    0.820998
 ---------------------------------------------------------------------

 SCF Done:  E(RHF) =  -868.337054886     A.U. after   16 cycles
 E2 =    -0.2602799409D+01 EUMP2 =    -0.87093985429469D+03

 The electronic state is 1-A.
 Alpha  occ. eigenvalues --  -20.61379 -20.61364 -20.61340 -20.61326 -15.86424
 Alpha  occ. eigenvalues --  -15.86387 -11.31737 -11.31704 -11.28298 -11.28269
 Alpha  occ. eigenvalues --  -11.28235 -11.28209 -11.27903 -11.27879 -11.27297
 Alpha  occ. eigenvalues --  -11.27273 -11.27215 -11.27184  -1.60456  -1.60417
 Alpha  occ. eigenvalues --   -1.40010  -1.39971  -1.19909  -1.19817  -1.09282
 Alpha  occ. eigenvalues --   -1.09220  -1.05341  -1.05195  -0.96130  -0.96070
 Alpha  occ. eigenvalues --   -0.86697  -0.86621  -0.82985  -0.82906  -0.78081
 Alpha  occ. eigenvalues --   -0.77964  -0.72636  -0.72597  -0.71793  -0.71752
 Alpha  occ. eigenvalues --   -0.70958  -0.70891  -0.65539  -0.65495  -0.65337
 Alpha  occ. eigenvalues --   -0.65194  -0.62724  -0.62525  -0.55713  -0.55684
 Alpha  occ. eigenvalues --   -0.54215  -0.53414  -0.53305  -0.52966  -0.49402
 Alpha  occ. eigenvalues --   -0.49388  -0.49364  -0.49352  -0.45427  -0.45387
 Alpha  occ. eigenvalues --   -0.38099  -0.37846  -0.37228  -0.36082
 Alpha virt. eigenvalues --    0.04359   0.04620   0.10521   0.10991   0.15781
 Alpha virt. eigenvalues --    0.16349   0.19895   0.21661   0.25568   0.27387
 Alpha virt. eigenvalues --    0.28098   0.28215   0.29997   0.31485   0.31875

 Mulliken charges:
               1
     1  C   -0.167653
     2  C   -0.213195
     3  C   -0.177657
     4  C    0.157387
     5  C   -0.172335
     6  C   -0.217971
     7  H    0.231025
     8  H    0.219171
     9  H    0.272241
    10  H    0.276010
    11  H    0.226792
    12  N    0.487303
    13  O   -0.459084
    14  O   -0.462098
    15  C   -0.168220
    16  C   -0.212003
    17  C   -0.177954
    18  C    0.157312
    19  C   -0.172507
    20  C   -0.217747
    21  H    0.230932
    22  H    0.219466
    23  H    0.271917
    24  H    0.276047
    25  H    0.226785
    26  N    0.487192
    27  O   -0.458891
    28  O   -0.462264
 Sum of Mulliken charges =  -0.00000

 Dipole moment (field-independent basis, Debye):
    X=             -0.0990    Y=              0.1374    Z=              0.8135  Tot=              0.8310
 Quadrupole moment (field-independent basis, Debye-Ang):
   XX=           -157.0497   YY=           -100.1207   ZZ=            -95.8128
   XY=            -14.8087   XZ=              0.0291   YZ=             -0.1230

 Normal termination of Gaussian 16 at Thu May  6 01:56:01 2021.
