 Gaussian 16, Revision A.03,
 Gaussian 16:  EM64L-G16RevA.03 25-Dec-2016

 -------------
 #p 6-31g* mp2
 -------------

 ------------------------------------------------------
 Input file generated by CHIRIPA (05-May-2021 14:57:21)
 ------------------------------------------------------
 Symbolic Z-matrix:
 Charge =  0 Multiplicity = 1

                         Standard orientation:
 ---------------------------------------------------------------------
 Center     Atomic      Atomic             Coordinates (Angstroms)
 Number     Number       Type             X           Y           Z
 ---------------------------------------------------------------------
      1          6           0       -1.710887    1.126683   -0.698657
      2          6           0       -2.855614    1.898252   -0.473263
      3          6           0       -4.080253    1.285933   -0.190646
      4          6           0       -4.124285   -0.106504   -0.140939
      5          6           0       -3.001302   -0.902626   -0.360921
      6          6           0       -1.787250   -0.268833   -0.641867
      7          1           0       -0.763670    1.610688   -0.917552
      8          1           0       -2.799274    2.982217   -0.516731
      9          1           0       -4.981938    1.859088   -0.012108
     10          1           0       -3.088701   -1.981179   -0.310889
     11          1           0       -0.899862   -0.870576   -0.816487
     12          7           0       -5.415151   -0.766106    0.157370
     13          8           0       -5.427571   -1.994531    0.195505
     14          8           0       -6.390070   -0.042187    0.347401
     15          6           0        6.068322   -1.096961   -0.528017
     16          6           0        5.952484    0.296927   -0.541455
     17          6           0        4.762221    0.914317   -0.145662
     18          6           0        3.703023    0.103631    0.259530
     19          6           0        3.787581   -1.287608    0.283899
     20          6           0        4.987408   -1.883393   -0.116109
     21          1           0        6.996662   -1.568172   -0.837115
     22          1           0        6.790296    0.910190   -0.860867
     23          1           0        4.645316    1.991233   -0.146378
     24          1           0        2.935116   -1.872486    0.607375
     25          1           0        5.074516   -2.966133   -0.104656
     26          7           0        2.437884    0.745798    0.680769
     27          8           0        1.519331    0.009249    1.033464
     28          8           0        2.388776    1.973517    0.650265
 ---------------------------------------------------------------------

 SCF Done:  E(RHF) =  -868.339912040     A.U. after   16 cycles
 E2 =    -0.2598867220D+01 EUMP2 =    -0.87093877925976D+03

 The electronic state is 1-A.
 Alpha  occ. eigenvalues --  -20.61956 -20.61935 -20.59936 -20.59931 -15.86960
 Alpha  occ. eigenvalues --  -15.84983 -11.32050 -11.30102 -11.28590 -11.28574
 Alpha  occ. eigenvalues --  -11.28253 -11.27522 -11.27512 -11.26671 -11.26640
 Alpha  occ. eigenvalues --  -11.26206 -11.25586 -11.25506  -1.61017  -1.59018
 Alpha  occ. eigenvalues --   -1.40573  -1.38579  -1.20194  -1.18236  -1.09637
 Alpha  occ. eigenvalues --   -1.07640  -1.05550  -1.03615  -0.96516  -0.94527
 Alpha  occ. eigenvalues --   -0.86960  -0.85003  -0.83353  -0.81386  -0.78442
 Alpha  occ. eigenvalues --   -0.76494  -0.73174  -0.72337  -0.71288  -0.71207
 Alpha  occ. eigenvalues --   -0.70338  -0.69274  -0.65844  -0.65541  -0.63876
 Alpha  occ. eigenvalues --   -0.63597  -0.62900  -0.60986  -0.56049  -0.54025
 Alpha  occ. eigenvalues --   -0.53891  -0.53632  -0.51940  -0.51702  -0.49951
 Alpha  occ. eigenvalues --   -0.49906  -0.47976  -0.47941  -0.46028  -0.44041
 Alpha  occ. eigenvalues --   -0.38153  -0.37141  -0.36117  -0.35218
 Alpha virt. eigenvalues --    0.04028   0.06051   0.10516   0.12454   0.15586
 Alpha virt. eigenvalues --    0.17636   0.20681   0.22629   0.26611   0.27430
 Alpha virt. eigenvalues --    0.28469   0.29429   0.30435   0.31464   0.32491

 Mulliken charges:
               1
     1  C   -0.164313
     2  C   -0.220241
     3  C   -0.172468
     4  C    0.157281
     5  C   -0.173672
     6  C   -0.211029
     7  H    0.232877
     8  H    0.221398
     9  H    0.271822
    10  H    0.270694
    11  H    0.223304
    12  N    0.488359
    13  O   -0.463912
    14  O   -0.463397
    15  C   -0.169644
    16  C   -0.218381
    17  C   -0.170715
    18  C    0.157129
    19  C   -0.171626
    20  C   -0.218293
    21  H    0.228710
    22  H    0.226056
    23  H    0.276165
    24  H    0.274821
    25  H    0.226246
    26  N    0.487077
    27  O   -0.463366
    28  O   -0.460880
 Sum of Mulliken charges =  -0.00000

 Dipole moment (field-independent basis, Debye):
    X=              9.6509    Y=              0.1007    Z=             -2.5245  Tot=              9.9762
 Quadrupole moment (field-independent basis, Debye-Ang):
   XX=           -108.8379   YY=            -97.9042   ZZ=           -106.8543
   XY=            -18.7530   XZ=             -1.5412   YZ=             -1.5082

 Normal termination of Gaussian 16 at Thu May  6 06:28:14 2021.
