 Gaussian 16, Revision A.03,
 Gaussian 16:  EM64L-G16RevA.03 25-Dec-2016

 -------------
 #p 6-31g* mp2
 -------------

 ------------------------------------------------------
 Input file generated by CHIRIPA (05-May-2021 14:53:15)
 ------------------------------------------------------
 Symbolic Z-matrix:
 Charge =  0 Multiplicity = 1

                         Standard orientation:
 ---------------------------------------------------------------------
 Center     Atomic      Atomic             Coordinates (Angstroms)
 Number     Number       Type             X           Y           Z
 ---------------------------------------------------------------------
      1          6           0        3.950404   -0.688704    0.201320
      2          6           0        4.721912    0.630412    0.149404
      3          6           0        6.132790    0.513194    0.726880
      4          1           0        3.894286   -1.032550    1.243225
      5          1           0        4.511166   -1.455386   -0.351074
      6          1           0        4.159184    1.394728    0.700562
      7          1           0        4.776035    0.971255   -0.892475
      8          1           0        6.715638   -0.229223    0.172168
      9          1           0        6.095282    0.196655    1.774256
     10          1           0        6.666422    1.467595    0.679806
     11          6           0        2.538193   -0.587552   -0.372401
     12          6           0        1.766686   -1.906668   -0.320485
     13          6           0        0.355808   -1.789450   -0.897961
     14          1           0        1.977432    0.179130    0.179993
     15          1           0        2.594312   -0.243706   -1.414306
     16          1           0        1.712563   -2.247511    0.721394
     17          1           0        2.329414   -2.670983   -0.871643
     18          1           0        0.393315   -1.472911   -1.945337
     19          1           0       -0.227041   -1.047032   -0.343249
     20          1           0       -0.177825   -2.743850   -0.850887
     21          6           0       -3.984001   -1.437796    0.785021
     22          6           0       -3.467751   -0.557351    1.741486
     23          6           0       -2.663534    0.518943    1.354999
     24          6           0       -2.394486    0.685735   -0.002604
     25          6           0       -2.894058   -0.174319   -0.979345
     26          6           0       -3.696014   -1.243812   -0.569953
     27          1           0       -4.607856   -2.271245    1.094150
     28          1           0       -3.689750   -0.705553    2.794481
     29          1           0       -2.250829    1.215690    2.074469
     30          1           0       -2.655332   -0.000780   -2.021607
     31          1           0       -4.095573   -1.925990   -1.314957
     32          7           0       -1.544295    1.821558   -0.423885
     33          8           0       -1.321977    1.946717   -1.626194
     34          8           0       -1.116332    2.565154    0.456201
 ---------------------------------------------------------------------

 SCF Done:  E(RHF) =  -669.534229117     A.U. after   15 cycles
 E2 =    -0.2093498773D+01 EUMP2 =    -0.67162772789009D+03

 The electronic state is 1-A.
 Alpha  occ. eigenvalues --  -20.60804 -20.60790 -15.85843 -11.31153 -11.27795
 Alpha  occ. eigenvalues --  -11.27744 -11.27531 -11.26793 -11.26769 -11.21336
 Alpha  occ. eigenvalues --  -11.21108 -11.20980 -11.20889 -11.20857 -11.20678
 Alpha  occ. eigenvalues --   -1.59872  -1.39425  -1.19392  -1.08784  -1.08032
 Alpha  occ. eigenvalues --   -1.04784  -1.03185  -0.95672  -0.95590  -0.86684
 Alpha  occ. eigenvalues --   -0.86174  -0.82445  -0.79256  -0.77822  -0.77489
 Alpha  occ. eigenvalues --   -0.72066  -0.71214  -0.70491  -0.65034  -0.64785
 Alpha  occ. eigenvalues --   -0.64665  -0.62128  -0.60606  -0.59015  -0.57271
 Alpha  occ. eigenvalues --   -0.55290  -0.55058  -0.53274  -0.52872  -0.52316
 Alpha  occ. eigenvalues --   -0.51935  -0.49539  -0.48825  -0.48822  -0.47560
 Alpha  occ. eigenvalues --   -0.46262  -0.45374  -0.45282  -0.44814  -0.43427
 Alpha  occ. eigenvalues --   -0.37305  -0.36346
 Alpha virt. eigenvalues --    0.05011   0.11253   0.16497   0.21367   0.23200
 Alpha virt. eigenvalues --    0.24532   0.26912   0.27219   0.27725   0.28192
 Alpha virt. eigenvalues --    0.28489   0.30898   0.31442   0.32052   0.32189

 Mulliken charges:
               1
     1  C   -0.298069
     2  C   -0.300173
     3  C   -0.475591
     4  H    0.147322
     5  H    0.147531
     6  H    0.156102
     7  H    0.153520
     8  H    0.153609
     9  H    0.153668
    10  H    0.160437
    11  C   -0.299909
    12  C   -0.299363
    13  C   -0.478272
    14  H    0.154539
    15  H    0.153645
    16  H    0.149114
    17  H    0.150047
    18  H    0.156890
    19  H    0.157374
    20  H    0.154315
    21  C   -0.170828
    22  C   -0.217552
    23  C   -0.173101
    24  C    0.154058
    25  C   -0.167245
    26  C   -0.215824
    27  H    0.225744
    28  H    0.223454
    29  H    0.275537
    30  H    0.275695
    31  H    0.223651
    32  N    0.490927
    33  O   -0.459701
    34  O   -0.461553
 Sum of Mulliken charges =  -0.00000

 Dipole moment (field-independent basis, Debye):
    X=             -3.0801    Y=             -3.9075    Z=              1.4379  Tot=              5.1791
 Quadrupole moment (field-independent basis, Debye-Ang):
   XX=            -82.2016   YY=           -100.7818   ZZ=            -89.5046
   XY=              8.0836   XZ=             -3.8997   YZ=              2.7397

 Normal termination of Gaussian 16 at Wed May  5 18:40:03 2021.
