 Gaussian 16, Revision A.03,
 Gaussian 16:  EM64L-G16RevA.03 25-Dec-2016

 -------------
 #p 6-31g* mp2
 -------------

 ------------------------------------------------------
 Input file generated by CHIRIPA (05-May-2021 14:53:15)
 ------------------------------------------------------
 Symbolic Z-matrix:
 Charge =  0 Multiplicity = 1

                         Standard orientation:
 ---------------------------------------------------------------------
 Center     Atomic      Atomic             Coordinates (Angstroms)
 Number     Number       Type             X           Y           Z
 ---------------------------------------------------------------------
      1          6           0       -2.668340   -0.888878   -0.208088
      2          6           0       -2.038473   -1.157288   -1.575278
      3          6           0       -0.944731   -2.224430   -1.523022
      4          1           0       -1.883822   -0.577758    0.495248
      5          1           0       -3.087148   -1.825547    0.185164
      6          1           0       -1.622197   -0.220104   -1.966452
      7          1           0       -2.824610   -1.467621   -2.275490
      8          1           0       -1.349618   -3.173440   -1.156897
      9          1           0       -0.140373   -1.918835   -0.846102
     10          1           0       -0.508103   -2.400513   -2.511056
     11          6           0       -3.763487    0.175587   -0.244069
     12          6           0       -4.393354    0.443997    1.123121
     13          6           0       -5.487095    1.511139    1.070865
     14          1           0       -3.344678    1.112255   -0.637321
     15          1           0       -4.548004   -0.135533   -0.947405
     16          1           0       -3.607216    0.754330    1.823334
     17          1           0       -4.809629   -0.493187    1.514295
     18          1           0       -6.291453    1.205544    0.393945
     19          1           0       -5.082209    2.460149    0.704740
     20          1           0       -5.923723    1.687222    2.058899
     21          6           0        2.665878   -1.543001    1.915601
     22          6           0        2.751803   -0.200482    2.298720
     23          6           0        2.668055    0.817152    1.343756
     24          6           0        2.497598    0.454738    0.008506
     25          6           0        2.408513   -0.873695   -0.404556
     26          6           0        2.494807   -1.874738    0.567563
     27          1           0        2.731924   -2.327079    2.664103
     28          1           0        2.884660    0.060100    3.344898
     29          1           0        2.731510    1.864561    1.612689
     30          1           0        2.276091   -1.102370   -1.455075
     31          1           0        2.427756   -2.916509    0.267128
     32          7           0        2.407589    1.523279   -1.011552
     33          8           0        2.257402    1.177748   -2.181462
     34          8           0        2.488931    2.686100   -0.621849
 ---------------------------------------------------------------------

 SCF Done:  E(RHF) =  -669.534934447     A.U. after   15 cycles
 E2 =    -0.2092573400D+01 EUMP2 =    -0.67162750784678D+03

 The electronic state is 1-A.
 Alpha  occ. eigenvalues --  -20.60832 -20.60827 -15.85886 -11.31252 -11.27831
 Alpha  occ. eigenvalues --  -11.27803 -11.27566 -11.26836 -11.26818 -11.21568
 Alpha  occ. eigenvalues --  -11.21542 -11.21371 -11.21281 -11.21172 -11.21003
 Alpha  occ. eigenvalues --   -1.59908  -1.39460  -1.19442  -1.08825  -1.08391
 Alpha  occ. eigenvalues --   -1.04851  -1.03514  -0.95997  -0.95655  -0.87020
 Alpha  occ. eigenvalues --   -0.86228  -0.82493  -0.79587  -0.78200  -0.77533
 Alpha  occ. eigenvalues --   -0.72102  -0.71235  -0.70538  -0.65100  -0.65017
 Alpha  occ. eigenvalues --   -0.64822  -0.62207  -0.60906  -0.59349  -0.57596
 Alpha  occ. eigenvalues --   -0.55402  -0.55268  -0.53225  -0.52922  -0.52680
 Alpha  occ. eigenvalues --   -0.52359  -0.49911  -0.48862  -0.48856  -0.47899
 Alpha  occ. eigenvalues --   -0.46598  -0.45750  -0.45653  -0.44862  -0.43772
 Alpha  occ. eigenvalues --   -0.37421  -0.36354
 Alpha virt. eigenvalues --    0.04970   0.11179   0.16387   0.21182   0.22935
 Alpha virt. eigenvalues --    0.24285   0.26616   0.26806   0.27544   0.27993
 Alpha virt. eigenvalues --    0.29032   0.30661   0.31522   0.31725   0.32103

 Mulliken charges:
               1
     1  C   -0.298493
     2  C   -0.300119
     3  C   -0.485594
     4  H    0.149065
     5  H    0.147134
     6  H    0.159990
     7  H    0.152486
     8  H    0.152097
     9  H    0.157274
    10  H    0.159739
    11  C   -0.299079
    12  C   -0.299362
    13  C   -0.475884
    14  H    0.153291
    15  H    0.149832
    16  H    0.150929
    17  H    0.150430
    18  H    0.155308
    19  H    0.157024
    20  H    0.159372
    21  C   -0.170864
    22  C   -0.218721
    23  C   -0.171396
    24  C    0.157759
    25  C   -0.172257
    26  C   -0.218289
    27  H    0.226214
    28  H    0.223770
    29  H    0.275795
    30  H    0.279247
    31  H    0.225809
    32  N    0.488092
    33  O   -0.460227
    34  O   -0.460372
 Sum of Mulliken charges =  -0.00000

 Dipole moment (field-independent basis, Debye):
    X=              0.3685    Y=             -3.6891    Z=              3.5854  Tot=              5.1575
 Quadrupole moment (field-independent basis, Debye-Ang):
   XX=            -94.0463   YY=            -96.3882   ZZ=            -92.3890
   XY=             -8.0996   XZ=              9.9308   YZ=              4.3081

 Normal termination of Gaussian 16 at Thu May  6 12:10:46 2021.
