 Gaussian 16, Revision A.03,
 Gaussian 16:  EM64L-G16RevA.03 25-Dec-2016

 -------------
 #p 6-31g* mp2
 -------------

 ------------------------------------------------------
 Input file generated by CHIRIPA (05-May-2021 14:55:19)
 ------------------------------------------------------
 Symbolic Z-matrix:
 Charge =  0 Multiplicity = 1

                         Standard orientation:
 ---------------------------------------------------------------------
 Center     Atomic      Atomic             Coordinates (Angstroms)
 Number     Number       Type             X           Y           Z
 ---------------------------------------------------------------------
      1          6           0        1.489347   -2.679134    0.827805
      2          6           0        2.611947   -2.588432   -0.001691
      3          6           0        3.078852   -1.342486   -0.430838
      4          6           0        2.395951   -0.202579   -0.009473
      5          6           0        1.274657   -0.260225    0.816763
      6          6           0        0.825455   -1.516790    1.233669
      7          1           0        1.133521   -3.651139    1.156422
      8          1           0        3.129518   -3.489443   -0.318462
      9          1           0        3.945443   -1.243395   -1.073192
     10          1           0        0.779619    0.655650    1.115976
     11          1           0       -0.046632   -1.584204    1.877847
     12          7           0        2.880871    1.122069   -0.457312
     13          8           0        2.261588    2.111383   -0.072107
     14          8           0        3.871053    1.145932   -1.185053
     15          6           0       -3.629347    0.177166   -0.185764
     16          6           0       -3.467146   -1.304777   -0.525651
     17          6           0       -4.805995   -2.014478   -0.729615
     18          1           0       -4.239349    0.273799    0.722809
     19          1           0       -4.188635    0.671982   -0.991834
     20          1           0       -2.907130   -1.796367    0.280163
     21          1           0       -2.857300   -1.397900   -1.433413
     22          1           0       -5.367378   -1.550470   -1.547018
     23          1           0       -5.417491   -1.951201    0.176294
     24          1           0       -4.666650   -3.072715   -0.971640
     25          6           0       -2.299692    0.900330    0.021063
     26          6           0       -2.461892    2.382272    0.360950
     27          6           0       -1.123043    3.091974    0.564913
     28          1           0       -1.740403    0.405514    0.827132
     29          1           0       -1.689690    0.803697   -0.887511
     30          1           0       -3.071739    2.475397    1.268711
     31          1           0       -3.021908    2.873863   -0.444865
     32          1           0       -0.511547    3.028697   -0.340996
     33          1           0       -0.561661    2.627966    1.382316
     34          1           0       -1.262389    4.150211    0.806938
 ---------------------------------------------------------------------

 SCF Done:  E(RHF) =  -669.534465283     A.U. after   15 cycles
 E2 =    -0.2093973652D+01 EUMP2 =    -0.67162843893537D+03

 The electronic state is 1-A.
 Alpha  occ. eigenvalues --  -20.60767 -20.60759 -15.85805 -11.31124 -11.27717
 Alpha  occ. eigenvalues --  -11.27651 -11.27458 -11.26719 -11.26701 -11.22024
 Alpha  occ. eigenvalues --  -11.21731 -11.21670 -11.21563 -11.21438 -11.20673
 Alpha  occ. eigenvalues --   -1.59839  -1.39393  -1.19310  -1.08719  -1.08690
 Alpha  occ. eigenvalues --   -1.04712  -1.03684  -0.96106  -0.95554  -0.87114
 Alpha  occ. eigenvalues --   -0.86112  -0.82392  -0.79758  -0.78594  -0.77372
 Alpha  occ. eigenvalues --   -0.72028  -0.71159  -0.70432  -0.65359  -0.64956
 Alpha  occ. eigenvalues --   -0.64733  -0.62101  -0.61054  -0.59504  -0.57726
 Alpha  occ. eigenvalues --   -0.55403  -0.55215  -0.53078  -0.52848  -0.52738
 Alpha  occ. eigenvalues --   -0.52480  -0.50053  -0.48816  -0.48787  -0.47982
 Alpha  occ. eigenvalues --   -0.46798  -0.46034  -0.45962  -0.44755  -0.43957
 Alpha  occ. eigenvalues --   -0.37296  -0.36266
 Alpha virt. eigenvalues --    0.05059   0.11279   0.16447   0.19898   0.22854
 Alpha virt. eigenvalues --    0.23755   0.25025   0.26597   0.26941   0.28402
 Alpha virt. eigenvalues --    0.30159   0.31041   0.31453   0.31682   0.32070

 Mulliken charges:
               1
     1  C   -0.170380
     2  C   -0.219480
     3  C   -0.169996
     4  C    0.152869
     5  C   -0.171293
     6  C   -0.222061
     7  H    0.225433
     8  H    0.223145
     9  H    0.275303
    10  H    0.288524
    11  H    0.223357
    12  N    0.488023
    13  O   -0.461581
    14  O   -0.460357
    15  C   -0.298381
    16  C   -0.298228
    17  C   -0.475817
    18  H    0.149245
    19  H    0.152685
    20  H    0.143643
    21  H    0.154424
    22  H    0.157520
    23  H    0.155157
    24  H    0.159397
    25  C   -0.298729
    26  C   -0.301830
    27  C   -0.478454
    28  H    0.136181
    29  H    0.154546
    30  H    0.149320
    31  H    0.153662
    32  H    0.174118
    33  H    0.147448
    34  H    0.162590
 Sum of Mulliken charges =  -0.00000

 Dipole moment (field-independent basis, Debye):
    X=             -1.6917    Y=             -4.5065    Z=              1.4278  Tot=              5.0209
 Quadrupole moment (field-independent basis, Debye-Ang):
   XX=           -101.4905   YY=            -92.2815   ZZ=            -93.2253
   XY=            -13.4231   XZ=              1.7646   YZ=              0.4809

 Normal termination of Gaussian 16 at Thu May  6 04:30:59 2021.
