 Gaussian 16, Revision A.03,
 Gaussian 16:  EM64L-G16RevA.03 25-Dec-2016

 -------------
 #p 6-31g* mp2
 -------------

 ------------------------------------------------------
 Input file generated by CHIRIPA (05-May-2021 14:51:14)
 ------------------------------------------------------
 Symbolic Z-matrix:
 Charge =  0 Multiplicity = 1

                         Standard orientation:
 ---------------------------------------------------------------------
 Center     Atomic      Atomic             Coordinates (Angstroms)
 Number     Number       Type             X           Y           Z
 ---------------------------------------------------------------------
      1          6           0       -3.182066   -0.465499    0.734560
      2          6           0       -1.910373    0.380224    0.660173
      3          6           0       -0.840926   -0.071576    1.655138
      4          1           0       -3.586029   -0.419766    1.755181
      5          1           0       -2.926027   -1.517404    0.546583
      6          1           0       -2.168945    1.430415    0.846867
      7          1           0       -1.509496    0.332626   -0.360438
      8          1           0       -0.554327   -1.111311    1.466956
      9          1           0       -1.217523   -0.007285    2.681121
     10          1           0        0.059530    0.546571    1.584907
     11          6           0       -4.260557   -0.026053   -0.254112
     12          6           0       -5.532251   -0.871776   -0.179725
     13          6           0       -6.601698   -0.419976   -1.174689
     14          1           0       -4.516597    1.025852   -0.066134
     15          1           0       -3.856594   -0.071786   -1.274733
     16          1           0       -5.933127   -0.824178    0.840887
     17          1           0       -5.273678   -1.921967   -0.366419
     18          1           0       -6.225100   -0.484266   -2.200673
     19          1           0       -6.888296    0.619760   -0.986507
     20          1           0       -7.502154   -1.038123   -1.104459
     21          6           0        3.027563    0.557517   -0.169790
     22          6           0        3.026843    2.078046   -0.330963
     23          6           0        1.631749    2.687065   -0.187427
     24          1           0        2.354358    0.115637   -0.917107
     25          1           0        2.613573    0.299962    0.814930
     26          1           0        3.441993    2.332714   -1.314534
     27          1           0        3.700275    2.516344    0.416700
     28          1           0        1.212742    2.461989    0.798663
     29          1           0        0.952992    2.277316   -0.942407
     30          1           0        1.654395    3.774835   -0.306184
     31          6           0        4.415061   -0.065966   -0.310658
     32          6           0        4.415779   -1.586494   -0.149486
     33          6           0        5.810874   -2.195513   -0.293021
     34          1           0        4.829050    0.191590   -1.295379
     35          1           0        5.088265    0.375914    0.436659
     36          1           0        3.742348   -2.024792   -0.897149
     37          1           0        4.000631   -1.841163    0.834085
     38          1           0        6.489632   -1.785764    0.461958
     39          1           0        6.229882   -1.970437   -1.279112
     40          1           0        5.788228   -3.283283   -0.174264
 ---------------------------------------------------------------------

 SCF Done:  E(RHF) =  -470.732924064     A.U. after   11 cycles
 E2 =    -0.1583168198D+01 EUMP2 =    -0.47231609226207D+03

 The electronic state is 1-A.
 Alpha  occ. eigenvalues --  -11.21610 -11.21596 -11.21580 -11.21540 -11.21401
 Alpha  occ. eigenvalues --  -11.21370 -11.21342 -11.21309 -11.21076 -11.21067
 Alpha  occ. eigenvalues --  -11.21055 -11.20962  -1.08438  -1.08386  -1.03556
 Alpha  occ. eigenvalues --   -1.03466  -0.96002  -0.95920  -0.87010  -0.86949
 Alpha  occ. eigenvalues --   -0.79605  -0.79544  -0.78247  -0.78201  -0.65071
 Alpha  occ. eigenvalues --   -0.65020  -0.60964  -0.60876  -0.59531  -0.59170
 Alpha  occ. eigenvalues --   -0.57740  -0.57395  -0.55294  -0.55205  -0.52725
 Alpha  occ. eigenvalues --   -0.52646  -0.52471  -0.52264  -0.49930  -0.49874
 Alpha  occ. eigenvalues --   -0.47964  -0.47805  -0.46641  -0.46559  -0.45790
 Alpha  occ. eigenvalues --   -0.45739  -0.45701  -0.45650  -0.43792  -0.43684
 Alpha virt. eigenvalues --    0.21277   0.23117   0.23410   0.25202   0.25661
 Alpha virt. eigenvalues --    0.26582   0.26872   0.27432   0.28050   0.29321
 Alpha virt. eigenvalues --    0.29902   0.31377   0.31597   0.31821   0.32161

 Mulliken charges:
               1
     1  C   -0.298485
     2  C   -0.298778
     3  C   -0.483524
     4  H    0.149519
     5  H    0.149369
     6  H    0.152131
     7  H    0.151833
     8  H    0.154963
     9  H    0.154014
    10  H    0.168401
    11  C   -0.298165
    12  C   -0.299602
    13  C   -0.475675
    14  H    0.149564
    15  H    0.149394
    16  H    0.151909
    17  H    0.151847
    18  H    0.155089
    19  H    0.155180
    20  H    0.160169
    21  C   -0.300827
    22  C   -0.300088
    23  C   -0.479661
    24  H    0.149569
    25  H    0.152550
    26  H    0.151943
    27  H    0.151824
    28  H    0.158169
    29  H    0.156745
    30  H    0.160468
    31  C   -0.298195
    32  C   -0.299656
    33  C   -0.475709
    34  H    0.149479
    35  H    0.149630
    36  H    0.151758
    37  H    0.152289
    38  H    0.155208
    39  H    0.155119
    40  H    0.160234
 Sum of Mulliken charges =  -0.00000

 Dipole moment (field-independent basis, Debye):
    X=              0.0238    Y=              0.0164    Z=             -0.0039  Tot=              0.0292
 Quadrupole moment (field-independent basis, Debye-Ang):
   XX=            -86.3576   YY=            -84.7629   ZZ=            -83.7360
   XY=              0.4799   XZ=             -0.5855   YZ=              0.6810

 Normal termination of Gaussian 16 at Wed May  5 20:00:21 2021.
