 Gaussian 16, Revision A.03,
 Gaussian 16:  EM64L-G16RevA.03 25-Dec-2016

 -------------
 #p 6-31g* mp2
 -------------

 ------------------------------------------------------
 Input file generated by CHIRIPA (05-May-2021 14:57:23)
 ------------------------------------------------------
 Symbolic Z-matrix:
 Charge =  0 Multiplicity = 1

                         Standard orientation:
 ---------------------------------------------------------------------
 Center     Atomic      Atomic             Coordinates (Angstroms)
 Number     Number       Type             X           Y           Z
 ---------------------------------------------------------------------
      1          6           0        6.595195   -0.360271   -0.802870
      2          6           0        6.098698   -1.231488    0.172319
      3          6           0        4.806083   -1.067533    0.679086
      4          6           0        4.033808   -0.016971    0.185932
      5          6           0        4.500107    0.867586   -0.785363
      6          6           0        5.795724    0.684643   -1.277761
      7          1           0        7.600496   -0.495010   -1.190957
      8          1           0        6.717334   -2.043859    0.542976
      9          1           0        4.396677   -1.727404    1.434317
     10          1           0        3.859780    1.668152   -1.135354
     11          1           0        6.178686    1.362772   -2.035077
     12          7           0        2.663785    0.166651    0.714817
     13          8           0        2.003367    1.100004    0.263885
     14          8           0        2.276319   -0.626255    1.570274
     15          6           0       -2.050278    1.237394    0.162621
     16          6           0       -3.246640    1.922108    0.400124
     17          6           0       -4.476576    1.272714    0.258365
     18          6           0       -4.473193   -0.067826   -0.124035
     19          6           0       -3.298195   -0.777219   -0.367821
     20          6           0       -2.079822   -0.107712   -0.219918
     21          1           0       -1.099326    1.749671    0.275129
     22          1           0       -3.226732    2.966770    0.697326
     23          1           0       -5.417731    1.778799    0.435916
     24          1           0       -3.350024   -1.818222   -0.662852
     25          1           0       -1.152281   -0.641984   -0.405027
     26          7           0       -5.769151   -0.765957   -0.277360
     27          8           0       -5.739169   -1.947285   -0.615297
     28          8           0       -6.790365   -0.118603   -0.056696
 ---------------------------------------------------------------------

 SCF Done:  E(RHF) =  -868.340907096     A.U. after   16 cycles
 E2 =    -0.2598130839D+01 EUMP2 =    -0.87093903793519D+03

 The electronic state is 1-A.
 Alpha  occ. eigenvalues --  -20.61997 -20.61976 -20.59926 -20.59921 -15.87000
 Alpha  occ. eigenvalues --  -15.84973 -11.32023 -11.30092 -11.28557 -11.28534
 Alpha  occ. eigenvalues --  -11.28219 -11.27483 -11.27467 -11.26679 -11.26625
 Alpha  occ. eigenvalues --  -11.26098 -11.25575 -11.25444  -1.61048  -1.59008
 Alpha  occ. eigenvalues --   -1.40607  -1.38569  -1.20161  -1.18223  -1.09619
 Alpha  occ. eigenvalues --   -1.07612  -1.05509  -1.03601  -0.96511  -0.94496
 Alpha  occ. eigenvalues --   -0.86923  -0.84976  -0.83355  -0.81357  -0.78439
 Alpha  occ. eigenvalues --   -0.76480  -0.73236  -0.72345  -0.71259  -0.71195
 Alpha  occ. eigenvalues --   -0.70330  -0.69196  -0.65814  -0.65505  -0.63848
 Alpha  occ. eigenvalues --   -0.63569  -0.62859  -0.60965  -0.56018  -0.53925
 Alpha  occ. eigenvalues --   -0.53858  -0.53592  -0.51936  -0.51668  -0.50000
 Alpha  occ. eigenvalues --   -0.49952  -0.47965  -0.47926  -0.46084  -0.44031
 Alpha  occ. eigenvalues --   -0.38118  -0.37096  -0.36118  -0.35229
 Alpha virt. eigenvalues --    0.04059   0.06060   0.10564   0.12449   0.15630
 Alpha virt. eigenvalues --    0.17643   0.20741   0.22775   0.26684   0.27593
 Alpha virt. eigenvalues --    0.28465   0.29696   0.30401   0.31778   0.32430

 Mulliken charges:
               1
     1  C   -0.169462
     2  C   -0.218534
     3  C   -0.170252
     4  C    0.157029
     5  C   -0.170568
     6  C   -0.218471
     7  H    0.228569
     8  H    0.226278
     9  H    0.276945
    10  H    0.274817
    11  H    0.225775
    12  N    0.489809
    13  O   -0.471486
    14  O   -0.457065
    15  C   -0.175130
    16  C   -0.220434
    17  C   -0.172271
    18  C    0.156886
    19  C   -0.172932
    20  C   -0.219090
    21  H    0.246306
    22  H    0.220075
    23  H    0.271502
    24  H    0.271679
    25  H    0.228853
    26  N    0.488360
    27  O   -0.463450
    28  O   -0.463738
 Sum of Mulliken charges =  -0.00000

 Dipole moment (field-independent basis, Debye):
    X=             10.1316    Y=              1.7951    Z=             -1.2886  Tot=             10.3698
 Quadrupole moment (field-independent basis, Debye-Ang):
   XX=           -106.9183   YY=            -99.0689   ZZ=           -104.7926
   XY=            -17.3311   XZ=            -10.2691   YZ=             -2.0631

 Normal termination of Gaussian 16 at Thu May  6 06:36:42 2021.
