 Gaussian 16, Revision A.03,
 Gaussian 16:  EM64L-G16RevA.03 25-Dec-2016

 -------------
 #p 6-31g* mp2
 -------------

 ------------------------------------------------------
 Input file generated by CHIRIPA (05-May-2021 14:57:26)
 ------------------------------------------------------
 Symbolic Z-matrix:
 Charge =  0 Multiplicity = 1

                         Standard orientation:
 ---------------------------------------------------------------------
 Center     Atomic      Atomic             Coordinates (Angstroms)
 Number     Number       Type             X           Y           Z
 ---------------------------------------------------------------------
      1          6           0       -5.179257    0.199012   -0.783617
      2          6           0       -4.235869   -0.564262   -1.479285
      3          6           0       -3.001861   -0.870217   -0.897766
      4          6           0       -2.743255   -0.394526    0.386809
      5          6           0       -3.662593    0.368173    1.105416
      6          6           0       -4.890117    0.661978    0.504242
      7          1           0       -6.135345    0.431966   -1.242989
      8          1           0       -4.457692   -0.925141   -2.479587
      9          1           0       -2.253360   -1.459150   -1.413830
     10          1           0       -3.412747    0.713856    2.101157
     11          1           0       -5.620861    1.254953    1.046865
     12          7           0       -1.440298   -0.711996    1.012841
     13          8           0       -1.236714   -0.281041    2.145744
     14          8           0       -0.647296   -1.385771    0.358768
     15          6           0        1.380995    2.269373   -0.689837
     16          6           0        1.214173    1.069147   -1.388514
     17          6           0        2.081979   -0.005264   -1.171481
     18          6           0        3.110457    0.155892   -0.244361
     19          6           0        3.302642    1.339035    0.467347
     20          6           0        2.422860    2.400256    0.234234
     21          1           0        0.702211    3.098877   -0.864678
     22          1           0        0.405931    0.964657   -2.106755
     23          1           0        1.975754   -0.945620   -1.698609
     24          1           0        4.117653    1.413223    1.177045
     25          1           0        2.554818    3.331195    0.778278
     26          7           0        4.035504   -0.974557   -0.006086
     27          8           0        4.933729   -0.807274    0.816011
     28          8           0        3.844813   -2.006481   -0.645936
 ---------------------------------------------------------------------

 SCF Done:  E(RHF) =  -868.337369102     A.U. after   16 cycles
 E2 =    -0.2601075907D+01 EUMP2 =    -0.87093844500883D+03

 The electronic state is 1-A.
 Alpha  occ. eigenvalues --  -20.61218 -20.61199 -20.59770 -20.59756 -15.86242
 Alpha  occ. eigenvalues --  -15.84821 -11.31711 -11.30124 -11.28298 -11.28255
 Alpha  occ. eigenvalues --  -11.28002 -11.27308 -11.27282 -11.26777 -11.26752
 Alpha  occ. eigenvalues --  -11.26618 -11.25822 -11.25808  -1.60264  -1.58834
 Alpha  occ. eigenvalues --   -1.39824  -1.38392  -1.19880  -1.18343  -1.09250
 Alpha  occ. eigenvalues --   -1.07779  -1.05293  -1.03767  -0.96074  -0.94611
 Alpha  occ. eigenvalues --   -0.86682  -0.85195  -0.82908  -0.81460  -0.77951
 Alpha  occ. eigenvalues --   -0.76482  -0.72478  -0.71595  -0.71061  -0.70971
 Alpha  occ. eigenvalues --   -0.70132  -0.69540  -0.65526  -0.65283  -0.64040
 Alpha  occ. eigenvalues --   -0.63844  -0.62637  -0.61143  -0.55768  -0.54367
 Alpha  occ. eigenvalues --   -0.53626  -0.53376  -0.52070  -0.51918  -0.49235
 Alpha  occ. eigenvalues --   -0.49213  -0.47814  -0.47799  -0.45214  -0.43811
 Alpha  occ. eigenvalues --   -0.37860  -0.36910  -0.36364  -0.35250
 Alpha virt. eigenvalues --    0.04530   0.06143   0.10714   0.12313   0.16052
 Alpha virt. eigenvalues --    0.17572   0.20849   0.22137   0.26637   0.27425
 Alpha virt. eigenvalues --    0.28352   0.29102   0.30593   0.31453   0.32360

 Mulliken charges:
               1
     1  C   -0.171277
     2  C   -0.218621
     3  C   -0.174761
     4  C    0.158578
     5  C   -0.171848
     6  C   -0.218489
     7  H    0.227018
     8  H    0.224429
     9  H    0.273569
    10  H    0.276597
    11  H    0.224829
    12  N    0.489337
    13  O   -0.457845
    14  O   -0.459985
    15  C   -0.171822
    16  C   -0.220131
    17  C   -0.148427
    18  C    0.159096
    19  C   -0.168441
    20  C   -0.217133
    21  H    0.219296
    22  H    0.213963
    23  H    0.274477
    24  H    0.273440
    25  H    0.219389
    26  N    0.489132
    27  O   -0.463700
    28  O   -0.460671
 Sum of Mulliken charges =  -0.00000

 Dipole moment (field-independent basis, Debye):
    X=             -7.9807    Y=              4.9139    Z=             -2.9225  Tot=              9.8173
 Quadrupole moment (field-independent basis, Debye-Ang):
   XX=            -99.4355   YY=           -103.1871   ZZ=           -101.2994
   XY=             11.0526   XZ=              3.2154   YZ=              4.9421

 Normal termination of Gaussian 16 at Wed May  5 19:34:50 2021.
