 Gaussian 16, Revision A.03,
 Gaussian 16:  EM64L-G16RevA.03 25-Dec-2016

 -------------
 #p 6-31g* mp2
 -------------

 ------------------------------------------------------
 Input file generated by CHIRIPA (05-May-2021 14:51:14)
 ------------------------------------------------------
 Symbolic Z-matrix:
 Charge =  0 Multiplicity = 1

                         Standard orientation:
 ---------------------------------------------------------------------
 Center     Atomic      Atomic             Coordinates (Angstroms)
 Number     Number       Type             X           Y           Z
 ---------------------------------------------------------------------
      1          6           0       -2.625895    0.053889   -0.273513
      2          6           0       -3.848544   -0.583958   -0.934017
      3          6           0       -4.118841   -0.032848   -2.334379
      4          1           0       -2.771932    1.141396   -0.219237
      5          1           0       -1.745681   -0.111904   -0.910012
      6          1           0       -4.725930   -0.418208   -0.295787
      7          1           0       -3.699663   -1.670093   -0.986553
      8          1           0       -3.261196   -0.211702   -2.990928
      9          1           0       -4.293294    1.047296   -2.296237
     10          1           0       -4.997154   -0.502550   -2.788037
     11          6           0       -2.342772   -0.486757    1.126941
     12          6           0       -1.120123    0.151089    1.787445
     13          6           0       -0.849827   -0.400020    3.187806
     14          1           0       -3.222987   -0.320965    1.763440
     15          1           0       -2.196735   -1.574265    1.072665
     16          1           0       -1.269005    1.237225    1.839981
     17          1           0       -0.242738   -0.014661    1.149215
     18          1           0       -0.675374   -1.480165    3.149665
     19          1           0       -1.707472   -0.221166    3.844356
     20          1           0        0.028487    0.069681    3.641465
     21          6           0        2.333422   -0.517284   -0.277333
     22          6           0        3.387990   -1.477621   -0.828353
     23          6           0        3.072112   -2.941806   -0.521474
     24          1           0        2.252151   -0.656361    0.809405
     25          1           0        1.353314   -0.778288   -0.700015
     26          1           0        4.366049   -1.214015   -0.405827
     27          1           0        3.466897   -1.336108   -1.913878
     28          1           0        2.109238   -3.227665   -0.957088
     29          1           0        3.013500   -3.104879    0.559532
     30          1           0        3.838798   -3.610896   -0.924429
     31          6           0        2.635246    0.950153   -0.576095
     32          6           0        1.580677    1.910489   -0.025074
     33          6           0        1.896555    3.374675   -0.331953
     34          1           0        3.615353    1.211156   -0.153413
     35          1           0        2.716516    1.089229   -1.662833
     36          1           0        1.501771    1.768976    1.060450
     37          1           0        0.602618    1.646883   -0.447601
     38          1           0        1.955168    3.537747   -1.412959
     39          1           0        2.859430    3.660534    0.103660
     40          1           0        1.129871    4.043765    0.071001
 ---------------------------------------------------------------------

 SCF Done:  E(RHF) =  -470.731421768     A.U. after   11 cycles
 E2 =    -0.1585354101D+01 EUMP2 =    -0.47231677586980D+03

 The electronic state is 1-A.
 Alpha  occ. eigenvalues --  -11.21664 -11.21608 -11.21516 -11.21474 -11.21398
 Alpha  occ. eigenvalues --  -11.21385 -11.21346 -11.21276 -11.21129 -11.21087
 Alpha  occ. eigenvalues --  -11.21037 -11.20999  -1.08521  -1.08349  -1.03574
 Alpha  occ. eigenvalues --   -1.03452  -0.96013  -0.95945  -0.87033  -0.86954
 Alpha  occ. eigenvalues --   -0.79805  -0.79475  -0.78584  -0.77857  -0.65135
 Alpha  occ. eigenvalues --   -0.64994  -0.60945  -0.60887  -0.59494  -0.59213
 Alpha  occ. eigenvalues --   -0.57626  -0.57555  -0.55313  -0.55224  -0.52735
 Alpha  occ. eigenvalues --   -0.52617  -0.52448  -0.52358  -0.49951  -0.49889
 Alpha  occ. eigenvalues --   -0.48241  -0.47712  -0.46804  -0.46646  -0.46280
 Alpha  occ. eigenvalues --   -0.45736  -0.45676  -0.44790  -0.43808  -0.43711
 Alpha virt. eigenvalues --    0.20905   0.23028   0.23687   0.23943   0.24560
 Alpha virt. eigenvalues --    0.26102   0.26708   0.28011   0.28777   0.30360
 Alpha virt. eigenvalues --    0.30656   0.31393   0.31443   0.31807   0.32056

 Mulliken charges:
               1
     1  C   -0.300689
     2  C   -0.299546
     3  C   -0.475665
     4  H    0.149768
     5  H    0.149518
     6  H    0.152314
     7  H    0.151939
     8  H    0.154688
     9  H    0.155222
    10  H    0.160362
    11  C   -0.297473
    12  C   -0.310059
    13  C   -0.476084
    14  H    0.148720
    15  H    0.148902
    16  H    0.150626
    17  H    0.168886
    18  H    0.154673
    19  H    0.154715
    20  H    0.158569
    21  C   -0.303902
    22  C   -0.298783
    23  C   -0.475818
    24  H    0.151504
    25  H    0.150024
    26  H    0.152387
    27  H    0.152148
    28  H    0.154763
    29  H    0.155391
    30  H    0.160623
    31  C   -0.297075
    32  C   -0.305669
    33  C   -0.475194
    34  H    0.149433
    35  H    0.149413
    36  H    0.155050
    37  H    0.156906
    38  H    0.154789
    39  H    0.154657
    40  H    0.159968
 Sum of Mulliken charges =  -0.00000

 Dipole moment (field-independent basis, Debye):
    X=              0.0439    Y=              0.0021    Z=             -0.0201  Tot=              0.0484
 Quadrupole moment (field-independent basis, Debye-Ang):
   XX=            -84.3103   YY=            -85.6088   ZZ=            -85.0936
   XY=             -0.4712   XZ=             -0.0298   YZ=              0.8511

 Normal termination of Gaussian 16 at Thu May  6 04:02:01 2021.
