 Gaussian 16, Revision A.03,
 Gaussian 16:  EM64L-G16RevA.03 25-Dec-2016

 -------------
 #p 6-31g* mp2
 -------------

 ------------------------------------------------------
 Input file generated by CHIRIPA (05-May-2021 14:51:07)
 ------------------------------------------------------
 Symbolic Z-matrix:
 Charge =  0 Multiplicity = 1

                         Standard orientation:
 ---------------------------------------------------------------------
 Center     Atomic      Atomic             Coordinates (Angstroms)
 Number     Number       Type             X           Y           Z
 ---------------------------------------------------------------------
      1          6           0        4.468694    0.692676   -0.095039
      2          6           0        5.977282    0.798243    0.130797
      3          6           0        6.497175    2.229351   -0.008617
      4          1           0        4.226386    1.076504   -1.095492
      5          1           0        3.951027    1.343437    0.623241
      6          1           0        6.491886    0.146418   -0.586784
      7          1           0        6.216049    0.413942    1.130756
      8          1           0        6.010354    2.888514    0.717407
      9          1           0        6.287758    2.619470   -1.009893
     10          1           0        7.577804    2.281813    0.156760
     11          6           0        3.933991   -0.731867    0.040975
     12          6           0        2.425402   -0.837435   -0.184861
     13          6           0        1.905509   -2.268542   -0.045447
     14          1           0        4.451657   -1.382628   -0.677305
     15          1           0        4.176298   -1.115695    1.041429
     16          1           0        2.186635   -0.453133   -1.184820
     17          1           0        1.910799   -0.185609    0.532720
     18          1           0        2.114926   -2.658661    0.955829
     19          1           0        2.392330   -2.927705   -0.771471
     20          1           0        0.824880   -2.321004   -0.210824
     21          6           0       -3.694990   -0.442498    0.363943
     22          6           0       -3.438560   -1.732444   -0.415971
     23          6           0       -2.423322   -2.646527    0.270716
     24          1           0       -2.745471    0.094456    0.494475
     25          1           0       -4.051634   -0.696350    1.371792
     26          1           0       -3.083824   -1.476215   -1.422511
     27          1           0       -4.388831   -2.266296   -0.544827
     28          1           0       -2.773866   -2.930969    1.268119
     29          1           0       -1.461445   -2.136399    0.385447
     30          1           0       -2.255026   -3.562742   -0.303814
     31          6           0       -4.707694    0.481689   -0.309879
     32          6           0       -4.964124    1.771636    0.470035
     33          6           0       -5.979363    2.685718   -0.216652
     34          1           0       -4.351050    0.735542   -1.317728
     35          1           0       -5.657214   -0.055265   -0.440411
     36          1           0       -4.013853    2.305487    0.598891
     37          1           0       -5.318860    1.515406    1.476575
     38          1           0       -6.941240    2.175591   -0.331383
     39          1           0       -5.628818    2.970160   -1.214055
     40          1           0       -6.147658    3.601934    0.357879
 ---------------------------------------------------------------------

 SCF Done:  E(RHF) =  -470.733274571     A.U. after   11 cycles
 E2 =    -0.1582191754D+01 EUMP2 =    -0.47231546632491D+03

 The electronic state is 1-A.
 Alpha  occ. eigenvalues --  -11.21607 -11.21606 -11.21604 -11.21603 -11.21409
 Alpha  occ. eigenvalues --  -11.21406 -11.21349 -11.21347 -11.21074 -11.21072
 Alpha  occ. eigenvalues --  -11.21069 -11.21022  -1.08437  -1.08428  -1.03547
 Alpha  occ. eigenvalues --   -1.03515  -0.96016  -0.95945  -0.87052  -0.86943
 Alpha  occ. eigenvalues --   -0.79631  -0.79557  -0.78248  -0.78243  -0.65071
 Alpha  occ. eigenvalues --   -0.65058  -0.60971  -0.60916  -0.59361  -0.59347
 Alpha  occ. eigenvalues --   -0.57671  -0.57528  -0.55300  -0.55241  -0.52800
 Alpha  occ. eigenvalues --   -0.52624  -0.52454  -0.52284  -0.49933  -0.49883
 Alpha  occ. eigenvalues --   -0.47977  -0.47838  -0.46630  -0.46613  -0.45792
 Alpha  occ. eigenvalues --   -0.45781  -0.45713  -0.45710  -0.43813  -0.43729
 Alpha virt. eigenvalues --    0.21915   0.23025   0.23510   0.24884   0.26445
 Alpha virt. eigenvalues --    0.26668   0.27037   0.27500   0.27646   0.28777
 Alpha virt. eigenvalues --    0.30599   0.31417   0.31728   0.31858   0.32008

 Mulliken charges:
               1
     1  C   -0.298259
     2  C   -0.299658
     3  C   -0.475705
     4  H    0.149534
     5  H    0.149444
     6  H    0.151951
     7  H    0.151992
     8  H    0.155166
     9  H    0.155140
    10  H    0.160278
    11  C   -0.298240
    12  C   -0.299510
    13  C   -0.482885
    14  H    0.149630
    15  H    0.149769
    16  H    0.151550
    17  H    0.151379
    18  H    0.155324
    19  H    0.155146
    20  H    0.167479
    21  C   -0.298501
    22  C   -0.299480
    23  C   -0.481716
    24  H    0.149796
    25  H    0.149551
    26  H    0.151903
    27  H    0.152058
    28  H    0.155590
    29  H    0.160629
    30  H    0.160567
    31  C   -0.298310
    32  C   -0.299677
    33  C   -0.475711
    34  H    0.149571
    35  H    0.149670
    36  H    0.151979
    37  H    0.151911
    38  H    0.155180
    39  H    0.155206
    40  H    0.160257
 Sum of Mulliken charges =  -0.00000

 Dipole moment (field-independent basis, Debye):
    X=             -0.0127    Y=             -0.0095    Z=              0.0034  Tot=              0.0163
 Quadrupole moment (field-independent basis, Debye-Ang):
   XX=            -84.9930   YY=            -86.0937   ZZ=            -83.6527
   XY=              0.3738   XZ=             -0.7947   YZ=              0.2650

 Normal termination of Gaussian 16 at Wed May  5 16:34:30 2021.
