 Gaussian 16, Revision A.03,
 Gaussian 16:  EM64L-G16RevA.03 25-Dec-2016

 -------------
 #p 6-31g* mp2
 -------------

 ------------------------------------------------------
 Input file generated by CHIRIPA (05-May-2021 14:57:26)
 ------------------------------------------------------
 Symbolic Z-matrix:
 Charge =  0 Multiplicity = 1

                         Standard orientation:
 ---------------------------------------------------------------------
 Center     Atomic      Atomic             Coordinates (Angstroms)
 Number     Number       Type             X           Y           Z
 ---------------------------------------------------------------------
      1          6           0       -1.862040    1.258782    0.282119
      2          6           0       -2.102003    0.420738   -0.811782
      3          6           0       -3.318636   -0.257167   -0.933430
      4          6           0       -4.277346   -0.073136    0.061708
      5          6           0       -4.068119    0.754953    1.163426
      6          6           0       -2.844132    1.422926    1.264500
      7          1           0       -0.914074    1.781537    0.368626
      8          1           0       -1.341126    0.291366   -1.576226
      9          1           0       -3.530751   -0.912021   -1.769846
     10          1           0       -4.845869    0.863947    1.909511
     11          1           0       -2.660535    2.073126    2.115133
     12          7           0       -5.569233   -0.785546   -0.056185
     13          8           0       -6.397588   -0.606554    0.833999
     14          8           0       -5.728998   -1.509434   -1.036541
     15          6           0        2.748949    1.990095   -0.785955
     16          6           0        2.203714    0.712489   -0.950151
     17          6           0        2.923581   -0.421794   -0.563187
     18          6           0        4.191603   -0.240954   -0.012998
     19          6           0        4.762021    1.018724    0.163423
     20          6           0        4.024115    2.138873   -0.230671
     21          1           0        2.182732    2.865744   -1.089326
     22          1           0        1.213631    0.593930   -1.381109
     23          1           0        2.525465   -1.422551   -0.678984
     24          1           0        5.751378    1.105129    0.595999
     25          1           0        4.450066    3.129855   -0.101967
     26          7           0        4.963242   -1.434287    0.400436
     27          8           0        6.078349   -1.248135    0.882640
     28          8           0        4.438335   -2.533177    0.234455
 ---------------------------------------------------------------------

 SCF Done:  E(RHF) =  -868.336359988     A.U. after   16 cycles
 E2 =    -0.2600072163D+01 EUMP2 =    -0.87093643215171D+03

 The electronic state is 1-A.
 Alpha  occ. eigenvalues --  -20.61373 -20.61367 -20.61182 -20.61177 -15.86435
 Alpha  occ. eigenvalues --  -15.86243 -11.31984 -11.31746 -11.28623 -11.28558
 Alpha  occ. eigenvalues --  -11.28438 -11.28382 -11.28319 -11.28186 -11.27781
 Alpha  occ. eigenvalues --  -11.27603 -11.27525 -11.27360  -1.60445  -1.60255
 Alpha  occ. eigenvalues --   -1.39993  -1.39804  -1.20198  -1.19955  -1.09573
 Alpha  occ. eigenvalues --   -1.09339  -1.05635  -1.05387  -0.96364  -0.96141
 Alpha  occ. eigenvalues --   -0.87052  -0.86785  -0.83195  -0.82972  -0.78211
 Alpha  occ. eigenvalues --   -0.77977  -0.72650  -0.72460  -0.71771  -0.71579
 Alpha  occ. eigenvalues --   -0.71325  -0.71087  -0.65867  -0.65846  -0.65603
 Alpha  occ. eigenvalues --   -0.65300  -0.63020  -0.62677  -0.56162  -0.55931
 Alpha  occ. eigenvalues --   -0.53941  -0.53818  -0.53685  -0.53434  -0.49426
 Alpha  occ. eigenvalues --   -0.49391  -0.49231  -0.49203  -0.45357  -0.45179
 Alpha  occ. eigenvalues --   -0.38215  -0.37958  -0.37228  -0.36981
 Alpha virt. eigenvalues --    0.04347   0.04572   0.10288   0.10653   0.15770
 Alpha virt. eigenvalues --    0.16022   0.17675   0.22062   0.24301   0.26239
 Alpha virt. eigenvalues --    0.27783   0.28928   0.29450   0.31277   0.31756

 Mulliken charges:
               1
     1  C   -0.170765
     2  C   -0.222129
     3  C   -0.169341
     4  C    0.159189
     5  C   -0.169494
     6  C   -0.218143
     7  H    0.221571
     8  H    0.216547
     9  H    0.277621
    10  H    0.277937
    11  H    0.225446
    12  N    0.487954
    13  O   -0.458536
    14  O   -0.458992
    15  C   -0.174864
    16  C   -0.223380
    17  C   -0.170379
    18  C    0.159192
    19  C   -0.169432
    20  C   -0.218071
    21  H    0.224728
    22  H    0.218772
    23  H    0.278385
    24  H    0.278506
    25  H    0.226051
    26  N    0.487994
    27  O   -0.458196
    28  O   -0.458171
 Sum of Mulliken charges =  -0.00000

 Dipole moment (field-independent basis, Debye):
    X=              1.8979    Y=              6.6400    Z=             -0.9003  Tot=              6.9644
 Quadrupole moment (field-independent basis, Debye-Ang):
   XX=           -162.0442   YY=           -105.5567   ZZ=           -101.6010
   XY=              9.1267   XZ=             -7.8968   YZ=              3.6630

 Normal termination of Gaussian 16 at Fri May  7 05:04:55 2021.
