 Gaussian 16, Revision A.03,
 Gaussian 16:  EM64L-G16RevA.03 25-Dec-2016

 -------------
 #p 6-31g* mp2
 -------------

 ------------------------------------------------------
 Input file generated by CHIRIPA (05-May-2021 14:57:22)
 ------------------------------------------------------
 Symbolic Z-matrix:
 Charge =  0 Multiplicity = 1

                         Standard orientation:
 ---------------------------------------------------------------------
 Center     Atomic      Atomic             Coordinates (Angstroms)
 Number     Number       Type             X           Y           Z
 ---------------------------------------------------------------------
      1          6           0       -1.280693   -1.516621    0.128656
      2          6           0       -1.183906   -0.162049   -0.206440
      3          6           0       -2.332965    0.627513   -0.310375
      4          6           0       -3.568224    0.027218   -0.071480
      5          6           0       -3.697333   -1.319610    0.264192
      6          6           0       -2.534887   -2.090067    0.362490
      7          1           0       -0.382877   -2.122551    0.207207
      8          1           0       -0.211207    0.285975   -0.388586
      9          1           0       -2.286869    1.678617   -0.568200
     10          1           0       -4.680929   -1.738002    0.439995
     11          1           0       -2.613076   -3.141789    0.622898
     12          7           0       -4.791768    0.852979   -0.178528
     13          8           0       -5.868246    0.300293    0.036810
     14          8           0       -4.651135    2.037260   -0.475744
     15          6           0        3.543163    2.603802    0.385636
     16          6           0        4.011457    2.019903   -0.796009
     17          6           0        3.918735    0.638575   -0.990650
     18          6           0        3.349497   -0.132323    0.021761
     19          6           0        2.873907    0.419850    1.210125
     20          6           0        2.976881    1.803323    1.383172
     21          1           0        3.619174    3.677684    0.528451
     22          1           0        4.451704    2.639101   -1.572423
     23          1           0        4.273316    0.160438   -1.895678
     24          1           0        2.439956   -0.223359    1.966026
     25          1           0        2.612364    2.254051    2.301877
     26          7           0        3.245909   -1.595808   -0.172868
     27          8           0        2.740266   -2.253051    0.734321
     28          8           0        3.672324   -2.057933   -1.228921
 ---------------------------------------------------------------------

 SCF Done:  E(RHF) =  -868.339923069     A.U. after   16 cycles
 E2 =    -0.2599493857D+01 EUMP2 =    -0.87093941692575D+03

 The electronic state is 1-A.
 Alpha  occ. eigenvalues --  -20.62012 -20.61959 -20.60599 -20.60588 -15.87007
 Alpha  occ. eigenvalues --  -15.85648 -11.32230 -11.30899 -11.28765 -11.28716
 Alpha  occ. eigenvalues --  -11.28397 -11.27693 -11.27667 -11.27504 -11.27453
 Alpha  occ. eigenvalues --  -11.27012 -11.26424 -11.26365  -1.61053  -1.59676
 Alpha  occ. eigenvalues --   -1.40607  -1.39233  -1.20368  -1.19054  -1.09775
 Alpha  occ. eigenvalues --   -1.08436  -1.05719  -1.04452  -0.96634  -0.95292
 Alpha  occ. eigenvalues --   -0.87116  -0.85838  -0.83456  -0.82141  -0.78539
 Alpha  occ. eigenvalues --   -0.77238  -0.73212  -0.72389  -0.71866  -0.71416
 Alpha  occ. eigenvalues --   -0.71000  -0.70051  -0.65992  -0.65680  -0.64691
 Alpha  occ. eigenvalues --   -0.64446  -0.63048  -0.61816  -0.56183  -0.54827
 Alpha  occ. eigenvalues --   -0.54085  -0.53775  -0.52779  -0.52513  -0.49992
 Alpha  occ. eigenvalues --   -0.49960  -0.48630  -0.48612  -0.46023  -0.44665
 Alpha  occ. eigenvalues --   -0.38327  -0.37335  -0.36971  -0.36076
 Alpha virt. eigenvalues --    0.03931   0.05313   0.10289   0.11596   0.15444
 Alpha virt. eigenvalues --    0.16850   0.20587   0.21748   0.26534   0.27242
 Alpha virt. eigenvalues --    0.27444   0.28706   0.30345   0.31200   0.32057

 Mulliken charges:
               1
     1  C   -0.177755
     2  C   -0.224157
     3  C   -0.172297
     4  C    0.157596
     5  C   -0.171274
     6  C   -0.219743
     7  H    0.243262
     8  H    0.221289
     9  H    0.272092
    10  H    0.274670
    11  H    0.225617
    12  N    0.488248
    13  O   -0.460836
    14  O   -0.462988
    15  C   -0.170638
    16  C   -0.218603
    17  C   -0.171441
    18  C    0.153861
    19  C   -0.176309
    20  C   -0.219311
    21  H    0.230324
    22  H    0.227670
    23  H    0.278175
    24  H    0.276789
    25  H    0.228235
    26  N    0.486821
    27  O   -0.465300
    28  O   -0.453995
 Sum of Mulliken charges =  -0.00000

 Dipole moment (field-independent basis, Debye):
    X=              5.0697    Y=              2.2561    Z=              1.0567  Tot=              5.6488
 Quadrupole moment (field-independent basis, Debye-Ang):
   XX=           -131.3578   YY=           -103.3434   ZZ=           -101.2937
   XY=             31.4509   XZ=             -2.5421   YZ=             -1.1623

 Normal termination of Gaussian 16 at Fri May  7 03:18:44 2021.
