 Gaussian 16, Revision A.03,
 Gaussian 16:  EM64L-G16RevA.03 25-Dec-2016

 -------------
 #p 6-31g* mp2
 -------------

 ------------------------------------------------------
 Input file generated by CHIRIPA (05-May-2021 14:53:16)
 ------------------------------------------------------
 Symbolic Z-matrix:
 Charge =  0 Multiplicity = 1

                         Standard orientation:
 ---------------------------------------------------------------------
 Center     Atomic      Atomic             Coordinates (Angstroms)
 Number     Number       Type             X           Y           Z
 ---------------------------------------------------------------------
      1          6           0       -4.029457   -0.219535    0.460107
      2          6           0       -4.976319   -1.386359    0.177339
      3          6           0       -5.493731   -2.050460    1.453681
      4          1           0       -3.180888   -0.580640    1.057166
      5          1           0       -4.550927    0.525585    1.076759
      6          1           0       -4.453664   -2.128413   -0.439755
      7          1           0       -5.822635   -1.022474   -0.419279
      8          1           0       -6.038832   -1.328220    2.069988
      9          1           0       -4.662083   -2.440443    2.049396
     10          1           0       -6.168812   -2.881927    1.228319
     11          6           0       -3.503791    0.454593   -0.805972
     12          6           0       -2.556929    1.621418   -0.523205
     13          6           0       -2.039517    2.285519   -1.799547
     14          1           0       -2.982321   -0.290526   -1.422625
     15          1           0       -4.352359    0.815698   -1.403031
     16          1           0       -1.710613    1.257532    0.073414
     17          1           0       -3.079584    2.363471    0.093889
     18          1           0       -2.871165    2.675501   -2.395262
     19          1           0       -1.494416    1.563278   -2.415854
     20          1           0       -1.364436    3.116986   -1.574184
     21          6           0        2.121560    1.956204    1.358744
     22          6           0        1.439788    1.496573    0.227175
     23          6           0        1.885742    0.362869   -0.458675
     24          6           0        3.022057   -0.289815    0.016807
     25          6           0        3.722931    0.143577    1.141190
     26          6           0        3.258951    1.279432    1.811342
     27          1           0        1.768130    2.837728    1.885431
     28          1           0        0.556189    2.020165   -0.126589
     29          1           0        1.377003   -0.014625   -1.337367
     30          1           0        4.600721   -0.399415    1.469917
     31          1           0        3.790422    1.634117    2.689852
     32          7           0        3.503710   -1.491155   -0.700962
     33          8           0        4.507360   -2.048398   -0.261866
     34          8           0        2.868461   -1.852775   -1.689054
 ---------------------------------------------------------------------

 SCF Done:  E(RHF) =  -669.535362484     A.U. after   15 cycles
 E2 =    -0.2091795320D+01 EUMP2 =    -0.67162715780462D+03

 The electronic state is 1-A.
 Alpha  occ. eigenvalues --  -20.60760 -20.60755 -15.85813 -11.31172 -11.27743
 Alpha  occ. eigenvalues --  -11.27733 -11.27471 -11.26754 -11.26683 -11.22473
 Alpha  occ. eigenvalues --  -11.22081 -11.21966 -11.21887 -11.21788 -11.21287
 Alpha  occ. eigenvalues --   -1.59835  -1.39389  -1.19342  -1.08991  -1.08735
 Alpha  occ. eigenvalues --   -1.04747  -1.04123  -0.96568  -0.95573  -0.87578
 Alpha  occ. eigenvalues --   -0.86141  -0.82407  -0.80205  -0.78753  -0.77455
 Alpha  occ. eigenvalues --   -0.72031  -0.71159  -0.70450  -0.65681  -0.64989
 Alpha  occ. eigenvalues --   -0.64746  -0.62226  -0.61397  -0.59955  -0.58161
 Alpha  occ. eigenvalues --   -0.55846  -0.55224  -0.53301  -0.53085  -0.53016
 Alpha  occ. eigenvalues --   -0.52735  -0.50500  -0.48790  -0.48787  -0.48508
 Alpha  occ. eigenvalues --   -0.47223  -0.46296  -0.46183  -0.44796  -0.44353
 Alpha  occ. eigenvalues --   -0.37319  -0.36333
 Alpha virt. eigenvalues --    0.05068   0.11248   0.16483   0.19613   0.22741
 Alpha virt. eigenvalues --    0.23783   0.25897   0.26259   0.26846   0.27973
 Alpha virt. eigenvalues --    0.29176   0.30265   0.31134   0.31388   0.32114

 Mulliken charges:
               1
     1  C   -0.299113
     2  C   -0.300472
     3  C   -0.476139
     4  H    0.150900
     5  H    0.149263
     6  H    0.154508
     7  H    0.152418
     8  H    0.154739
     9  H    0.156180
    10  H    0.161943
    11  C   -0.298167
    12  C   -0.307125
    13  C   -0.481754
    14  H    0.152374
    15  H    0.152008
    16  H    0.148803
    17  H    0.154164
    18  H    0.163613
    19  H    0.156762
    20  H    0.154257
    21  C   -0.172956
    22  C   -0.224961
    23  C   -0.174458
    24  C    0.158810
    25  C   -0.171005
    26  C   -0.218413
    27  H    0.226037
    28  H    0.236630
    29  H    0.275337
    30  H    0.275526
    31  H    0.223309
    32  N    0.488142
    33  O   -0.460510
    34  O   -0.460648
 Sum of Mulliken charges =  -0.00000

 Dipole moment (field-independent basis, Debye):
    X=             -1.8718    Y=              4.1902    Z=              2.5095  Tot=              5.2306
 Quadrupole moment (field-independent basis, Debye-Ang):
   XX=           -101.4599   YY=            -97.8117   ZZ=            -93.5434
   XY=             12.2852   XZ=             11.1220   YZ=             -0.4898

 Normal termination of Gaussian 16 at Thu May  6 05:55:00 2021.
