 Gaussian 16, Revision A.03,
 Gaussian 16:  EM64L-G16RevA.03 25-Dec-2016

 -------------
 #p 6-31g* mp2
 -------------

 ------------------------------------------------------
 Input file generated by CHIRIPA (05-May-2021 14:57:22)
 ------------------------------------------------------
 Symbolic Z-matrix:
 Charge =  0 Multiplicity = 1

                         Standard orientation:
 ---------------------------------------------------------------------
 Center     Atomic      Atomic             Coordinates (Angstroms)
 Number     Number       Type             X           Y           Z
 ---------------------------------------------------------------------
      1          6           0        2.260269   -2.389689   -0.635417
      2          6           0        3.575725   -2.060664   -0.292142
      3          6           0        3.947827   -0.726242   -0.103982
      4          6           0        2.974498    0.258160   -0.267909
      5          6           0        1.655798   -0.037822   -0.609548
      6          6           0        1.306186   -1.378999   -0.792748
      7          1           0        1.979946   -3.428924   -0.779658
      8          1           0        4.318783   -2.843492   -0.169293
      9          1           0        4.959082   -0.443433    0.162102
     10          1           0        0.937256    0.764538   -0.725016
     11          1           0        0.283838   -1.631579   -1.059305
     12          7           0        3.356521    1.674429   -0.071338
     13          8           0        2.480295    2.523116   -0.221663
     14          8           0        4.524943    1.908998    0.229337
     15          6           0       -4.398414    0.770684   -1.576503
     16          6           0       -4.036631    1.649055   -0.549810
     17          6           0       -3.213276    1.219213    0.495116
     18          6           0       -2.767789   -0.101640    0.481749
     19          6           0       -3.110802   -1.000676   -0.526897
     20          6           0       -3.935162   -0.549052   -1.561796
     21          1           0       -5.038406    1.113056   -2.384332
     22          1           0       -4.394912    2.674531   -0.558640
     23          1           0       -2.917805    1.878136    1.302540
     24          1           0       -2.737993   -2.017106   -0.490788
     25          1           0       -4.214515   -1.233416   -2.357818
     26          7           0       -1.895609   -0.568226    1.582658
     27          8           0       -1.516351   -1.736810    1.547828
     28          8           0       -1.607765    0.243483    2.459534
 ---------------------------------------------------------------------

 SCF Done:  E(RHF) =  -868.338185721     A.U. after   16 cycles
 E2 =    -0.2600555674D+01 EUMP2 =    -0.87093874139466D+03

 The electronic state is 1-A.
 Alpha  occ. eigenvalues --  -20.61380 -20.61331 -20.60290 -20.60284 -15.86390
 Alpha  occ. eigenvalues --  -15.85340 -11.31796 -11.30608 -11.28405 -11.28258
 Alpha  occ. eigenvalues --  -11.28016 -11.27370 -11.27269 -11.27172 -11.27160
 Alpha  occ. eigenvalues --  -11.26870 -11.26174 -11.26156  -1.60421  -1.59363
 Alpha  occ. eigenvalues --   -1.39976  -1.38921  -1.19942  -1.18759  -1.09320
 Alpha  occ. eigenvalues --   -1.08170  -1.05332  -1.04166  -0.96154  -0.95031
 Alpha  occ. eigenvalues --   -0.86726  -0.85566  -0.82977  -0.81881  -0.78042
 Alpha  occ. eigenvalues --   -0.76945  -0.72602  -0.71760  -0.71568  -0.71013
 Alpha  occ. eigenvalues --   -0.70675  -0.69885  -0.65578  -0.65311  -0.64428
 Alpha  occ. eigenvalues --   -0.64185  -0.62673  -0.61533  -0.55795  -0.54668
 Alpha  occ. eigenvalues --   -0.53669  -0.53405  -0.52463  -0.52282  -0.49378
 Alpha  occ. eigenvalues --   -0.49350  -0.48325  -0.48314  -0.45354  -0.44351
 Alpha  occ. eigenvalues --   -0.37908  -0.36938  -0.36699  -0.35732
 Alpha virt. eigenvalues --    0.04455   0.05605   0.10598   0.11924   0.15988
 Alpha virt. eigenvalues --    0.17131   0.20647   0.21885   0.26100   0.27283
 Alpha virt. eigenvalues --    0.28213   0.28844   0.30317   0.31186   0.32384

 Mulliken charges:
               1
     1  C   -0.168645
     2  C   -0.217970
     3  C   -0.171092
     4  C    0.160012
     5  C   -0.171959
     6  C   -0.208555
     7  H    0.224643
     8  H    0.221796
     9  H    0.273966
    10  H    0.270856
    11  H    0.219131
    12  N    0.488656
    13  O   -0.462810
    14  O   -0.461611
    15  C   -0.170543
    16  C   -0.217266
    17  C   -0.170456
    18  C    0.155964
    19  C   -0.178764
    20  C   -0.217939
    21  H    0.228367
    22  H    0.227886
    23  H    0.280544
    24  H    0.271117
    25  H    0.224267
    26  N    0.487653
    27  O   -0.464527
    28  O   -0.452720
 Sum of Mulliken charges =  -0.00000

 Dipole moment (field-independent basis, Debye):
    X=             -4.6482    Y=             -3.2388    Z=             -4.4511  Tot=              7.2047
 Quadrupole moment (field-independent basis, Debye-Ang):
   XX=            -91.7043   YY=           -103.8208   ZZ=           -108.3434
   XY=            -22.1354   XZ=              8.9460   YZ=              4.2301

 Normal termination of Gaussian 16 at Wed May  5 19:21:37 2021.
