 Gaussian 16, Revision A.03,
 Gaussian 16:  EM64L-G16RevA.03 25-Dec-2016

 -------------
 #p 6-31g* mp2
 -------------

 ------------------------------------------------------
 Input file generated by CHIRIPA (05-May-2021 14:51:11)
 ------------------------------------------------------
 Symbolic Z-matrix:
 Charge =  0 Multiplicity = 1

                         Standard orientation:
 ---------------------------------------------------------------------
 Center     Atomic      Atomic             Coordinates (Angstroms)
 Number     Number       Type             X           Y           Z
 ---------------------------------------------------------------------
      1          6           0       -3.363660   -0.354718   -0.471991
      2          6           0       -3.399821   -1.852264   -0.165346
      3          6           0       -2.245116   -2.616499   -0.813724
      4          1           0       -3.391089   -0.209047   -1.560555
      5          1           0       -2.407302    0.060516   -0.125069
      6          1           0       -4.356398   -2.264280   -0.511496
      7          1           0       -3.372496   -1.994381    0.922621
      8          1           0       -1.282597   -2.232888   -0.460169
      9          1           0       -2.272089   -2.504321   -1.902434
     10          1           0       -2.290398   -3.685098   -0.581549
     11          6           0       -4.511649    0.422866    0.169268
     12          6           0       -4.475488    1.920412   -0.137377
     13          6           0       -5.630194    2.684647    0.511001
     14          1           0       -5.468008    0.007632   -0.177654
     15          1           0       -4.484220    0.277195    1.257832
     16          1           0       -4.502813    2.062529   -1.225344
     17          1           0       -3.518911    2.332428    0.208773
     18          1           0       -5.603221    2.572469    1.599711
     19          1           0       -6.592713    2.301036    0.157446
     20          1           0       -5.584911    3.753246    0.278825
     21          6           0        4.676222    0.151558    0.210445
     22          6           0        5.032131    1.457130   -0.501453
     23          6           0        6.513175    1.815077   -0.374267
     24          1           0        4.944761    0.235418    1.272424
     25          1           0        5.287894   -0.662104   -0.203326
     26          1           0        4.418982    2.267834   -0.087418
     27          1           0        4.762536    1.370223   -1.561821
     28          1           0        7.138497    1.026243   -0.804748
     29          1           0        6.792992    1.928956    0.678032
     30          1           0        6.745563    2.751808   -0.890397
     31          6           0        3.199087   -0.219706    0.092278
     32          6           0        2.843179   -1.525278    0.804175
     33          6           0        1.362134   -1.883225    0.676991
     34          1           0        2.587416    0.593956    0.506050
     35          1           0        2.930548   -0.303565   -0.969701
     36          1           0        3.112773   -1.438370    1.864544
     37          1           0        3.456327   -2.335983    0.390141
     38          1           0        1.082318   -1.997103   -0.375310
     39          1           0        0.736812   -1.094391    1.107471
     40          1           0        1.129746   -2.819956    1.193120
 ---------------------------------------------------------------------

 SCF Done:  E(RHF) =  -470.732935757     A.U. after   11 cycles
 E2 =    -0.1582614443D+01 EUMP2 =    -0.47231555019960D+03

 The electronic state is 1-A.
 Alpha  occ. eigenvalues --  -11.21634 -11.21616 -11.21572 -11.21502 -11.21429
 Alpha  occ. eigenvalues --  -11.21369 -11.21352 -11.21290 -11.21131 -11.21082
 Alpha  occ. eigenvalues --  -11.21050 -11.20865  -1.08458  -1.08367  -1.03571
 Alpha  occ. eigenvalues --   -1.03449  -0.96046  -0.95880  -0.87096  -0.86872
 Alpha  occ. eigenvalues --   -0.79691  -0.79470  -0.78276  -0.78174  -0.65087
 Alpha  occ. eigenvalues --   -0.65001  -0.60976  -0.60851  -0.59382  -0.59273
 Alpha  occ. eigenvalues --   -0.57687  -0.57473  -0.55376  -0.55154  -0.52769
 Alpha  occ. eigenvalues --   -0.52586  -0.52558  -0.52190  -0.50037  -0.49754
 Alpha  occ. eigenvalues --   -0.48066  -0.47715  -0.46682  -0.46506  -0.45850
 Alpha  occ. eigenvalues --   -0.45736  -0.45697  -0.45572  -0.43807  -0.43714
 Alpha virt. eigenvalues --    0.22217   0.22936   0.23729   0.24661   0.26106
 Alpha virt. eigenvalues --    0.26462   0.27164   0.27551   0.27759   0.29081
 Alpha virt. eigenvalues --    0.30782   0.31049   0.31758   0.31868   0.32075

 Mulliken charges:
               1
     1  C   -0.298502
     2  C   -0.298733
     3  C   -0.486272
     4  H    0.149418
     5  H    0.149424
     6  H    0.151210
     7  H    0.151447
     8  H    0.169801
     9  H    0.153510
    10  H    0.159097
    11  C   -0.298232
    12  C   -0.299557
    13  C   -0.475662
    14  H    0.149482
    15  H    0.149451
    16  H    0.151899
    17  H    0.151689
    18  H    0.155074
    19  H    0.155170
    20  H    0.160108
    21  C   -0.298320
    22  C   -0.299658
    23  C   -0.475726
    24  H    0.149661
    25  H    0.149646
    26  H    0.151907
    27  H    0.152054
    28  H    0.155231
    29  H    0.155176
    30  H    0.160319
    31  C   -0.298446
    32  C   -0.300259
    33  C   -0.478461
    34  H    0.149294
    35  H    0.149980
    36  H    0.151923
    37  H    0.152346
    38  H    0.157487
    39  H    0.154363
    40  H    0.161661
 Sum of Mulliken charges =  -0.00000

 Dipole moment (field-independent basis, Debye):
    X=              0.0618    Y=             -0.0073    Z=              0.0063  Tot=              0.0626
 Quadrupole moment (field-independent basis, Debye-Ang):
   XX=            -86.2860   YY=            -85.1756   ZZ=            -83.5240
   XY=              0.0061   XZ=              0.5721   YZ=              0.2689

 Normal termination of Gaussian 16 at Thu May  6 00:39:08 2021.
