 Gaussian 16, Revision A.03,
 Gaussian 16:  EM64L-G16RevA.03 25-Dec-2016

 -------------
 #p 6-31g* mp2
 -------------

 ------------------------------------------------------
 Input file generated by CHIRIPA (05-May-2021 14:57:26)
 ------------------------------------------------------
 Symbolic Z-matrix:
 Charge =  0 Multiplicity = 1

                         Standard orientation:
 ---------------------------------------------------------------------
 Center     Atomic      Atomic             Coordinates (Angstroms)
 Number     Number       Type             X           Y           Z
 ---------------------------------------------------------------------
      1          6           0        1.795573    1.981587    0.470677
      2          6           0        2.815828    2.103945   -0.478338
      3          6           0        3.682877    1.036571   -0.730308
      4          6           0        3.500132   -0.143964   -0.011817
      5          6           0        2.493138   -0.296677    0.939987
      6          6           0        1.637763    0.783778    1.175568
      7          1           0        1.126563    2.815829    0.660048
      8          1           0        2.940746    3.032988   -1.027264
      9          1           0        4.481115    1.104116   -1.459466
     10          1           0        2.393478   -1.235336    1.471404
     11          1           0        0.846299    0.685905    1.913167
     12          7           0        4.411858   -1.280869   -0.269891
     13          8           0        4.229868   -2.310333    0.376422
     14          8           0        5.291197   -1.120984   -1.113596
     15          6           0       -2.460059    2.310850    0.147090
     16          6           0       -2.159902    1.372236    1.139778
     17          6           0       -2.647512    0.064946    1.051583
     18          6           0       -3.435892   -0.271013   -0.047907
     19          6           0       -3.752402    0.641504   -1.053105
     20          6           0       -3.253952    1.943138   -0.944259
     21          1           0       -2.077062    3.324187    0.223623
     22          1           0       -1.543595    1.654994    1.988458
     23          1           0       -2.430543   -0.681682    1.805832
     24          1           0       -4.369296    0.330007   -1.887269
     25          1           0       -3.488671    2.669983   -1.716688
     26          7           0       -3.957841   -1.651987   -0.152205
     27          8           0       -4.650270   -1.922951   -1.130856
     28          8           0       -3.664632   -2.437281    0.746670
 ---------------------------------------------------------------------

 SCF Done:  E(RHF) =  -868.335732219     A.U. after   16 cycles
 E2 =    -0.2601091549D+01 EUMP2 =    -0.87093682376808D+03

 The electronic state is 1-A.
 Alpha  occ. eigenvalues --  -20.61284 -20.61278 -20.61009 -20.61001 -15.86347
 Alpha  occ. eigenvalues --  -15.86067 -11.31914 -11.31573 -11.28569 -11.28474
 Alpha  occ. eigenvalues --  -11.28375 -11.28163 -11.28157 -11.28047 -11.27716
 Alpha  occ. eigenvalues --  -11.27539 -11.27295 -11.27237  -1.60354  -1.60080
 Alpha  occ. eigenvalues --   -1.39903  -1.39629  -1.20125  -1.19777  -1.09499
 Alpha  occ. eigenvalues --   -1.09167  -1.05577  -1.05203  -0.96291  -0.95972
 Alpha  occ. eigenvalues --   -0.86991  -0.86603  -0.83135  -0.82798  -0.78142
 Alpha  occ. eigenvalues --   -0.77795  -0.72563  -0.72285  -0.71678  -0.71404
 Alpha  occ. eigenvalues --   -0.71285  -0.70928  -0.65795  -0.65763  -0.65435
 Alpha  occ. eigenvalues --   -0.65150  -0.62965  -0.62493  -0.56131  -0.55766
 Alpha  occ. eigenvalues --   -0.53927  -0.53729  -0.53478  -0.53250  -0.49338
 Alpha  occ. eigenvalues --   -0.49303  -0.49056  -0.49028  -0.45263  -0.45003
 Alpha  occ. eigenvalues --   -0.38227  -0.37745  -0.37183  -0.36692
 Alpha virt. eigenvalues --    0.04372   0.04771   0.10257   0.10994   0.15687
 Alpha virt. eigenvalues --    0.16278   0.18044   0.22282   0.24460   0.25551
 Alpha virt. eigenvalues --    0.28163   0.29204   0.29985   0.31225   0.32530

 Mulliken charges:
               1
     1  C   -0.168221
     2  C   -0.218431
     3  C   -0.170098
     4  C    0.159355
     5  C   -0.170315
     6  C   -0.213785
     7  H    0.215580
     8  H    0.223008
     9  H    0.277081
    10  H    0.278274
    11  H    0.214887
    12  N    0.487959
    13  O   -0.458047
    14  O   -0.459478
    15  C   -0.171540
    16  C   -0.219058
    17  C   -0.169573
    18  C    0.159997
    19  C   -0.168871
    20  C   -0.217560
    21  H    0.221790
    22  H    0.215013
    23  H    0.275683
    24  H    0.278759
    25  H    0.225728
    26  N    0.488100
    27  O   -0.457572
    28  O   -0.458666
 Sum of Mulliken charges =  -0.00000

 Dipole moment (field-independent basis, Debye):
    X=             -1.4610    Y=              8.6666    Z=              1.0762  Tot=              8.8545
 Quadrupole moment (field-independent basis, Debye-Ang):
   XX=           -137.7311   YY=           -108.1109   ZZ=            -99.5826
   XY=             -1.8580   XZ=              2.4560   YZ=             -4.1843

 Normal termination of Gaussian 16 at Thu May  6 22:55:47 2021.
