 Gaussian 16, Revision A.03,
 Gaussian 16:  EM64L-G16RevA.03 25-Dec-2016

 -------------
 #p 6-31g* mp2
 -------------

 ------------------------------------------------------
 Input file generated by CHIRIPA (05-May-2021 14:55:22)
 ------------------------------------------------------
 Symbolic Z-matrix:
 Charge =  0 Multiplicity = 1

                         Standard orientation:
 ---------------------------------------------------------------------
 Center     Atomic      Atomic             Coordinates (Angstroms)
 Number     Number       Type             X           Y           Z
 ---------------------------------------------------------------------
      1          6           0        1.745862    1.182089    0.571215
      2          6           0        1.893159   -0.208883    0.566731
      3          6           0        3.117491   -0.792121    0.227036
      4          6           0        4.178309    0.049373   -0.104393
      5          6           0        4.062901    1.438599   -0.109127
      6          6           0        2.829293    1.999949    0.233867
      7          1           0        0.791169    1.626661    0.836380
      8          1           0        1.053476   -0.846508    0.828287
      9          1           0        3.259185   -1.865996    0.215444
     10          1           0        4.918097    2.048252   -0.374420
     11          1           0        2.717799    3.080508    0.236499
     12          7           0        5.479364   -0.556489   -0.465759
     13          8           0        6.398615    0.206787   -0.753897
     14          8           0        5.555245   -1.783168   -0.454017
     15          6           0       -4.488593   -0.661954    0.196014
     16          6           0       -3.255961    0.050386    0.753844
     17          6           0       -2.093698   -0.905041    1.026054
     18          1           0       -4.808191   -1.437741    0.905210
     19          1           0       -4.214409   -1.181275   -0.732707
     20          1           0       -3.532718    0.569352    1.680502
     21          1           0       -2.939376    0.824696    0.043326
     22          1           0       -1.789494   -1.413736    0.105570
     23          1           0       -2.386208   -1.670529    1.752049
     24          1           0       -1.222987   -0.374838    1.424310
     25          6           0       -5.658936    0.279935   -0.081236
     26          6           0       -6.891569   -0.432405   -0.639065
     27          6           0       -8.053831    0.523022   -0.911276
     28          1           0       -5.933121    0.799257    0.847485
     29          1           0       -5.339340    1.055722   -0.790431
     30          1           0       -7.208155   -1.206714    0.071452
     31          1           0       -6.614812   -0.951372   -1.565724
     32          1           0       -7.761323    1.288510   -1.637270
     33          1           0       -8.358036    1.031716    0.009208
     34          1           0       -8.924543   -0.007180   -1.309531
 ---------------------------------------------------------------------

 SCF Done:  E(RHF) =  -669.535402089     A.U. after   15 cycles
 E2 =    -0.2091048937D+01 EUMP2 =    -0.67162645102621D+03

 The electronic state is 1-A.
 Alpha  occ. eigenvalues --  -20.60710 -20.60705 -15.85762 -11.31114 -11.27683
 Alpha  occ. eigenvalues --  -11.27663 -11.27416 -11.26705 -11.26626 -11.22623
 Alpha  occ. eigenvalues --  -11.22373 -11.22154 -11.22104 -11.21990 -11.21494
 Alpha  occ. eigenvalues --   -1.59785  -1.39339  -1.19282  -1.09174  -1.08682
 Alpha  occ. eigenvalues --   -1.04682  -1.04318  -0.96788  -0.95520  -0.87820
 Alpha  occ. eigenvalues --   -0.86079  -0.82350  -0.80398  -0.78937  -0.77399
 Alpha  occ. eigenvalues --   -0.71981  -0.71108  -0.70403  -0.65796  -0.64937
 Alpha  occ. eigenvalues --   -0.64725  -0.62083  -0.61690  -0.60168  -0.58369
 Alpha  occ. eigenvalues --   -0.56049  -0.55189  -0.53597  -0.53210  -0.53015
 Alpha  occ. eigenvalues --   -0.52673  -0.50701  -0.48745  -0.48737  -0.48696
 Alpha  occ. eigenvalues --   -0.47400  -0.46492  -0.46380  -0.44748  -0.44559
 Alpha  occ. eigenvalues --   -0.37267  -0.36283
 Alpha virt. eigenvalues --    0.05130   0.11355   0.16627   0.19780   0.22404
 Alpha virt. eigenvalues --    0.23791   0.25850   0.26054   0.26318   0.27617
 Alpha virt. eigenvalues --    0.28652   0.29850   0.30698   0.31448   0.31866

 Mulliken charges:
               1
     1  C   -0.173550
     2  C   -0.223791
     3  C   -0.171815
     4  C    0.158813
     5  C   -0.171433
     6  C   -0.218480
     7  H    0.225782
     8  H    0.231814
     9  H    0.275619
    10  H    0.275279
    11  H    0.223038
    12  N    0.487975
    13  O   -0.460668
    14  O   -0.460536
    15  C   -0.299415
    16  C   -0.299981
    17  C   -0.481767
    18  H    0.151737
    19  H    0.151474
    20  H    0.154111
    21  H    0.151100
    22  H    0.158212
    23  H    0.161672
    24  H    0.150751
    25  C   -0.298919
    26  C   -0.300257
    27  C   -0.476100
    28  H    0.150243
    29  H    0.150058
    30  H    0.152898
    31  H    0.152971
    32  H    0.155605
    33  H    0.155621
    34  H    0.161939
 Sum of Mulliken charges =  -0.00000

 Dipole moment (field-independent basis, Debye):
    X=             -4.8718    Y=              2.0911    Z=              1.2568  Tot=              5.4486
 Quadrupole moment (field-independent basis, Debye-Ang):
   XX=           -132.7268   YY=            -90.7139   ZZ=            -94.9574
   XY=             11.4672   XZ=              4.9528   YZ=             -0.9278

 Normal termination of Gaussian 16 at Thu May  6 07:49:39 2021.
