 Gaussian 16, Revision A.03,
 Gaussian 16:  EM64L-G16RevA.03 25-Dec-2016

 -------------
 #p 6-31g* mp2
 -------------

 ------------------------------------------------------
 Input file generated by CHIRIPA (05-May-2021 14:57:27)
 ------------------------------------------------------
 Symbolic Z-matrix:
 Charge =  0 Multiplicity = 1

                         Standard orientation:
 ---------------------------------------------------------------------
 Center     Atomic      Atomic             Coordinates (Angstroms)
 Number     Number       Type             X           Y           Z
 ---------------------------------------------------------------------
      1          6           0        1.711682   -0.884472    0.581270
      2          6           0        2.805615   -1.297238    1.349031
      3          6           0        4.089595   -0.819765    1.069814
      4          6           0        4.244117    0.073417    0.010739
      5          6           0        3.174065    0.503406   -0.772452
      6          6           0        1.899068    0.012950   -0.475158
      7          1           0        0.717744   -1.260428    0.805194
      8          1           0        2.663064   -1.994100    2.170071
      9          1           0        4.954005   -1.122778    1.648083
     10          1           0        3.347523    1.198991   -1.584542
     11          1           0        1.051342    0.335242   -1.073099
     12          7           0        5.598655    0.585769   -0.294424
     13          8           0        5.708316    1.371888   -1.232842
     14          8           0        6.525031    0.191529    0.410585
     15          6           0       -4.970134    2.277687    0.510862
     16          6           0       -3.584838    2.094300    0.448840
     17          6           0       -3.047750    0.842790    0.132919
     18          6           0       -3.929102   -0.208108   -0.116322
     19          6           0       -5.313852   -0.056985   -0.062284
     20          6           0       -5.828706    1.203354    0.255553
     21          1           0       -5.378721    3.253319    0.757022
     22          1           0       -2.915662    2.926839    0.646642
     23          1           0       -1.979311    0.672944    0.078059
     24          1           0       -5.955644   -0.905893   -0.264464
     25          1           0       -6.904965    1.342853    0.303003
     26          7           0       -3.372280   -1.537699   -0.451788
     27          8           0       -4.170092   -2.447508   -0.667148
     28          8           0       -2.148574   -1.644847   -0.493014
 ---------------------------------------------------------------------

 SCF Done:  E(RHF) =  -868.339446360     A.U. after   16 cycles
 E2 =    -0.2598805601D+01 EUMP2 =    -0.87093825196107D+03

 The electronic state is 1-A.
 Alpha  occ. eigenvalues --  -20.61869 -20.61794 -20.60477 -20.60471 -15.86873
 Alpha  occ. eigenvalues --  -15.85529 -11.32050 -11.30790 -11.28659 -11.28542
 Alpha  occ. eigenvalues --  -11.28248 -11.27561 -11.27513 -11.27382 -11.27362
 Alpha  occ. eigenvalues --  -11.26927 -11.26320 -11.26287  -1.60889  -1.59556
 Alpha  occ. eigenvalues --   -1.40456  -1.39112  -1.20191  -1.18948  -1.09609
 Alpha  occ. eigenvalues --   -1.08329  -1.05569  -1.04350  -0.96484  -0.95183
 Alpha  occ. eigenvalues --   -0.86974  -0.85733  -0.83331  -0.82033  -0.78414
 Alpha  occ. eigenvalues --   -0.77125  -0.73106  -0.72196  -0.71747  -0.71295
 Alpha  occ. eigenvalues --   -0.70880  -0.69952  -0.65846  -0.65563  -0.64586
 Alpha  occ. eigenvalues --   -0.64342  -0.62931  -0.61708  -0.56050  -0.54714
 Alpha  occ. eigenvalues --   -0.53899  -0.53658  -0.52673  -0.52431  -0.49867
 Alpha  occ. eigenvalues --   -0.49811  -0.48509  -0.48495  -0.45898  -0.44542
 Alpha  occ. eigenvalues --   -0.38139  -0.37162  -0.36877  -0.35975
 Alpha virt. eigenvalues --    0.04105   0.05425   0.10492   0.11667   0.15647
 Alpha virt. eigenvalues --    0.16954   0.19322   0.21864   0.25348   0.26997
 Alpha virt. eigenvalues --    0.28242   0.28928   0.30784   0.31553   0.31873

 Mulliken charges:
               1
     1  C   -0.176216
     2  C   -0.219704
     3  C   -0.171094
     4  C    0.157535
     5  C   -0.171576
     6  C   -0.222472
     7  H    0.243184
     8  H    0.223708
     9  H    0.274268
    10  H    0.273355
    11  H    0.222637
    12  N    0.488220
    13  O   -0.462142
    14  O   -0.461424
    15  C   -0.169906
    16  C   -0.218228
    17  C   -0.171678
    18  C    0.159145
    19  C   -0.170186
    20  C   -0.218078
    21  H    0.228880
    22  H    0.225917
    23  H    0.267643
    24  H    0.277469
    25  H    0.226501
    26  N    0.491671
    27  O   -0.453665
    28  O   -0.473764
 Sum of Mulliken charges =  -0.00000

 Dipole moment (field-independent basis, Debye):
    X=             -7.2251    Y=              2.8480    Z=              2.3008  Tot=              8.0998
 Quadrupole moment (field-independent basis, Debye-Ang):
   XX=           -124.5829   YY=           -105.5953   ZZ=           -103.4608
   XY=            -25.8730   XZ=              2.1125   YZ=             -2.8419

 Normal termination of Gaussian 16 at Thu May  6 05:14:16 2021.
