 Gaussian 16, Revision A.03,
 Gaussian 16:  EM64L-G16RevA.03 25-Dec-2016

 -------------
 #p 6-31g* mp2
 -------------

 ------------------------------------------------------
 Input file generated by CHIRIPA (05-May-2021 14:55:25)
 ------------------------------------------------------
 Symbolic Z-matrix:
 Charge =  0 Multiplicity = 1

                         Standard orientation:
 ---------------------------------------------------------------------
 Center     Atomic      Atomic             Coordinates (Angstroms)
 Number     Number       Type             X           Y           Z
 ---------------------------------------------------------------------
      1          6           0       -4.297293    1.391894    0.219799
      2          6           0       -3.033659    1.803018   -0.216925
      3          6           0       -2.006564    0.871585   -0.395973
      4          6           0       -2.279180   -0.468946   -0.127743
      5          6           0       -3.527667   -0.909656    0.308543
      6          6           0       -4.539836    0.039254    0.480679
      7          1           0       -5.089367    2.122242    0.356203
      8          1           0       -2.842433    2.852836   -0.420296
      9          1           0       -1.019034    1.162424   -0.733040
     10          1           0       -3.688114   -1.963123    0.503176
     11          1           0       -5.520219   -0.282906    0.819952
     12          7           0       -1.199741   -1.464263   -0.313635
     13          8           0       -1.465393   -2.639399   -0.070488
     14          8           0       -0.108465   -1.050410   -0.698965
     15          6           0        2.894170    1.033072    0.451862
     16          6           0        3.060248    2.269193   -0.432676
     17          6           0        2.553750    3.547289    0.236448
     18          1           0        1.833348    0.916493    0.712647
     19          1           0        3.432656    1.191689    1.396461
     20          1           0        2.522760    2.107733   -1.375889
     21          1           0        4.120773    2.382735   -0.691543
     22          1           0        3.097072    3.735735    1.168054
     23          1           0        1.489980    3.459171    0.479819
     24          1           0        2.682075    4.418597   -0.413333
     25          6           0        3.395966   -0.252514   -0.203270
     26          6           0        3.229888   -1.488636    0.681267
     27          6           0        3.736387   -2.766731    0.012143
     28          1           0        2.857480   -0.411131   -1.147870
     29          1           0        4.456789   -0.135935   -0.464055
     30          1           0        2.169364   -1.602178    0.940135
     31          1           0        3.767377   -1.327175    1.624481
     32          1           0        4.800156   -2.678613   -0.231228
     33          1           0        3.193065   -2.955178   -0.919462
     34          1           0        3.608062   -3.638039    0.661925
 ---------------------------------------------------------------------

 SCF Done:  E(RHF) =  -669.536483895     A.U. after   15 cycles
 E2 =    -0.2092535161D+01 EUMP2 =    -0.67162901905683D+03

 The electronic state is 1-A.
 Alpha  occ. eigenvalues --  -20.61116 -20.61111 -15.86126 -11.31385 -11.27940
 Alpha  occ. eigenvalues --  -11.27934 -11.27661 -11.26930 -11.26920 -11.21128
 Alpha  occ. eigenvalues --  -11.20934 -11.20519 -11.20116 -11.20054 -11.19667
 Alpha  occ. eigenvalues --   -1.60165  -1.39724  -1.19545  -1.08962  -1.07439
 Alpha  occ. eigenvalues --   -1.04931  -1.02586  -0.95815  -0.95075  -0.86336
 Alpha  occ. eigenvalues --   -0.86105  -0.82652  -0.78731  -0.77715  -0.77152
 Alpha  occ. eigenvalues --   -0.72371  -0.71472  -0.70653  -0.65215  -0.64934
 Alpha  occ. eigenvalues --   -0.64015  -0.62279  -0.59956  -0.58536  -0.56660
 Alpha  occ. eigenvalues --   -0.55437  -0.54362  -0.53265  -0.53021  -0.51837
 Alpha  occ. eigenvalues --   -0.51504  -0.49240  -0.49104  -0.48910  -0.47031
 Alpha  occ. eigenvalues --   -0.45743  -0.45336  -0.44681  -0.44336  -0.42814
 Alpha  occ. eigenvalues --   -0.37518  -0.36528
 Alpha virt. eigenvalues --    0.04763   0.11107   0.16257   0.20278   0.22995
 Alpha virt. eigenvalues --    0.25177   0.26690   0.27475   0.28366   0.28757
 Alpha virt. eigenvalues --    0.29152   0.31205   0.31791   0.32285   0.32982

 Mulliken charges:
               1
     1  C   -0.170294
     2  C   -0.218681
     3  C   -0.172293
     4  C    0.157670
     5  C   -0.170425
     6  C   -0.218575
     7  H    0.226469
     8  H    0.224662
     9  H    0.277314
    10  H    0.276024
    11  H    0.224182
    12  N    0.491227
    13  O   -0.457493
    14  O   -0.463250
    15  C   -0.299083
    16  C   -0.300057
    17  C   -0.473705
    18  H    0.151942
    19  H    0.145007
    20  H    0.150253
    21  H    0.151803
    22  H    0.156185
    23  H    0.145886
    24  H    0.157584
    25  C   -0.296290
    26  C   -0.300676
    27  C   -0.475654
    28  H    0.161324
    29  H    0.141858
    30  H    0.168308
    31  H    0.141599
    32  H    0.147171
    33  H    0.162994
    34  H    0.157014
 Sum of Mulliken charges =  -0.00000

 Dipole moment (field-independent basis, Debye):
    X=             -4.1495    Y=              3.3228    Z=              0.5688  Tot=              5.3463
 Quadrupole moment (field-independent basis, Debye-Ang):
   XX=            -76.0083   YY=            -97.1304   ZZ=            -95.4258
   XY=             -3.3517   XZ=             -1.9647   YZ=             -2.1765

 Normal termination of Gaussian 16 at Thu May  6 11:08:05 2021.
