 Gaussian 16, Revision A.03,
 Gaussian 16:  EM64L-G16RevA.03 25-Dec-2016

 -------------
 #p 6-31g* mp2
 -------------

 ------------------------------------------------------
 Input file generated by CHIRIPA (05-May-2021 14:51:09)
 ------------------------------------------------------
 Symbolic Z-matrix:
 Charge =  0 Multiplicity = 1

                         Standard orientation:
 ---------------------------------------------------------------------
 Center     Atomic      Atomic             Coordinates (Angstroms)
 Number     Number       Type             X           Y           Z
 ---------------------------------------------------------------------
      1          6           0        2.987994    0.446648   -1.018151
      2          6           0        2.182211    1.696019   -0.660700
      3          6           0        1.772839    2.507288   -1.890354
      4          1           0        3.885097    0.744432   -1.578039
      5          1           0        2.393199   -0.184047   -1.693309
      6          1           0        2.777807    2.323504    0.014685
      7          1           0        1.287020    1.395241   -0.101431
      8          1           0        1.157317    1.902073   -2.563742
      9          1           0        2.656575    2.835610   -2.446966
     10          1           0        1.197829    3.395913   -1.611843
     11          6           0        3.404559   -0.374811    0.200621
     12          6           0        4.210342   -1.624182   -0.156830
     13          6           0        4.619715   -2.435451    1.072825
     14          1           0        3.999354    0.255884    0.875779
     15          1           0        2.507456   -0.672596    0.760510
     16          1           0        5.105533   -1.323404   -0.716099
     17          1           0        3.614746   -2.251667   -0.832215
     18          1           0        3.735978   -2.763773    1.629436
     19          1           0        5.235236   -1.830237    1.746212
     20          1           0        5.194724   -3.324076    0.794313
     21          6           0       -2.489179    0.176669    0.604346
     22          6           0       -2.455335    1.188806    1.749954
     23          6           0       -1.033790    1.604409    2.129789
     24          1           0       -1.910183   -0.711803    0.891269
     25          1           0       -1.985838    0.608205   -0.271906
     26          1           0       -2.959809    0.756022    2.623350
     27          1           0       -3.034641    2.074893    1.460346
     28          1           0       -0.524260    2.060326    1.274733
     29          1           0       -0.449003    0.733961    2.444345
     30          1           0       -1.032957    2.328312    2.950656
     31          6           0       -3.903374   -0.248505    0.213184
     32          6           0       -3.937217   -1.260643   -0.932424
     33          6           0       -5.358764   -1.676246   -1.312259
     34          1           0       -4.406716   -0.680042    1.089436
     35          1           0       -4.482371    0.639966   -0.073739
     36          1           0       -3.357913   -2.146730   -0.642816
     37          1           0       -3.432745   -0.827858   -1.805820
     38          1           0       -5.943551   -0.805798   -1.626815
     39          1           0       -5.868294   -2.132163   -0.457203
     40          1           0       -5.359597   -2.400148   -2.133127
 ---------------------------------------------------------------------

 SCF Done:  E(RHF) =  -470.733239013     A.U. after   11 cycles
 E2 =    -0.1582805437D+01 EUMP2 =    -0.47231604445003D+03

 The electronic state is 1-A.
 Alpha  occ. eigenvalues --  -11.21635 -11.21632 -11.21577 -11.21520 -11.21450
 Alpha  occ. eigenvalues --  -11.21389 -11.21366 -11.21307 -11.21096 -11.21078
 Alpha  occ. eigenvalues --  -11.21069 -11.21056  -1.08470  -1.08393  -1.03571
 Alpha  occ. eigenvalues --   -1.03496  -0.96016  -0.95954  -0.87037  -0.86965
 Alpha  occ. eigenvalues --   -0.79682  -0.79516  -0.78309  -0.78178  -0.65119
 Alpha  occ. eigenvalues --   -0.65011  -0.61037  -0.60842  -0.59401  -0.59309
 Alpha  occ. eigenvalues --   -0.57667  -0.57528  -0.55327  -0.55218  -0.52700
 Alpha  occ. eigenvalues --   -0.52661  -0.52463  -0.52365  -0.50015  -0.49852
 Alpha  occ. eigenvalues --   -0.48117  -0.47763  -0.46761  -0.46483  -0.45941
 Alpha  occ. eigenvalues --   -0.45761  -0.45705  -0.45458  -0.43818  -0.43754
 Alpha virt. eigenvalues --    0.21288   0.23192   0.23563   0.24606   0.26155
 Alpha virt. eigenvalues --    0.26453   0.26991   0.27688   0.27855   0.29316
 Alpha virt. eigenvalues --    0.30583   0.31261   0.31681   0.31774   0.32156

 Mulliken charges:
               1
     1  C   -0.297645
     2  C   -0.307311
     3  C   -0.476053
     4  H    0.149315
     5  H    0.149355
     6  H    0.151792
     7  H    0.160076
     8  H    0.154720
     9  H    0.155464
    10  H    0.159556
    11  C   -0.298393
    12  C   -0.299664
    13  C   -0.475632
    14  H    0.149577
    15  H    0.149847
    16  H    0.151899
    17  H    0.151872
    18  H    0.154935
    19  H    0.155208
    20  H    0.160158
    21  C   -0.298973
    22  C   -0.299590
    23  C   -0.480972
    24  H    0.149112
    25  H    0.149701
    26  H    0.152028
    27  H    0.152064
    28  H    0.161429
    29  H    0.154918
    30  H    0.160651
    31  C   -0.298247
    32  C   -0.299691
    33  C   -0.475736
    34  H    0.149745
    35  H    0.149892
    36  H    0.151805
    37  H    0.151899
    38  H    0.155307
    39  H    0.155256
    40  H    0.160328
 Sum of Mulliken charges =  -0.00000

 Dipole moment (field-independent basis, Debye):
    X=             -0.0228    Y=              0.0084    Z=              0.0180  Tot=              0.0302
 Quadrupole moment (field-independent basis, Debye-Ang):
   XX=            -85.1009   YY=            -84.5571   ZZ=            -85.1317
   XY=              0.3066   XZ=             -0.5532   YZ=             -0.0500

 Normal termination of Gaussian 16 at Wed May  5 21:20:32 2021.
