 Gaussian 16, Revision A.03,
 Gaussian 16:  EM64L-G16RevA.03 25-Dec-2016

 -------------
 #p 6-31g* mp2
 -------------

 ------------------------------------------------------
 Input file generated by CHIRIPA (05-May-2021 14:51:14)
 ------------------------------------------------------
 Symbolic Z-matrix:
 Charge =  0 Multiplicity = 1

                         Standard orientation:
 ---------------------------------------------------------------------
 Center     Atomic      Atomic             Coordinates (Angstroms)
 Number     Number       Type             X           Y           Z
 ---------------------------------------------------------------------
      1          6           0        4.687481   -0.603302   -0.143987
      2          6           0        6.188137   -0.403410    0.070623
      3          6           0        7.019473   -1.584857   -0.430235
      4          1           0        4.369217   -1.521130    0.369088
      5          1           0        4.494988   -0.760732   -1.214294
      6          1           0        6.377583   -0.245027    1.140034
      7          1           0        6.502829    0.514151   -0.442863
      8          1           0        6.859831   -1.741403   -1.501967
      9          1           0        6.733874   -2.504894    0.089924
     10          1           0        8.089204   -1.420910   -0.266962
     11          6           0        3.843125    0.569367    0.351631
     12          6           0        2.342468    0.369475    0.137021
     13          6           0        1.511132    1.550922    0.637879
     14          1           0        4.035618    0.726797    1.421938
     15          1           0        4.161388    1.487195   -0.161444
     16          1           0        2.027777   -0.548086    0.650507
     17          1           0        2.153023    0.211092   -0.932390
     18          1           0        1.796732    2.470959    0.117720
     19          1           0        1.670774    1.707468    1.709611
     20          1           0        0.441402    1.386975    0.474606
     21          6           0       -4.865495   -0.392512    0.131819
     22          6           0       -4.744344   -1.883471   -0.184961
     23          6           0       -5.952733   -2.689387    0.292628
     24          1           0       -4.988985   -0.263322    1.215795
     25          1           0       -5.778332    0.001607   -0.335935
     26          1           0       -3.831282   -2.274357    0.282096
     27          1           0       -4.620936   -2.009116   -1.268289
     28          1           0       -6.869848   -2.326940   -0.182905
     29          1           0       -6.075707   -2.593688    1.376288
     30          1           0       -5.845192   -3.752538    0.055971
     31          6           0       -3.665110    0.426447   -0.339462
     32          6           0       -3.786261    1.917406   -0.022683
     33          6           0       -2.577873    2.723322   -0.500272
     34          1           0       -2.752273    0.032328    0.128291
     35          1           0       -3.541620    0.297257   -1.423439
     36          1           0       -3.909669    2.043052    1.060645
     37          1           0       -4.699323    2.308292   -0.489740
     38          1           0       -2.454898    2.627623   -1.583932
     39          1           0       -1.660758    2.360875   -0.024739
     40          1           0       -2.685413    3.786473   -0.263615
 ---------------------------------------------------------------------

 SCF Done:  E(RHF) =  -470.733297734     A.U. after   11 cycles
 E2 =    -0.1582262839D+01 EUMP2 =    -0.47231556057362D+03

 The electronic state is 1-A.
 Alpha  occ. eigenvalues --  -11.21610 -11.21603 -11.21597 -11.21582 -11.21408
 Alpha  occ. eigenvalues --  -11.21403 -11.21349 -11.21343 -11.21080 -11.21072
 Alpha  occ. eigenvalues --  -11.21068 -11.21017  -1.08435  -1.08422  -1.03543
 Alpha  occ. eigenvalues --   -1.03509  -0.96009  -0.95945  -0.87043  -0.86946
 Alpha  occ. eigenvalues --   -0.79632  -0.79546  -0.78248  -0.78234  -0.65064
 Alpha  occ. eigenvalues --   -0.65056  -0.60946  -0.60922  -0.59420  -0.59291
 Alpha  occ. eigenvalues --   -0.57679  -0.57502  -0.55291  -0.55243  -0.52792
 Alpha  occ. eigenvalues --   -0.52654  -0.52440  -0.52272  -0.49939  -0.49876
 Alpha  occ. eigenvalues --   -0.47986  -0.47822  -0.46636  -0.46599  -0.45790
 Alpha  occ. eigenvalues --   -0.45775  -0.45713  -0.45702  -0.43777  -0.43750
 Alpha virt. eigenvalues --    0.21707   0.23003   0.23503   0.24833   0.26088
 Alpha virt. eigenvalues --    0.26653   0.27110   0.27497   0.27802   0.28731
 Alpha virt. eigenvalues --    0.30229   0.31411   0.31771   0.31898   0.31985

 Mulliken charges:
               1
     1  C   -0.298231
     2  C   -0.299638
     3  C   -0.475704
     4  H    0.149600
     5  H    0.149609
     6  H    0.151909
     7  H    0.151988
     8  H    0.155209
     9  H    0.155161
    10  H    0.160261
    11  C   -0.298709
    12  C   -0.298977
    13  C   -0.482160
    14  H    0.149475
    15  H    0.149796
    16  H    0.151608
    17  H    0.152402
    18  H    0.156057
    19  H    0.155124
    20  H    0.165618
    21  C   -0.298284
    22  C   -0.299658
    23  C   -0.475710
    24  H    0.149684
    25  H    0.149629
    26  H    0.151940
    27  H    0.151944
    28  H    0.155183
    29  H    0.155171
    30  H    0.160239
    31  C   -0.298549
    32  C   -0.299297
    33  C   -0.482954
    34  H    0.148995
    35  H    0.149696
    36  H    0.151894
    37  H    0.151864
    38  H    0.154900
    39  H    0.162465
    40  H    0.160451
 Sum of Mulliken charges =  -0.00000

 Dipole moment (field-independent basis, Debye):
    X=              0.0135    Y=              0.0053    Z=             -0.0020  Tot=              0.0146
 Quadrupole moment (field-independent basis, Debye-Ang):
   XX=            -85.7957   YY=            -85.6918   ZZ=            -83.2807
   XY=             -0.0178   XZ=              0.7921   YZ=             -0.5936

 Normal termination of Gaussian 16 at Wed May  5 20:00:16 2021.
