 Gaussian 16, Revision A.03,
 Gaussian 16:  EM64L-G16RevA.03 25-Dec-2016

 -------------
 #p 6-31g* mp2
 -------------

 ------------------------------------------------------
 Input file generated by CHIRIPA (05-May-2021 14:57:27)
 ------------------------------------------------------
 Symbolic Z-matrix:
 Charge =  0 Multiplicity = 1

                         Standard orientation:
 ---------------------------------------------------------------------
 Center     Atomic      Atomic             Coordinates (Angstroms)
 Number     Number       Type             X           Y           Z
 ---------------------------------------------------------------------
      1          6           0        4.315306    1.852174   -0.529408
      2          6           0        3.769518    1.815201    0.757942
      3          6           0        3.001196    0.723166    1.172293
      4          6           0        2.797774   -0.319293    0.269414
      5          6           0        3.328164   -0.311725   -1.019740
      6          6           0        4.093278    0.790465   -1.412583
      7          1           0        4.910911    2.704438   -0.842932
      8          1           0        3.940302    2.638319    1.445950
      9          1           0        2.566849    0.668716    2.163149
     10          1           0        3.140581   -1.147208   -1.683215
     11          1           0        4.515906    0.816471   -2.412961
     12          7           0        1.986084   -1.480757    0.696685
     13          8           0        1.821506   -2.386535   -0.117635
     14          8           0        1.529828   -1.463342    1.837809
     15          6           0       -3.700319    2.495966    0.209707
     16          6           0       -2.432577    2.254843   -0.329932
     17          6           0       -1.996165    0.946837   -0.560612
     18          6           0       -2.857229   -0.101069   -0.238507
     19          6           0       -4.125974    0.106836    0.300335
     20          6           0       -4.541488    1.423085    0.522567
     21          1           0       -4.031218    3.515257    0.385624
     22          1           0       -1.777188    3.086112   -0.573865
     23          1           0       -1.019718    0.731640   -0.977337
     24          1           0       -4.756897   -0.742309    0.533368
     25          1           0       -5.526557    1.607354    0.941768
     26          7           0       -2.406281   -1.490159   -0.478245
     27          8           0       -3.183791   -2.396061   -0.185918
     28          8           0       -1.283856   -1.646723   -0.953941
 ---------------------------------------------------------------------

 SCF Done:  E(RHF) =  -868.335688693     A.U. after   16 cycles
 E2 =    -0.2601103934D+01 EUMP2 =    -0.87093679262703D+03

 The electronic state is 1-A.
 Alpha  occ. eigenvalues --  -20.60122 -20.60019 -20.59979 -20.59970 -15.85114
 Alpha  occ. eigenvalues --  -15.85054 -11.30917 -11.30734 -11.27549 -11.27486
 Alpha  occ. eigenvalues --  -11.27375 -11.27349 -11.27323 -11.27156 -11.26651
 Alpha  occ. eigenvalues --  -11.26607 -11.26463 -11.26417  -1.59109  -1.59053
 Alpha  occ. eigenvalues --   -1.38660  -1.38602  -1.19127  -1.18938  -1.08439
 Alpha  occ. eigenvalues --   -1.08275  -1.04583  -1.04396  -0.95200  -0.95056
 Alpha  occ. eigenvalues --   -0.85956  -0.85782  -0.82032  -0.81890  -0.77001
 Alpha  occ. eigenvalues --   -0.76894  -0.71409  -0.71238  -0.70526  -0.70241
 Alpha  occ. eigenvalues --   -0.70214  -0.70056  -0.64759  -0.64591  -0.64577
 Alpha  occ. eigenvalues --   -0.64414  -0.61912  -0.61750  -0.55067  -0.54896
 Alpha  occ. eigenvalues --   -0.52913  -0.52696  -0.52668  -0.52501  -0.48155
 Alpha  occ. eigenvalues --   -0.48078  -0.48026  -0.47976  -0.44123  -0.43752
 Alpha  occ. eigenvalues --   -0.37142  -0.36930  -0.36218  -0.36011
 Alpha virt. eigenvalues --    0.05528   0.05682   0.11429   0.11640   0.16944
 Alpha virt. eigenvalues --    0.17105   0.21565   0.21678   0.27459   0.27529
 Alpha virt. eigenvalues --    0.28485   0.28564   0.30958   0.31258   0.32694

 Mulliken charges:
               1
     1  C   -0.173074
     2  C   -0.219854
     3  C   -0.173968
     4  C    0.157604
     5  C   -0.171701
     6  C   -0.219638
     7  H    0.223606
     8  H    0.221125
     9  H    0.274890
    10  H    0.279765
    11  H    0.222903
    12  N    0.489031
    13  O   -0.444388
    14  O   -0.465688
    15  C   -0.171848
    16  C   -0.218565
    17  C   -0.170639
    18  C    0.161855
    19  C   -0.170549
    20  C   -0.218299
    21  H    0.223058
    22  H    0.219507
    23  H    0.271684
    24  H    0.276119
    25  H    0.222174
    26  N    0.489499
    27  O   -0.460560
    28  O   -0.454051
 Sum of Mulliken charges =  -0.00000

 Dipole moment (field-independent basis, Debye):
    X=              1.2446    Y=              8.5882    Z=             -0.7406  Tot=              8.7094
 Quadrupole moment (field-independent basis, Debye-Ang):
   XX=            -77.5072   YY=           -108.0303   ZZ=           -102.4804
   XY=             -2.0644   XZ=             -8.3375   YZ=              2.0264

 Normal termination of Gaussian 16 at Fri May  7 12:46:22 2021.
