 Gaussian 16, Revision A.03,
 Gaussian 16:  EM64L-G16RevA.03 25-Dec-2016

 -------------
 #p 6-31g* mp2
 -------------

 ------------------------------------------------------
 Input file generated by CHIRIPA (05-May-2021 14:53:15)
 ------------------------------------------------------
 Symbolic Z-matrix:
 Charge =  0 Multiplicity = 1

                         Standard orientation:
 ---------------------------------------------------------------------
 Center     Atomic      Atomic             Coordinates (Angstroms)
 Number     Number       Type             X           Y           Z
 ---------------------------------------------------------------------
      1          6           0        2.745744   -0.259891   -0.240352
      2          6           0        4.144499   -0.827530   -0.483774
      3          6           0        4.126296   -2.317148   -0.828015
      4          1           0        2.266257   -0.820052    0.574054
      5          1           0        2.130563   -0.422666   -1.136149
      6          1           0        4.757271   -0.662498    0.411709
      7          1           0        4.620785   -0.265828   -1.297567
      8          1           0        3.537981   -2.496050   -1.733819
      9          1           0        3.675242   -2.894974   -0.014831
     10          1           0        5.136555   -2.702272   -0.998060
     11          6           0        2.747489    1.228247    0.104859
     12          6           0        1.348734    1.795886    0.348282
     13          6           0        1.366938    3.285504    0.692522
     14          1           0        3.362670    1.391021    1.000656
     15          1           0        3.226976    1.788408   -0.709546
     16          1           0        0.872449    1.234183    1.162074
     17          1           0        0.735962    1.630853   -0.547202
     18          1           0        1.817991    3.863330   -0.120662
     19          1           0        1.955253    3.464406    1.598326
     20          1           0        0.356678    3.670628    0.862567
     21          6           0       -1.539985   -1.394418    2.281457
     22          6           0       -1.681262   -0.008174    2.159435
     23          6           0       -2.016666    0.565805    0.929557
     24          6           0       -2.204362   -0.280026   -0.162519
     25          6           0       -2.070793   -1.664728   -0.072795
     26          6           0       -1.734858   -2.216821    1.166917
     27          1           0       -1.279228   -1.831797    3.240676
     28          1           0       -1.530518    0.632961    3.023302
     29          1           0       -2.132382    1.635854    0.806988
     30          1           0       -2.227360   -2.278066   -0.951842
     31          1           0       -1.625805   -3.293725    1.258735
     32          7           0       -2.559721    0.316035   -1.469742
     33          8           0       -2.719764   -0.450906   -2.416750
     34          8           0       -2.671479    1.538882   -1.522583
 ---------------------------------------------------------------------

 SCF Done:  E(RHF) =  -669.534984674     A.U. after   15 cycles
 E2 =    -0.2093522692D+01 EUMP2 =    -0.67162850736527D+03

 The electronic state is 1-A.
 Alpha  occ. eigenvalues --  -20.60822 -20.60813 -15.85866 -11.31192 -11.27793
 Alpha  occ. eigenvalues --  -11.27785 -11.27551 -11.26792 -11.26777 -11.21683
 Alpha  occ. eigenvalues --  -11.21557 -11.21450 -11.21386 -11.21198 -11.21164
 Alpha  occ. eigenvalues --   -1.59891  -1.39445  -1.19394  -1.08792  -1.08484
 Alpha  occ. eigenvalues --   -1.04805  -1.03599  -0.96063  -0.95628  -0.87075
 Alpha  occ. eigenvalues --   -0.86196  -0.82465  -0.79673  -0.78311  -0.77500
 Alpha  occ. eigenvalues --   -0.72085  -0.71210  -0.70510  -0.65139  -0.65029
 Alpha  occ. eigenvalues --   -0.64800  -0.62154  -0.60999  -0.59443  -0.57684
 Alpha  occ. eigenvalues --   -0.55347  -0.55304  -0.53202  -0.52895  -0.52727
 Alpha  occ. eigenvalues --   -0.52474  -0.49997  -0.48844  -0.48841  -0.47983
 Alpha  occ. eigenvalues --   -0.46695  -0.45827  -0.45765  -0.44836  -0.43853
 Alpha  occ. eigenvalues --   -0.37367  -0.36287
 Alpha virt. eigenvalues --    0.05020   0.11180   0.16436   0.20881   0.22845
 Alpha virt. eigenvalues --    0.23944   0.26478   0.26523   0.27338   0.27790
 Alpha virt. eigenvalues --    0.28910   0.30197   0.31431   0.31519   0.31799

 Mulliken charges:
               1
     1  C   -0.298445
     2  C   -0.299614
     3  C   -0.475516
     4  H    0.146723
     5  H    0.152159
     6  H    0.150644
     7  H    0.153727
     8  H    0.156760
     9  H    0.151866
    10  H    0.160591
    11  C   -0.297995
    12  C   -0.306462
    13  C   -0.475428
    14  H    0.147019
    15  H    0.151675
    16  H    0.151077
    17  H    0.157196
    18  H    0.159680
    19  H    0.152317
    20  H    0.156531
    21  C   -0.171143
    22  C   -0.220491
    23  C   -0.164922
    24  C    0.158782
    25  C   -0.170300
    26  C   -0.218652
    27  H    0.225707
    28  H    0.223815
    29  H    0.276541
    30  H    0.275708
    31  H    0.223578
    32  N    0.487767
    33  O   -0.460312
    34  O   -0.460585
 Sum of Mulliken charges =  -0.00000

 Dipole moment (field-independent basis, Debye):
    X=              1.2003    Y=             -2.1087    Z=              4.5342  Tot=              5.1426
 Quadrupole moment (field-independent basis, Debye-Ang):
   XX=           -101.2609   YY=            -90.7042   ZZ=            -95.0588
   XY=              4.6351   XZ=            -10.4936   YZ=              0.4988

 Normal termination of Gaussian 16 at Thu May  6 01:05:39 2021.
