 Gaussian 16, Revision A.03,
 Gaussian 16:  EM64L-G16RevA.03 25-Dec-2016

 -------------
 #p 6-31g* mp2
 -------------

 ------------------------------------------------------
 Input file generated by CHIRIPA (05-May-2021 14:57:23)
 ------------------------------------------------------
 Symbolic Z-matrix:
 Charge =  0 Multiplicity = 1

                         Standard orientation:
 ---------------------------------------------------------------------
 Center     Atomic      Atomic             Coordinates (Angstroms)
 Number     Number       Type             X           Y           Z
 ---------------------------------------------------------------------
      1          6           0       -2.052927    1.414023    0.315017
      2          6           0       -2.691013    0.904154    1.450535
      3          6           0       -3.888306    0.192026    1.332584
      4          6           0       -4.421915    0.007561    0.058015
      5          6           0       -3.809986    0.503199   -1.092278
      6          6           0       -2.613461    1.212274   -0.950534
      7          1           0       -1.123140    1.966035    0.415886
      8          1           0       -2.257995    1.059305    2.434643
      9          1           0       -4.403302   -0.213601    2.194943
     10          1           0       -4.265873    0.332416   -2.059965
     11          1           0       -2.120118    1.607102   -1.834144
     12          7           0       -5.689028   -0.744721   -0.079449
     13          8           0       -6.138680   -0.893624   -1.213591
     14          8           0       -6.208547   -1.171212    0.949552
     15          6           0        1.744997    0.254389   -0.434995
     16          6           0        2.248554   -1.049339   -0.378044
     17          6           0        3.614286   -1.275038   -0.182128
     18          6           0        4.451684   -0.168857   -0.046416
     19          6           0        3.980247    1.141987   -0.098605
     20          6           0        2.610924    1.343971   -0.295340
     21          1           0        0.682669    0.420506   -0.587506
     22          1           0        1.578409   -1.897428   -0.486185
     23          1           0        4.030832   -2.273834   -0.134020
     24          1           0        4.672984    1.967325    0.012538
     25          1           0        2.222655    2.357564   -0.339148
     26          7           0        5.899425   -0.395241    0.161424
     27          8           0        6.616319    0.596259    0.278164
     28          8           0        6.289857   -1.559894    0.203656
 ---------------------------------------------------------------------

 SCF Done:  E(RHF) =  -868.336761385     A.U. after   16 cycles
 E2 =    -0.2600361110D+01 EUMP2 =    -0.87093712249437D+03

 The electronic state is 1-A.
 Alpha  occ. eigenvalues --  -20.61497 -20.61491 -20.61230 -20.61223 -15.86555
 Alpha  occ. eigenvalues --  -15.86287 -11.32129 -11.31772 -11.28704 -11.28667
 Alpha  occ. eigenvalues --  -11.28578 -11.28380 -11.28323 -11.28154 -11.27847
 Alpha  occ. eigenvalues --  -11.27758 -11.27486 -11.27364  -1.60567  -1.60302
 Alpha  occ. eigenvalues --   -1.40114  -1.39852  -1.20326  -1.19966  -1.09716
 Alpha  occ. eigenvalues --   -1.09352  -1.05738  -1.05384  -0.96515  -0.96157
 Alpha  occ. eigenvalues --   -0.87140  -0.86788  -0.83321  -0.82984  -0.78302
 Alpha  occ. eigenvalues --   -0.78003  -0.72769  -0.72503  -0.71893  -0.71664
 Alpha  occ. eigenvalues --   -0.71627  -0.70951  -0.65980  -0.65742  -0.65623
 Alpha  occ. eigenvalues --   -0.65399  -0.63058  -0.62725  -0.56479  -0.55807
 Alpha  occ. eigenvalues --   -0.54037  -0.53825  -0.53709  -0.53483  -0.49545
 Alpha  occ. eigenvalues --   -0.49511  -0.49273  -0.49250  -0.45472  -0.45230
 Alpha  occ. eigenvalues --   -0.38375  -0.37966  -0.37331  -0.36985
 Alpha virt. eigenvalues --    0.04142   0.04546   0.10215   0.10640   0.15442
 Alpha virt. eigenvalues --    0.16022   0.18768   0.21817   0.25363   0.26143
 Alpha virt. eigenvalues --    0.27260   0.29271   0.29950   0.30610   0.32060

 Mulliken charges:
               1
     1  C   -0.176969
     2  C   -0.218595
     3  C   -0.170490
     4  C    0.159791
     5  C   -0.169997
     6  C   -0.221810
     7  H    0.221190
     8  H    0.227530
     9  H    0.279033
    10  H    0.278600
    11  H    0.223784
    12  N    0.487809
    13  O   -0.458089
    14  O   -0.457560
    15  C   -0.176481
    16  C   -0.219931
    17  C   -0.170050
    18  C    0.158852
    19  C   -0.169854
    20  C   -0.221124
    21  H    0.224145
    22  H    0.227136
    23  H    0.277909
    24  H    0.276865
    25  H    0.218278
    26  N    0.487937
    27  O   -0.459442
    28  O   -0.458465
 Sum of Mulliken charges =  -0.00000

 Dipole moment (field-independent basis, Debye):
    X=             -0.8080    Y=              3.2875    Z=             -0.1781  Tot=              3.3900
 Quadrupole moment (field-independent basis, Debye-Ang):
   XX=           -188.9986   YY=           -100.8622   ZZ=           -100.4273
   XY=             -6.5398   XZ=             -5.2007   YZ=             -0.2252

 Normal termination of Gaussian 16 at Wed May  5 21:02:57 2021.
