 Gaussian 16, Revision A.03,
 Gaussian 16:  EM64L-G16RevA.03 25-Dec-2016

 -------------
 #p 6-31g* mp2
 -------------

 ------------------------------------------------------
 Input file generated by CHIRIPA (05-May-2021 14:51:10)
 ------------------------------------------------------
 Symbolic Z-matrix:
 Charge =  0 Multiplicity = 1

                         Standard orientation:
 ---------------------------------------------------------------------
 Center     Atomic      Atomic             Coordinates (Angstroms)
 Number     Number       Type             X           Y           Z
 ---------------------------------------------------------------------
      1          6           0        3.582194   -0.105334   -0.189824
      2          6           0        4.892132   -0.054127   -0.976859
      3          6           0        5.420327   -1.443153   -1.336594
      4          1           0        3.735698   -0.689761    0.727688
      5          1           0        2.828268   -0.643598   -0.780809
      6          1           0        5.642963    0.485085   -0.385150
      7          1           0        4.735542    0.530407   -1.892510
      8          1           0        4.691975   -1.985884   -1.947779
      9          1           0        5.604552   -2.031464   -0.431856
     10          1           0        6.357385   -1.383116   -1.898892
     11          6           0        3.041557    1.275523    0.177155
     12          6           0        1.731619    1.224315    0.964191
     13          6           0        1.203424    2.613342    1.323926
     14          1           0        3.795483    1.813786    0.768140
     15          1           0        2.888053    1.859949   -0.740356
     16          1           0        1.888209    0.639781    1.879841
     17          1           0        0.980788    0.685104    0.372482
     18          1           0        1.019199    3.201653    0.419187
     19          1           0        1.931776    3.156073    1.935111
     20          1           0        0.266366    2.553304    1.886224
     21          6           0       -3.011009   -1.270744    0.157317
     22          6           0       -1.774131   -1.206057    1.053941
     23          6           0       -1.183646   -2.585633    1.347018
     24          1           0       -3.771273   -1.902168    0.637159
     25          1           0       -2.745063   -1.764998   -0.787342
     26          1           0       -2.041996   -0.710833    1.996075
     27          1           0       -1.016797   -0.574558    0.571998
     28          1           0       -0.888908   -3.083847    0.417764
     29          1           0       -1.919933   -3.220896    1.849932
     30          1           0       -0.300375   -2.516020    1.989551
     31          6           0       -3.612742    0.100556   -0.144649
     32          6           0       -4.849619    0.035869   -1.041273
     33          6           0       -5.440105    1.415444   -1.334349
     34          1           0       -3.878687    0.594810    0.800010
     35          1           0       -2.852478    0.731980   -0.624490
     36          1           0       -5.606954   -0.595630   -0.559330
     37          1           0       -4.581754   -0.459355   -1.983407
     38          1           0       -4.703818    2.050708   -1.837264
     39          1           0       -5.734843    1.913659   -0.405096
     40          1           0       -6.323375    1.345831   -1.976882
 ---------------------------------------------------------------------

 SCF Done:  E(RHF) =  -470.733268763     A.U. after   11 cycles
 E2 =    -0.1582801784D+01 EUMP2 =    -0.47231607054710D+03

 The electronic state is 1-A.
 Alpha  occ. eigenvalues --  -11.21611 -11.21603 -11.21596 -11.21554 -11.21414
 Alpha  occ. eigenvalues --  -11.21399 -11.21355 -11.21339 -11.21077 -11.21072
 Alpha  occ. eigenvalues --  -11.21065 -11.21043  -1.08447  -1.08414  -1.03552
 Alpha  occ. eigenvalues --   -1.03499  -0.95984  -0.95964  -0.87000  -0.86981
 Alpha  occ. eigenvalues --   -0.79680  -0.79512  -0.78316  -0.78169  -0.65138
 Alpha  occ. eigenvalues --   -0.64998  -0.61037  -0.60828  -0.59419  -0.59266
 Alpha  occ. eigenvalues --   -0.57638  -0.57526  -0.55279  -0.55248  -0.52683
 Alpha  occ. eigenvalues --   -0.52650  -0.52407  -0.52390  -0.49974  -0.49877
 Alpha  occ. eigenvalues --   -0.48081  -0.47798  -0.46849  -0.46461  -0.45954
 Alpha  occ. eigenvalues --   -0.45757  -0.45736  -0.45379  -0.43789  -0.43766
 Alpha virt. eigenvalues --    0.21437   0.23194   0.23686   0.24703   0.25664
 Alpha virt. eigenvalues --    0.26803   0.26932   0.27640   0.28328   0.28816
 Alpha virt. eigenvalues --    0.30617   0.31225   0.31496   0.31960   0.32135

 Mulliken charges:
               1
     1  C   -0.298183
     2  C   -0.299650
     3  C   -0.475693
     4  H    0.149746
     5  H    0.149119
     6  H    0.152006
     7  H    0.151859
     8  H    0.155137
     9  H    0.155277
    10  H    0.160267
    11  C   -0.297617
    12  C   -0.305403
    13  C   -0.475901
    14  H    0.149597
    15  H    0.149353
    16  H    0.151960
    17  H    0.157242
    18  H    0.154760
    19  H    0.155196
    20  H    0.161228
    21  C   -0.297676
    22  C   -0.307129
    23  C   -0.475300
    24  H    0.149609
    25  H    0.149076
    26  H    0.151530
    27  H    0.159550
    28  H    0.154712
    29  H    0.154973
    30  H    0.160715
    31  C   -0.298200
    32  C   -0.299622
    33  C   -0.475691
    34  H    0.149546
    35  H    0.149170
    36  H    0.152017
    37  H    0.151812
    38  H    0.155133
    39  H    0.155240
    40  H    0.160236
 Sum of Mulliken charges =  -0.00000

 Dipole moment (field-independent basis, Debye):
    X=              0.0102    Y=              0.0056    Z=              0.0099  Tot=              0.0152
 Quadrupole moment (field-independent basis, Debye-Ang):
   XX=            -84.7551   YY=            -86.5512   ZZ=            -83.5092
   XY=              0.9797   XZ=             -0.0184   YZ=             -0.1154

 Normal termination of Gaussian 16 at Thu May  6 05:23:46 2021.
