 Gaussian 16, Revision A.03,
 Gaussian 16:  EM64L-G16RevA.03 25-Dec-2016

 -------------
 #p 6-31g* mp2
 -------------

 ------------------------------------------------------
 Input file generated by CHIRIPA (05-May-2021 14:53:17)
 ------------------------------------------------------
 Symbolic Z-matrix:
 Charge =  0 Multiplicity = 1

                         Standard orientation:
 ---------------------------------------------------------------------
 Center     Atomic      Atomic             Coordinates (Angstroms)
 Number     Number       Type             X           Y           Z
 ---------------------------------------------------------------------
      1          6           0        3.662022   -0.485252   -0.262351
      2          6           0        2.985523   -1.856403   -0.245637
      3          6           0        3.827067   -2.939076   -0.921964
      4          1           0        3.865968   -0.196733   -1.302595
      5          1           0        4.637277   -0.559172    0.238458
      6          1           0        2.011230   -1.779605   -0.745108
      7          1           0        2.782990   -2.141606    0.794678
      8          1           0        4.794271   -3.044869   -0.420041
      9          1           0        4.018126   -2.680811   -1.968576
     10          1           0        3.324635   -3.911124   -0.898665
     11          6           0        2.832976    0.607555    0.410094
     12          6           0        3.509475    1.978706    0.393380
     13          6           0        2.667931    3.061378    1.069707
     14          1           0        1.857722    0.681475   -0.090714
     15          1           0        2.629030    0.319036    1.450338
     16          1           0        3.712008    2.263909   -0.646935
     17          1           0        4.483768    1.901908    0.892851
     18          1           0        2.476873    2.803114    2.116319
     19          1           0        1.700727    3.167172    0.567784
     20          1           0        3.170363    4.033427    1.046409
     21          6           0       -2.765273   -2.400033    0.825884
     22          6           0       -3.905094   -1.615562    0.621108
     23          6           0       -3.790593   -0.310903    0.131920
     24          6           0       -2.515051    0.179633   -0.143135
     25          6           0       -1.360505   -0.577245    0.050385
     26          6           0       -1.498849   -1.879289    0.540373
     27          1           0       -2.863481   -3.412509    1.206208
     28          1           0       -4.889889   -2.017361    0.841970
     29          1           0       -4.656315    0.318213   -0.035879
     30          1           0       -0.392234   -0.149135   -0.178949
     31          1           0       -0.611899   -2.486234    0.698434
     32          7           0       -2.381213    1.559433   -0.661440
     33          8           0       -1.246126    1.968316   -0.896023
     34          8           0       -3.413932    2.205911   -0.823289
 ---------------------------------------------------------------------

 SCF Done:  E(RHF) =  -669.536092939     A.U. after   15 cycles
 E2 =    -0.2092256742D+01 EUMP2 =    -0.67162834968139D+03

 The electronic state is 1-A.
 Alpha  occ. eigenvalues --  -20.60818 -20.60810 -15.85860 -11.31159 -11.27734
 Alpha  occ. eigenvalues --  -11.27690 -11.27466 -11.26742 -11.26701 -11.22238
 Alpha  occ. eigenvalues --  -11.21666 -11.21552 -11.21534 -11.21408 -11.20553
 Alpha  occ. eigenvalues --   -1.59883  -1.39440  -1.19331  -1.08740  -1.08643
 Alpha  occ. eigenvalues --   -1.04723  -1.03648  -0.96065  -0.95585  -0.87087
 Alpha  occ. eigenvalues --   -0.86127  -0.82417  -0.79785  -0.78463  -0.77448
 Alpha  occ. eigenvalues --   -0.72082  -0.71199  -0.70452  -0.65291  -0.64985
 Alpha  occ. eigenvalues --   -0.64712  -0.62073  -0.61029  -0.59505  -0.57684
 Alpha  occ. eigenvalues --   -0.55343  -0.55217  -0.53061  -0.52859  -0.52772
 Alpha  occ. eigenvalues --   -0.52442  -0.50003  -0.48843  -0.48831  -0.48064
 Alpha  occ. eigenvalues --   -0.46824  -0.45943  -0.45824  -0.44849  -0.43921
 Alpha  occ. eigenvalues --   -0.37316  -0.36322
 Alpha virt. eigenvalues --    0.05041   0.11325   0.16522   0.19638   0.23036
 Alpha virt. eigenvalues --    0.23879   0.24571   0.26242   0.27693   0.28221
 Alpha virt. eigenvalues --    0.29586   0.31032   0.31330   0.31675   0.32476

 Mulliken charges:
               1
     1  C   -0.297441
     2  C   -0.303644
     3  C   -0.475105
     4  H    0.153503
     5  H    0.151486
     6  H    0.145684
     7  H    0.148705
     8  H    0.157832
     9  H    0.158699
    10  H    0.157900
    11  C   -0.309780
    12  C   -0.297803
    13  C   -0.481759
    14  H    0.157410
    15  H    0.147014
    16  H    0.154766
    17  H    0.150048
    18  H    0.151259
    19  H    0.172660
    20  H    0.159856
    21  C   -0.170347
    22  C   -0.219190
    23  C   -0.169731
    24  C    0.156275
    25  C   -0.178955
    26  C   -0.225538
    27  H    0.225563
    28  H    0.223282
    29  H    0.275432
    30  H    0.291027
    31  H    0.226928
    32  N    0.487565
    33  O   -0.464085
    34  O   -0.459517
 Sum of Mulliken charges =  -0.00000

 Dipole moment (field-independent basis, Debye):
    X=             -0.4002    Y=             -4.7414    Z=              1.7687  Tot=              5.0763
 Quadrupole moment (field-independent basis, Debye-Ang):
   XX=            -87.0844   YY=            -97.6081   ZZ=            -95.6191
   XY=             12.0875   XZ=             -4.4677   YZ=              0.3372

 Normal termination of Gaussian 16 at Thu May  6 01:12:09 2021.
