 Gaussian 16, Revision A.03,
 Gaussian 16:  EM64L-G16RevA.03 25-Dec-2016

 -------------
 #p 6-31g* mp2
 -------------

 ------------------------------------------------------
 Input file generated by CHIRIPA (05-May-2021 14:57:26)
 ------------------------------------------------------
 Symbolic Z-matrix:
 Charge =  0 Multiplicity = 1

                         Standard orientation:
 ---------------------------------------------------------------------
 Center     Atomic      Atomic             Coordinates (Angstroms)
 Number     Number       Type             X           Y           Z
 ---------------------------------------------------------------------
      1          6           0       -1.340082    1.542198    1.068989
      2          6           0       -2.169389    1.922969    0.008902
      3          6           0       -3.186882    1.074111   -0.436852
      4          6           0       -3.347656   -0.153792    0.203222
      5          6           0       -2.537655   -0.561589    1.261943
      6          6           0       -1.526533    0.303318    1.691029
      7          1           0       -0.552143    2.207845    1.408788
      8          1           0       -2.026900    2.884505   -0.476062
      9          1           0       -3.843250    1.343810   -1.255303
     10          1           0       -2.704052   -1.526356    1.725576
     11          1           0       -0.883986    0.004977    2.514540
     12          7           0       -4.421458   -1.060935   -0.259855
     13          8           0       -4.542538   -2.137435    0.320770
     14          8           0       -5.121692   -0.678278   -1.194672
     15          6           0        1.549548    1.841004   -0.883126
     16          6           0        2.462079    2.027765    0.160391
     17          6           0        3.364910    1.016966    0.503509
     18          6           0        3.327406   -0.173284   -0.221190
     19          6           0        2.430207   -0.389511   -1.265972
     20          6           0        1.536547    0.635088   -1.591728
     21          1           0        0.851770    2.631577   -1.142923
     22          1           0        2.474447    2.963257    0.712431
     23          1           0        4.081932    1.134944    1.306865
     24          1           0        2.441806   -1.333006   -1.798047
     25          1           0        0.828972    0.487257   -2.402609
     26          7           0        4.278338   -1.250676    0.132862
     27          8           0        4.225095   -2.290043   -0.520986
     28          8           0        5.058915   -1.035368    1.057513
 ---------------------------------------------------------------------

 SCF Done:  E(RHF) =  -868.336021751     A.U. after   16 cycles
 E2 =    -0.2602133048D+01 EUMP2 =    -0.87093815479896D+03

 The electronic state is 1-A.
 Alpha  occ. eigenvalues --  -20.61299 -20.61285 -20.61208 -20.61195 -15.86355
 Alpha  occ. eigenvalues --  -15.86265 -11.31845 -11.31722 -11.28492 -11.28395
 Alpha  occ. eigenvalues --  -11.28391 -11.28293 -11.28282 -11.28125 -11.27562
 Alpha  occ. eigenvalues --  -11.27452 -11.27409 -11.27272  -1.60370  -1.60281
 Alpha  occ. eigenvalues --   -1.39919  -1.39831  -1.20063  -1.19930  -1.09484
 Alpha  occ. eigenvalues --   -1.09277  -1.05469  -1.05358  -0.96294  -0.96085
 Alpha  occ. eigenvalues --   -0.86874  -0.86760  -0.83076  -0.82949  -0.78076
 Alpha  occ. eigenvalues --   -0.77980  -0.72569  -0.72481  -0.71700  -0.71610
 Alpha  occ. eigenvalues --   -0.71352  -0.70936  -0.65710  -0.65597  -0.65495
 Alpha  occ. eigenvalues --   -0.65350  -0.62801  -0.62701  -0.56047  -0.55915
 Alpha  occ. eigenvalues --   -0.54076  -0.53560  -0.53454  -0.53369  -0.49339
 Alpha  occ. eigenvalues --   -0.49315  -0.49247  -0.49227  -0.45296  -0.45216
 Alpha  occ. eigenvalues --   -0.38672  -0.37285  -0.37068  -0.36944
 Alpha virt. eigenvalues --    0.04166   0.04847   0.10352   0.10682   0.15620
 Alpha virt. eigenvalues --    0.16338   0.19052   0.21869   0.25340   0.25984
 Alpha virt. eigenvalues --    0.27672   0.29243   0.29417   0.31164   0.32333

 Mulliken charges:
               1
     1  C   -0.162883
     2  C   -0.225985
     3  C   -0.171518
     4  C    0.157654
     5  C   -0.169648
     6  C   -0.219027
     7  H    0.221836
     8  H    0.216923
     9  H    0.275916
    10  H    0.278725
    11  H    0.227132
    12  N    0.487968
    13  O   -0.457895
    14  O   -0.460519
    15  C   -0.168371
    16  C   -0.226222
    17  C   -0.171405
    18  C    0.158003
    19  C   -0.170032
    20  C   -0.215204
    21  H    0.220410
    22  H    0.220506
    23  H    0.276714
    24  H    0.279179
    25  H    0.227417
    26  N    0.487839
    27  O   -0.457516
    28  O   -0.459997
 Sum of Mulliken charges =  -0.00000

 Dipole moment (field-independent basis, Debye):
    X=              0.4713    Y=              6.7047    Z=              0.3792  Tot=              6.7319
 Quadrupole moment (field-independent basis, Debye-Ang):
   XX=           -152.5156   YY=           -104.5167   ZZ=            -99.0840
   XY=              2.1881   XZ=             -5.7757   YZ=             -0.5168

 Normal termination of Gaussian 16 at Wed May  5 22:49:49 2021.
