 Gaussian 16, Revision A.03,
 Gaussian 16:  EM64L-G16RevA.03 25-Dec-2016

 -------------
 #p 6-31g* mp2
 -------------

 ------------------------------------------------------
 Input file generated by CHIRIPA (05-May-2021 14:55:19)
 ------------------------------------------------------
 Symbolic Z-matrix:
 Charge =  0 Multiplicity = 1

                         Standard orientation:
 ---------------------------------------------------------------------
 Center     Atomic      Atomic             Coordinates (Angstroms)
 Number     Number       Type             X           Y           Z
 ---------------------------------------------------------------------
      1          6           0        1.792511    1.954158    0.475696
      2          6           0        3.137651    2.335079    0.430767
      3          6           0        4.129516    1.402289    0.113507
      4          6           0        3.738942    0.091213   -0.154488
      5          6           0        2.407159   -0.319025   -0.117754
      6          6           0        1.432193    0.630655    0.201775
      7          1           0        1.028571    2.685332    0.723032
      8          1           0        3.420400    3.362229    0.643043
      9          1           0        5.178302    1.670082    0.071639
     10          1           0        2.156079   -1.350309   -0.334155
     11          1           0        0.388318    0.331986    0.235925
     12          7           0        4.780040   -0.905231   -0.491558
     13          8           0        4.409958   -2.054068   -0.723615
     14          8           0        5.946420   -0.518538   -0.517314
     15          6           0       -4.150505   -0.877692    0.454223
     16          6           0       -2.696459   -0.474247    0.701134
     17          6           0       -1.877580   -1.586487    1.356994
     18          1           0       -4.613076   -1.160896    1.409612
     19          1           0       -4.172224   -1.773782   -0.181345
     20          1           0       -2.677521    0.421626    1.334909
     21          1           0       -2.237352   -0.191786   -0.254927
     22          1           0       -1.866690   -2.480570    0.725252
     23          1           0       -2.309361   -1.863673    2.324120
     24          1           0       -0.841296   -1.276716    1.524383
     25          6           0       -4.981927    0.223769   -0.200949
     26          6           0       -6.435973   -0.179676   -0.447861
     27          6           0       -7.254853    0.932565   -1.103719
     28          1           0       -4.960208    1.119859    0.434618
     29          1           0       -4.519357    0.506974   -1.156338
     30          1           0       -6.895080   -0.462137    0.508200
     31          1           0       -6.454911   -1.075549   -1.081635
     32          1           0       -6.823072    1.209751   -2.070846
     33          1           0       -7.265743    1.826648   -0.471977
     34          1           0       -8.291136    0.622793   -1.271110
 ---------------------------------------------------------------------

 SCF Done:  E(RHF) =  -669.535481243     A.U. after   15 cycles
 E2 =    -0.2091329988D+01 EUMP2 =    -0.67162681123092D+03

 The electronic state is 1-A.
 Alpha  occ. eigenvalues --  -20.60727 -20.60722 -15.85780 -11.31141 -11.27718
 Alpha  occ. eigenvalues --  -11.27703 -11.27448 -11.26729 -11.26669 -11.22650
 Alpha  occ. eigenvalues --  -11.22148 -11.22108 -11.22043 -11.22004 -11.21505
 Alpha  occ. eigenvalues --   -1.59803  -1.39356  -1.19314  -1.09166  -1.08708
 Alpha  occ. eigenvalues --   -1.04720  -1.04276  -0.96705  -0.95544  -0.87716
 Alpha  occ. eigenvalues --   -0.86113  -0.82378  -0.80362  -0.78953  -0.77428
 Alpha  occ. eigenvalues --   -0.71998  -0.71126  -0.70421  -0.65793  -0.64964
 Alpha  occ. eigenvalues --   -0.64761  -0.62156  -0.61643  -0.60059  -0.58312
 Alpha  occ. eigenvalues --   -0.55959  -0.55209  -0.53463  -0.53202  -0.53030
 Alpha  occ. eigenvalues --   -0.52645  -0.50624  -0.48755  -0.48754  -0.48673
 Alpha  occ. eigenvalues --   -0.47388  -0.46493  -0.46391  -0.44763  -0.44519
 Alpha  occ. eigenvalues --   -0.37294  -0.36315
 Alpha virt. eigenvalues --    0.05098   0.11296   0.16524   0.19812   0.22467
 Alpha virt. eigenvalues --    0.23758   0.25733   0.26164   0.26770   0.28254
 Alpha virt. eigenvalues --    0.29000   0.30284   0.30740   0.31071   0.32288

 Mulliken charges:
               1
     1  C   -0.172776
     2  C   -0.218470
     3  C   -0.171074
     4  C    0.158826
     5  C   -0.173657
     6  C   -0.227936
     7  H    0.226004
     8  H    0.223181
     9  H    0.275460
    10  H    0.275960
    11  H    0.237662
    12  N    0.488107
    13  O   -0.460407
    14  O   -0.460688
    15  C   -0.298270
    16  C   -0.304698
    17  C   -0.481253
    18  H    0.152620
    19  H    0.152667
    20  H    0.150980
    21  H    0.147552
    22  H    0.160239
    23  H    0.161885
    24  H    0.155187
    25  C   -0.299004
    26  C   -0.300312
    27  C   -0.476107
    28  H    0.149053
    29  H    0.149806
    30  H    0.153059
    31  H    0.153465
    32  H    0.155642
    33  H    0.155171
    34  H    0.162124
 Sum of Mulliken charges =  -0.00000

 Dipole moment (field-independent basis, Debye):
    X=             -3.8992    Y=              3.4585    Z=              1.2051  Tot=              5.3495
 Quadrupole moment (field-independent basis, Debye-Ang):
   XX=           -119.5879   YY=            -92.1653   ZZ=            -95.2551
   XY=             16.4005   XZ=              4.7752   YZ=              0.5753

 Normal termination of Gaussian 16 at Thu May  6 10:48:27 2021.
