 Gaussian 16, Revision A.03,
 Gaussian 16:  EM64L-G16RevA.03 25-Dec-2016

 -------------
 #p 6-31g* mp2
 -------------

 ------------------------------------------------------
 Input file generated by CHIRIPA (05-May-2021 14:53:13)
 ------------------------------------------------------
 Symbolic Z-matrix:
 Charge =  0 Multiplicity = 1

                         Standard orientation:
 ---------------------------------------------------------------------
 Center     Atomic      Atomic             Coordinates (Angstroms)
 Number     Number       Type             X           Y           Z
 ---------------------------------------------------------------------
      1          6           0        4.161297   -0.177508   -0.163317
      2          6           0        3.233127   -0.920771    0.797956
      3          6           0        1.846811   -1.173222    0.204498
      4          1           0        3.700046    0.779994   -0.441493
      5          1           0        4.258732   -0.758651   -1.090773
      6          1           0        3.138571   -0.339074    1.723862
      7          1           0        3.696728   -1.876530    1.074026
      8          1           0        1.921876   -1.773350   -0.708088
      9          1           0        1.360547   -0.227158   -0.054559
     10          1           0        1.199654   -1.705696    0.908429
     11          6           0        5.550912    0.082259    0.415664
     12          6           0        6.479082    0.825522   -0.545609
     13          6           0        7.865397    1.077973    0.047848
     14          1           0        5.453477    0.663401    1.343120
     15          1           0        6.012163   -0.875243    0.693840
     16          1           0        6.015480    1.781281   -0.821679
     17          1           0        6.573638    0.243824   -1.471516
     18          1           0        8.351661    0.131908    0.306906
     19          1           0        7.790332    1.678100    0.960434
     20          1           0        8.512554    1.610447   -0.656083
     21          6           0       -5.714169    1.613192    0.342448
     22          6           0       -5.900096    0.232131    0.463376
     23          6           0       -4.843188   -0.650451    0.221425
     24          6           0       -3.608180   -0.115154   -0.141209
     25          6           0       -3.391537    1.255896   -0.269968
     26          6           0       -4.462689    2.119773   -0.023193
     27          1           0       -6.540733    2.291538    0.532275
     28          1           0       -6.870914   -0.164115    0.747185
     29          1           0       -4.959421   -1.723976    0.307743
     30          1           0       -2.412207    1.621094   -0.554503
     31          1           0       -4.315391    3.191866   -0.117873
     32          7           0       -2.481739   -1.039603   -0.399905
     33          8           0       -1.403465   -0.542846   -0.718017
     34          8           0       -2.698438   -2.243438   -0.279662
 ---------------------------------------------------------------------

 SCF Done:  E(RHF) =  -669.535496216     A.U. after   15 cycles
 E2 =    -0.2091013007D+01 EUMP2 =    -0.67162650922239D+03

 The electronic state is 1-A.
 Alpha  occ. eigenvalues --  -20.60862 -20.60841 -15.85889 -11.31253 -11.27823
 Alpha  occ. eigenvalues --  -11.27817 -11.27564 -11.26837 -11.26827 -11.21072
 Alpha  occ. eigenvalues --  -11.20714 -11.20646 -11.20507 -11.20412 -11.19322
 Alpha  occ. eigenvalues --   -1.59917  -1.39472  -1.19425  -1.08821  -1.07621
 Alpha  occ. eigenvalues --   -1.04828  -1.02612  -0.95662  -0.95015  -0.86228
 Alpha  occ. eigenvalues --   -0.86017  -0.82491  -0.78702  -0.77545  -0.77385
 Alpha  occ. eigenvalues --   -0.72108  -0.71236  -0.70534  -0.65081  -0.64831
 Alpha  occ. eigenvalues --   -0.64267  -0.62176  -0.60020  -0.58475  -0.56629
 Alpha  occ. eigenvalues --   -0.55330  -0.54314  -0.53158  -0.52921  -0.51689
 Alpha  occ. eigenvalues --   -0.51438  -0.49022  -0.48862  -0.48801  -0.46980
 Alpha  occ. eigenvalues --   -0.45783  -0.44992  -0.44886  -0.44733  -0.42845
 Alpha  occ. eigenvalues --   -0.37405  -0.36431
 Alpha virt. eigenvalues --    0.04986   0.11223   0.16470   0.21341   0.23595
 Alpha virt. eigenvalues --    0.25241   0.27246   0.27408   0.28081   0.28275
 Alpha virt. eigenvalues --    0.29095   0.30898   0.32165   0.32440   0.32668

 Mulliken charges:
               1
     1  C   -0.296813
     2  C   -0.302562
     3  C   -0.466373
     4  H    0.147322
     5  H    0.149245
     6  H    0.145962
     7  H    0.147766
     8  H    0.155288
     9  H    0.161712
    10  H    0.160964
    11  C   -0.297221
    12  C   -0.298895
    13  C   -0.475189
    14  H    0.147362
    15  H    0.148691
    16  H    0.150453
    17  H    0.151652
    18  H    0.154735
    19  H    0.153991
    20  H    0.158479
    21  C   -0.170746
    22  C   -0.218543
    23  C   -0.170750
    24  C    0.157894
    25  C   -0.170755
    26  C   -0.218501
    27  H    0.225813
    28  H    0.223665
    29  H    0.275802
    30  H    0.275240
    31  H    0.223610
    32  N    0.491015
    33  O   -0.460479
    34  O   -0.459833
 Sum of Mulliken charges =  -0.00000

 Dipole moment (field-independent basis, Debye):
    X=             -4.3020    Y=              3.2199    Z=              0.8430  Tot=              5.4393
 Quadrupole moment (field-independent basis, Debye-Ang):
   XX=            -67.1500   YY=            -91.9769   ZZ=            -95.7870
   XY=             -9.4986   XZ=             -4.1669   YZ=             -1.1294

 Normal termination of Gaussian 16 at Thu May  6 08:53:48 2021.
