 Gaussian 16, Revision A.03,
 Gaussian 16:  EM64L-G16RevA.03 25-Dec-2016

 -------------
 #p 6-31g* mp2
 -------------

 ------------------------------------------------------
 Input file generated by CHIRIPA (05-May-2021 14:57:25)
 ------------------------------------------------------
 Symbolic Z-matrix:
 Charge =  0 Multiplicity = 1

                         Standard orientation:
 ---------------------------------------------------------------------
 Center     Atomic      Atomic             Coordinates (Angstroms)
 Number     Number       Type             X           Y           Z
 ---------------------------------------------------------------------
      1          6           0        2.928447   -2.191345    0.067095
      2          6           0        2.279871   -1.611847   -1.028374
      3          6           0        2.181718   -0.221844   -1.141539
      4          6           0        2.745994    0.562123   -0.136412
      5          6           0        3.398496    0.014633    0.967121
      6          6           0        3.484709   -1.377690    1.059596
      7          1           0        3.000057   -3.272034    0.146968
      8          1           0        1.846940   -2.241273   -1.800668
      9          1           0        1.685179    0.253148   -1.978945
     10          1           0        3.820260    0.668095    1.721124
     11          1           0        3.988986   -1.824972    1.911470
     12          7           0        2.648404    2.034885   -0.245263
     13          8           0        3.153807    2.703594    0.653643
     14          8           0        2.068358    2.492639   -1.227426
     15          6           0       -1.007211   -2.131143    0.055797
     16          6           0       -1.269794   -1.451963    1.250069
     17          6           0       -2.239917   -0.446350    1.296458
     18          6           0       -2.931732   -0.144240    0.124532
     19          6           0       -2.692933   -0.802910   -1.080632
     20          6           0       -1.718365   -1.805024   -1.103697
     21          1           0       -0.251869   -2.910969    0.028820
     22          1           0       -0.719050   -1.703121    2.152092
     23          1           0       -2.463334    0.095345    2.207540
     24          1           0       -3.258242   -0.530312   -1.963544
     25          1           0       -1.516549   -2.330819   -2.032598
     26          7           0       -3.961111    0.918505    0.161295
     27          8           0       -4.556840    1.165895   -0.884908
     28          8           0       -4.152718    1.483971    1.235619
 ---------------------------------------------------------------------

 SCF Done:  E(RHF) =  -868.335509728     A.U. after   16 cycles
 E2 =    -0.2602610414D+01 EUMP2 =    -0.87093812014153D+03

 The electronic state is 1-A.
 Alpha  occ. eigenvalues --  -20.61201 -20.61193 -20.60764 -20.60757 -15.86261
 Alpha  occ. eigenvalues --  -15.85827 -11.31855 -11.31319 -11.28440 -11.28434
 Alpha  occ. eigenvalues --  -11.28300 -11.27977 -11.27932 -11.27782 -11.27593
 Alpha  occ. eigenvalues --  -11.27534 -11.27046 -11.26955  -1.60269  -1.59835
 Alpha  occ. eigenvalues --   -1.39816  -1.39386  -1.20070  -1.19543  -1.09450
 Alpha  occ. eigenvalues --   -1.08922  -1.05503  -1.04978  -0.96226  -0.95731
 Alpha  occ. eigenvalues --   -0.86910  -0.86380  -0.83051  -0.82563  -0.78045
 Alpha  occ. eigenvalues --   -0.77569  -0.72477  -0.72046  -0.71595  -0.71202
 Alpha  occ. eigenvalues --   -0.71157  -0.70713  -0.65725  -0.65552  -0.65201
 Alpha  occ. eigenvalues --   -0.65001  -0.62839  -0.62323  -0.56043  -0.55602
 Alpha  occ. eigenvalues --   -0.53992  -0.53607  -0.53094  -0.53066  -0.49253
 Alpha  occ. eigenvalues --   -0.49215  -0.48815  -0.48788  -0.45170  -0.44764
 Alpha  occ. eigenvalues --   -0.38282  -0.37809  -0.36655  -0.36515
 Alpha virt. eigenvalues --    0.04436   0.05002   0.10461   0.11021   0.15786
 Alpha virt. eigenvalues --    0.16554   0.19429   0.21830   0.25617   0.26628
 Alpha virt. eigenvalues --    0.27634   0.29027   0.29919   0.31033   0.31996

 Mulliken charges:
               1
     1  C   -0.178097
     2  C   -0.219163
     3  C   -0.164432
     4  C    0.159594
     5  C   -0.171094
     6  C   -0.219623
     7  H    0.223633
     8  H    0.218400
     9  H    0.278054
    10  H    0.278058
    11  H    0.224853
    12  N    0.487943
    13  O   -0.458415
    14  O   -0.456903
    15  C   -0.161471
    16  C   -0.219276
    17  C   -0.169160
    18  C    0.159243
    19  C   -0.168824
    20  C   -0.224537
    21  H    0.216955
    22  H    0.222216
    23  H    0.277477
    24  H    0.276749
    25  H    0.217696
    26  N    0.488554
    27  O   -0.459623
    28  O   -0.458805
 Sum of Mulliken charges =  -0.00000

 Dipole moment (field-independent basis, Debye):
    X=              3.9942    Y=             -8.6174    Z=              0.3131  Tot=              9.5032
 Quadrupole moment (field-independent basis, Debye-Ang):
   XX=           -123.7736   YY=           -111.2591   ZZ=            -96.7013
   XY=             -3.0665   XZ=              5.3476   YZ=              1.6186

 Normal termination of Gaussian 16 at Fri May  7 01:59:08 2021.
