 Gaussian 16, Revision A.03,
 Gaussian 16:  EM64L-G16RevA.03 25-Dec-2016

 -------------
 #p 6-31g* mp2
 -------------

 ------------------------------------------------------
 Input file generated by CHIRIPA (05-May-2021 14:53:14)
 ------------------------------------------------------
 Symbolic Z-matrix:
 Charge =  0 Multiplicity = 1

                         Standard orientation:
 ---------------------------------------------------------------------
 Center     Atomic      Atomic             Coordinates (Angstroms)
 Number     Number       Type             X           Y           Z
 ---------------------------------------------------------------------
      1          6           0        4.491925   -0.194528    0.379260
      2          6           0        5.848461    0.205928   -0.201626
      3          6           0        7.001212   -0.023181    0.776366
      4          1           0        4.311869    0.376084    1.300633
      5          1           0        4.523230   -1.254036    0.668843
      6          1           0        5.814164    1.264005   -0.491303
      7          1           0        6.025223   -0.365564   -1.121826
      8          1           0        7.064045   -1.079510    1.057119
      9          1           0        6.851788    0.559318    1.691225
     10          1           0        7.961545    0.269768    0.340704
     11          6           0        3.329591    0.028649   -0.586608
     12          6           0        1.973054   -0.371807   -0.005721
     13          6           0        0.820303   -0.142698   -0.983713
     14          1           0        3.298285    1.088157   -0.876190
     15          1           0        3.509647   -0.541962   -1.507980
     16          1           0        1.796293    0.199685    0.914479
     17          1           0        2.007351   -1.429884    0.283955
     18          1           0        0.969728   -0.725197   -1.898573
     19          1           0        0.757470    0.913631   -1.264467
     20          1           0       -0.140030   -0.435647   -0.548051
     21          6           0       -2.838720    2.578492    0.062071
     22          6           0       -3.157643    1.912298    1.249924
     23          6           0       -3.280199    0.519806    1.272128
     24          6           0       -3.076216   -0.178219    0.082824
     25          6           0       -2.757390    0.456782   -1.116514
     26          6           0       -2.639962    1.849892   -1.115281
     27          1           0       -2.745508    3.660454    0.053926
     28          1           0       -3.312552    2.475558    2.165777
     29          1           0       -3.526148   -0.021304    2.177737
     30          1           0       -2.608773   -0.131892   -2.013618
     31          1           0       -2.392184    2.364610   -2.039250
     32          7           0       -3.203246   -1.652715    0.093925
     33          8           0       -3.018636   -2.244721   -0.967246
     34          8           0       -3.485017   -2.188500    1.163587
 ---------------------------------------------------------------------

 SCF Done:  E(RHF) =  -669.534508586     A.U. after   15 cycles
 E2 =    -0.2092702012D+01 EUMP2 =    -0.67162721059827D+03

 The electronic state is 1-A.
 Alpha  occ. eigenvalues --  -20.60800 -20.60785 -15.85842 -11.31171 -11.27785
 Alpha  occ. eigenvalues --  -11.27751 -11.27527 -11.26774 -11.26752 -11.21615
 Alpha  occ. eigenvalues --  -11.21541 -11.21399 -11.21340 -11.21079 -11.21000
 Alpha  occ. eigenvalues --   -1.59870  -1.39422  -1.19384  -1.08776  -1.08419
 Alpha  occ. eigenvalues --   -1.04781  -1.03512  -0.95979  -0.95605  -0.87005
 Alpha  occ. eigenvalues --   -0.86174  -0.82437  -0.79588  -0.78235  -0.77483
 Alpha  occ. eigenvalues --   -0.72060  -0.71206  -0.70490  -0.65052  -0.65026
 Alpha  occ. eigenvalues --   -0.64775  -0.62123  -0.60911  -0.59380  -0.57602
 Alpha  occ. eigenvalues --   -0.55288  -0.55269  -0.53469  -0.52867  -0.52435
 Alpha  occ. eigenvalues --   -0.52255  -0.49908  -0.48821  -0.48815  -0.47903
 Alpha  occ. eigenvalues --   -0.46611  -0.45778  -0.45702  -0.44832  -0.43776
 Alpha  occ. eigenvalues --   -0.37335  -0.36300
 Alpha virt. eigenvalues --    0.05031   0.11230   0.16490   0.21353   0.22864
 Alpha virt. eigenvalues --    0.24272   0.26639   0.26966   0.27563   0.27977
 Alpha virt. eigenvalues --    0.28426   0.30509   0.31419   0.31822   0.31951

 Mulliken charges:
               1
     1  C   -0.298275
     2  C   -0.299524
     3  C   -0.475683
     4  H    0.148691
     5  H    0.151222
     6  H    0.150620
     7  H    0.152382
     8  H    0.156050
     9  H    0.154669
    10  H    0.160025
    11  C   -0.298448
    12  C   -0.299734
    13  C   -0.477448
    14  H    0.146660
    15  H    0.150404
    16  H    0.150131
    17  H    0.156202
    18  H    0.156200
    19  H    0.148166
    20  H    0.164138
    21  C   -0.171046
    22  C   -0.218609
    23  C   -0.171632
    24  C    0.157778
    25  C   -0.170293
    26  C   -0.215417
    27  H    0.225599
    28  H    0.223358
    29  H    0.275745
    30  H    0.276504
    31  H    0.223634
    32  N    0.488596
    33  O   -0.460116
    34  O   -0.460548
 Sum of Mulliken charges =  -0.00000

 Dipole moment (field-independent basis, Debye):
    X=              0.3980    Y=              5.1662    Z=             -0.0423  Tot=              5.1817
 Quadrupole moment (field-independent basis, Debye-Ang):
   XX=            -99.0864   YY=            -96.3244   ZZ=            -90.2579
   XY=            -16.4690   XZ=             -1.5673   YZ=              1.0340

 Normal termination of Gaussian 16 at Thu May  6 02:38:24 2021.
