 Gaussian 16, Revision A.03,
 Gaussian 16:  EM64L-G16RevA.03 25-Dec-2016

 -------------
 #p 6-31g* mp2
 -------------

 ------------------------------------------------------
 Input file generated by CHIRIPA (05-May-2021 14:57:27)
 ------------------------------------------------------
 Symbolic Z-matrix:
 Charge =  0 Multiplicity = 1

                         Standard orientation:
 ---------------------------------------------------------------------
 Center     Atomic      Atomic             Coordinates (Angstroms)
 Number     Number       Type             X           Y           Z
 ---------------------------------------------------------------------
      1          6           0        5.720578    1.316815   -0.425747
      2          6           0        5.826631   -0.046739   -0.132499
      3          6           0        4.680140   -0.835770   -0.000074
      4          6           0        3.437974   -0.225791   -0.168116
      5          6           0        3.299575    1.130126   -0.460738
      6          6           0        4.459612    1.899868   -0.588643
      7          1           0        6.616461    1.922262   -0.526863
      8          1           0        6.804603   -0.502233   -0.005460
      9          1           0        4.733357   -1.893705    0.226551
     10          1           0        2.310878    1.555855   -0.581778
     11          1           0        4.374222    2.958579   -0.816425
     12          7           0        2.217065   -1.050892   -0.030316
     13          8           0        1.134371   -0.489581   -0.183089
     14          8           0        2.365929   -2.243295    0.227855
     15          6           0       -1.929749    0.090272    2.046553
     16          6           0       -2.007673   -0.994448    1.166876
     17          6           0       -2.950924   -1.005455    0.135031
     18          6           0       -3.804457    0.089759    0.011423
     19          6           0       -3.751463    1.185220    0.871915
     20          6           0       -2.800357    1.174732    1.896529
     21          1           0       -1.193957    0.090473    2.845308
     22          1           0       -1.332830   -1.838018    1.280995
     23          1           0       -3.032996   -1.832213   -0.560061
     24          1           0       -4.437703    2.011768    0.732949
     25          1           0       -2.742119    2.018502    2.578222
     26          7           0       -4.807192    0.089484   -1.077119
     27          8           0       -5.547739    1.066495   -1.164736
     28          8           0       -4.833604   -0.887737   -1.822087
 ---------------------------------------------------------------------

 SCF Done:  E(RHF) =  -868.339323970     A.U. after   15 cycles
 E2 =    -0.2599257821D+01 EUMP2 =    -0.87093858179111D+03

 The electronic state is 1-A.
 Alpha  occ. eigenvalues --  -20.61599 -20.61588 -20.59888 -20.59872 -15.86607
 Alpha  occ. eigenvalues --  -15.84923 -11.31768 -11.30058 -11.28312 -11.28304
 Alpha  occ. eigenvalues --  -11.28011 -11.27276 -11.27265 -11.26632 -11.26454
 Alpha  occ. eigenvalues --  -11.26243 -11.25674 -11.25362  -1.60672  -1.58962
 Alpha  occ. eigenvalues --   -1.40224  -1.38522  -1.19923  -1.18177  -1.09359
 Alpha  occ. eigenvalues --   -1.07621  -1.05290  -1.03528  -0.96227  -0.94505
 Alpha  occ. eigenvalues --   -0.86697  -0.84945  -0.83057  -0.81337  -0.78134
 Alpha  occ. eigenvalues --   -0.76416  -0.72835  -0.71979  -0.71151  -0.71022
 Alpha  occ. eigenvalues --   -0.70280  -0.69313  -0.65574  -0.65289  -0.63829
 Alpha  occ. eigenvalues --   -0.63523  -0.62636  -0.60885  -0.55797  -0.54071
 Alpha  occ. eigenvalues --   -0.53636  -0.53376  -0.51892  -0.51628  -0.49610
 Alpha  occ. eigenvalues --   -0.49568  -0.47917  -0.47883  -0.45671  -0.43980
 Alpha  occ. eigenvalues --   -0.37893  -0.36885  -0.36133  -0.35067
 Alpha virt. eigenvalues --    0.04367   0.06087   0.10772   0.12566   0.15923
 Alpha virt. eigenvalues --    0.17666   0.20957   0.22610   0.26878   0.27835
 Alpha virt. eigenvalues --    0.28607   0.29378   0.30546   0.32044   0.32165

 Mulliken charges:
               1
     1  C   -0.169996
     2  C   -0.218599
     3  C   -0.170713
     4  C    0.157181
     5  C   -0.171403
     6  C   -0.218630
     7  H    0.227604
     8  H    0.225110
     9  H    0.275931
    10  H    0.276795
    11  H    0.225366
    12  N    0.488313
    13  O   -0.462428
    14  O   -0.462572
    15  C   -0.171037
    16  C   -0.199398
    17  C   -0.173424
    18  C    0.157613
    19  C   -0.174621
    20  C   -0.219880
    21  H    0.221291
    22  H    0.234565
    23  H    0.274473
    24  H    0.270280
    25  H    0.216823
    26  N    0.488057
    27  O   -0.464979
    28  O   -0.461721
 Sum of Mulliken charges =  -0.00000

 Dipole moment (field-independent basis, Debye):
    X=              8.3432    Y=              2.7520    Z=              3.3107  Tot=              9.3885
 Quadrupole moment (field-independent basis, Debye-Ang):
   XX=           -101.8675   YY=            -99.2512   ZZ=           -105.7343
   XY=              6.0052   XZ=            -16.9997   YZ=              0.3484

 Normal termination of Gaussian 16 at Thu May  6 06:51:41 2021.
