 Gaussian 16, Revision A.03,
 Gaussian 16:  EM64L-G16RevA.03 25-Dec-2016

 -------------
 #p 6-31g* mp2
 -------------

 ------------------------------------------------------
 Input file generated by CHIRIPA (05-May-2021 14:51:09)
 ------------------------------------------------------
 Symbolic Z-matrix:
 Charge =  0 Multiplicity = 1

                         Standard orientation:
 ---------------------------------------------------------------------
 Center     Atomic      Atomic             Coordinates (Angstroms)
 Number     Number       Type             X           Y           Z
 ---------------------------------------------------------------------
      1          6           0       -2.959622    0.252285   -0.159263
      2          6           0       -3.125805   -0.698345   -1.345294
      3          6           0       -4.321600   -1.637891   -1.186797
      4          1           0       -2.845661   -0.336491    0.761226
      5          1           0       -3.878292    0.843337   -0.040523
      6          1           0       -2.206576   -1.286451   -1.462616
      7          1           0       -3.239192   -0.107239   -2.263093
      8          1           0       -5.250647   -1.066445   -1.092346
      9          1           0       -4.212164   -2.252356   -0.287321
     10          1           0       -4.421736   -2.308683   -2.045791
     11          6           0       -1.768401    1.197829   -0.303026
     12          6           0       -1.602218    2.148459    0.883006
     13          6           0       -0.406423    3.088005    0.724509
     14          1           0       -0.849731    0.606777   -0.421765
     15          1           0       -1.882362    1.786605   -1.223515
     16          1           0       -1.488831    1.557353    1.800804
     17          1           0       -2.521447    2.736565    1.000328
     18          1           0       -0.515859    3.702471   -0.174967
     19          1           0        0.522624    2.516559    0.630058
     20          1           0       -0.306287    3.758798    1.583502
     21          6           0        3.109120   -0.723399    0.063091
     22          6           0        3.479170    0.265954   -1.042453
     23          6           0        4.973203    0.257652   -1.367402
     24          1           0        3.684000   -0.483963    0.968148
     25          1           0        3.413310   -1.734194   -0.242130
     26          1           0        3.173123    1.274385   -0.735831
     27          1           0        2.903202    0.024252   -1.944926
     28          1           0        5.289977   -0.736743   -1.698210
     29          1           0        5.561432    0.520493   -0.482245
     30          1           0        5.215587    0.972143   -2.160253
     31          6           0        1.618903   -0.726715    0.399198
     32          6           0        1.248853   -1.716068    1.504742
     33          6           0       -0.245181   -1.707767    1.829690
     34          1           0        1.314714    0.284080    0.704418
     35          1           0        1.044024   -0.966150   -0.505860
     36          1           0        1.824821   -1.474367    2.407215
     37          1           0        1.554900   -2.724499    1.198119
     38          1           0       -0.833408   -1.970608    0.944533
     39          1           0       -0.561954   -0.713371    2.160498
     40          1           0       -0.487564   -2.422258    2.622542
 ---------------------------------------------------------------------

 SCF Done:  E(RHF) =  -470.730859337     A.U. after   11 cycles
 E2 =    -0.1587063799D+01 EUMP2 =    -0.47231792313570D+03

 The electronic state is 1-A.
 Alpha  occ. eigenvalues --  -11.21711 -11.21655 -11.21557 -11.21552 -11.21496
 Alpha  occ. eigenvalues --  -11.21430 -11.21217 -11.21168 -11.21133 -11.21106
 Alpha  occ. eigenvalues --  -11.21061 -11.21032  -1.08575  -1.08299  -1.03624
 Alpha  occ. eigenvalues --   -1.03482  -0.96093  -0.95902  -0.87106  -0.86936
 Alpha  occ. eigenvalues --   -0.79713  -0.79549  -0.78506  -0.78024  -0.65237
 Alpha  occ. eigenvalues --   -0.64971  -0.61229  -0.60708  -0.59421  -0.59297
 Alpha  occ. eigenvalues --   -0.57703  -0.57530  -0.55427  -0.55176  -0.52766
 Alpha  occ. eigenvalues --   -0.52660  -0.52507  -0.52352  -0.50218  -0.49682
 Alpha  occ. eigenvalues --   -0.48066  -0.47890  -0.46789  -0.46655  -0.46302
 Alpha  occ. eigenvalues --   -0.45758  -0.45532  -0.44914  -0.43870  -0.43695
 Alpha virt. eigenvalues --    0.20178   0.21739   0.23125   0.24778   0.25043
 Alpha virt. eigenvalues --    0.25845   0.26258   0.28354   0.29014   0.29967
 Alpha virt. eigenvalues --    0.30521   0.31108   0.31752   0.32176   0.32468

 Mulliken charges:
               1
     1  C   -0.301534
     2  C   -0.301193
     3  C   -0.475778
     4  H    0.154853
     5  H    0.148707
     6  H    0.150673
     7  H    0.152016
     8  H    0.155410
     9  H    0.155292
    10  H    0.159765
    11  C   -0.307840
    12  C   -0.303110
    13  C   -0.481038
    14  H    0.162391
    15  H    0.148617
    16  H    0.153099
    17  H    0.152370
    18  H    0.155921
    19  H    0.158277
    20  H    0.159912
    21  C   -0.296568
    22  C   -0.301107
    23  C   -0.475757
    24  H    0.149805
    25  H    0.149793
    26  H    0.152755
    27  H    0.152303
    28  H    0.155314
    29  H    0.155314
    30  H    0.160670
    31  C   -0.310490
    32  C   -0.298630
    33  C   -0.484569
    34  H    0.158523
    35  H    0.151088
    36  H    0.152241
    37  H    0.152290
    38  H    0.159009
    39  H    0.160343
    40  H    0.160863
 Sum of Mulliken charges =  -0.00000

 Dipole moment (field-independent basis, Debye):
    X=              0.0664    Y=             -0.0348    Z=              0.0177  Tot=              0.0770
 Quadrupole moment (field-independent basis, Debye-Ang):
   XX=            -86.2676   YY=            -84.4642   ZZ=            -84.2003
   XY=             -0.9842   XZ=              0.6592   YZ=              0.1532

 Normal termination of Gaussian 16 at Thu May  6 02:08:09 2021.
