 Gaussian 16, Revision A.03,
 Gaussian 16:  EM64L-G16RevA.03 25-Dec-2016

 -------------
 #p 6-31g* mp2
 -------------

 ------------------------------------------------------
 Input file generated by CHIRIPA (05-May-2021 14:57:26)
 ------------------------------------------------------
 Symbolic Z-matrix:
 Charge =  0 Multiplicity = 1

                         Standard orientation:
 ---------------------------------------------------------------------
 Center     Atomic      Atomic             Coordinates (Angstroms)
 Number     Number       Type             X           Y           Z
 ---------------------------------------------------------------------
      1          6           0       -2.158963    0.666648   -0.002854
      2          6           0       -2.500821   -0.671456    0.218802
      3          6           0       -3.840841   -1.069992    0.226709
      4          6           0       -4.817693   -0.099715    0.008504
      5          6           0       -4.508900    1.241141   -0.215192
      6          6           0       -3.162324    1.617001   -0.218763
      7          1           0       -1.115457    0.967433   -0.007312
      8          1           0       -1.723708   -1.411678    0.386765
      9          1           0       -4.133563   -2.099139    0.395788
     10          1           0       -5.305806    1.956210   -0.379616
     11          1           0       -2.899775    2.656899   -0.391168
     12          7           0       -6.239782   -0.509624    0.014579
     13          8           0       -7.081612    0.364458   -0.180200
     14          8           0       -6.485659   -1.697231    0.214006
     15          6           0        2.334611    1.175172    0.045131
     16          6           0        2.413770   -0.204234   -0.172799
     17          6           0        3.654346   -0.848088   -0.203978
     18          6           0        4.800712   -0.078345   -0.012591
     19          6           0        4.754580    1.297543    0.206707
     20          6           0        3.503210    1.920345    0.233857
     21          1           0        1.366709    1.667155    0.067787
     22          1           0        1.507880   -0.785471   -0.319676
     23          1           0        3.744512   -1.914608   -0.370779
     24          1           0        5.675096    1.850336    0.349852
     25          1           0        3.444761    2.991753    0.403305
     26          7           0        6.119769   -0.748820   -0.043466
     27          8           0        7.114961   -0.048206    0.127906
     28          8           0        6.133476   -1.962257   -0.238454
 ---------------------------------------------------------------------

 SCF Done:  E(RHF) =  -868.335843900     A.U. after   16 cycles
 E2 =    -0.2600003687D+01 EUMP2 =    -0.87093584758786D+03

 The electronic state is 1-A.
 Alpha  occ. eigenvalues --  -20.61379 -20.61373 -20.61343 -20.61338 -15.86439
 Alpha  occ. eigenvalues --  -15.86403 -11.31980 -11.31942 -11.28589 -11.28542
 Alpha  occ. eigenvalues --  -11.28526 -11.28512 -11.28500 -11.28476 -11.27747
 Alpha  occ. eigenvalues --  -11.27667 -11.27633 -11.27624  -1.60450  -1.60414
 Alpha  occ. eigenvalues --   -1.39998  -1.39963  -1.20189  -1.20148  -1.09589
 Alpha  occ. eigenvalues --   -1.09540  -1.05616  -1.05569  -0.96398  -0.96328
 Alpha  occ. eigenvalues --   -0.87032  -0.86977  -0.83220  -0.83147  -0.78194
 Alpha  occ. eigenvalues --   -0.78146  -0.72657  -0.72620  -0.71774  -0.71738
 Alpha  occ. eigenvalues --   -0.71615  -0.71136  -0.65863  -0.65820  -0.65703
 Alpha  occ. eigenvalues --   -0.65541  -0.62969  -0.62893  -0.56512  -0.55914
 Alpha  occ. eigenvalues --   -0.53934  -0.53893  -0.53743  -0.53668  -0.49431
 Alpha  occ. eigenvalues --   -0.49397  -0.49392  -0.49361  -0.45364  -0.45329
 Alpha  occ. eigenvalues --   -0.38223  -0.38176  -0.37201  -0.37154
 Alpha virt. eigenvalues --    0.04341   0.04387   0.10434   0.10482   0.15767
 Alpha virt. eigenvalues --    0.15829   0.16457   0.22281   0.23724   0.24798
 Alpha virt. eigenvalues --    0.27483   0.28821   0.30234   0.31095   0.33447

 Mulliken charges:
               1
     1  C   -0.172793
     2  C   -0.220053
     3  C   -0.169345
     4  C    0.159462
     5  C   -0.169548
     6  C   -0.219479
     7  H    0.219077
     8  H    0.221128
     9  H    0.278312
    10  H    0.278139
    11  H    0.223838
    12  N    0.487817
    13  O   -0.458377
    14  O   -0.458252
    15  C   -0.173190
    16  C   -0.218553
    17  C   -0.169506
    18  C    0.159396
    19  C   -0.169503
    20  C   -0.217728
    21  H    0.219426
    22  H    0.216393
    23  H    0.277856
    24  H    0.278402
    25  H    0.225784
    26  N    0.487894
    27  O   -0.458059
    28  O   -0.458539
 Sum of Mulliken charges =  -0.00000

 Dipole moment (field-independent basis, Debye):
    X=              0.3763    Y=              3.7714    Z=              0.0936  Tot=              3.7913
 Quadrupole moment (field-independent basis, Debye-Ang):
   XX=           -194.6468   YY=            -97.0940   ZZ=           -106.2760
   XY=              5.1517   XZ=              1.4834   YZ=             -0.1603

 Normal termination of Gaussian 16 at Fri May  7 11:12:36 2021.
