 Gaussian 16, Revision A.03,
 Gaussian 16:  EM64L-G16RevA.03 25-Dec-2016

 -------------
 #p 6-31g* mp2
 -------------

 ------------------------------------------------------
 Input file generated by CHIRIPA (05-May-2021 14:55:20)
 ------------------------------------------------------
 Symbolic Z-matrix:
 Charge =  0 Multiplicity = 1

                         Standard orientation:
 ---------------------------------------------------------------------
 Center     Atomic      Atomic             Coordinates (Angstroms)
 Number     Number       Type             X           Y           Z
 ---------------------------------------------------------------------
      1          6           0        2.864699    1.261720    2.030217
      2          6           0        3.887917    0.913054    1.142536
      3          6           0        3.614064    0.135191    0.013607
      4          6           0        2.299803   -0.278677   -0.197867
      5          6           0        1.258701    0.052324    0.668063
      6          6           0        1.555664    0.831001    1.790570
      7          1           0        3.086411    1.866299    2.904702
      8          1           0        4.905459    1.246144    1.326125
      9          1           0        4.387107   -0.149190   -0.689920
     10          1           0        0.254147   -0.294596    0.458454
     11          1           0        0.759018    1.100264    2.478245
     12          7           0        1.997654   -1.102597   -1.389615
     13          8           0        0.831529   -1.454652   -1.553468
     14          8           0        2.932675   -1.380729   -2.137287
     15          6           0       -2.768831    0.622759   -0.575195
     16          6           0       -3.050067    2.110271   -0.360258
     17          6           0       -2.566828    2.977333   -1.523219
     18          1           0       -1.689455    0.477237   -0.719123
     19          1           0       -3.255040    0.295362   -1.504606
     20          1           0       -2.564625    2.434443    0.569190
     21          1           0       -4.128876    2.252246   -0.216634
     22          1           0       -3.060134    2.681976   -2.454891
     23          1           0       -1.486995    2.865208   -1.664602
     24          1           0       -2.777915    4.036980   -1.348717
     25          6           0       -3.246147   -0.256974    0.578914
     26          6           0       -2.964911   -1.744487    0.363978
     27          6           0       -3.448150   -2.611549    1.526939
     28          1           0       -2.759937    0.070423    1.508326
     29          1           0       -4.325523   -0.111452    0.722843
     30          1           0       -1.886101   -1.886461    0.220353
     31          1           0       -3.450353   -2.068659   -0.565471
     32          1           0       -4.527983   -2.499423    1.668322
     33          1           0       -2.954843   -2.316191    2.458612
     34          1           0       -3.237062   -3.671195    1.352436
 ---------------------------------------------------------------------

 SCF Done:  E(RHF) =  -669.535535050     A.U. after   15 cycles
 E2 =    -0.2092752356D+01 EUMP2 =    -0.67162828740604D+03

 The electronic state is 1-A.
 Alpha  occ. eigenvalues --  -20.60878 -20.60873 -15.85914 -11.31261 -11.27824
 Alpha  occ. eigenvalues --  -11.27809 -11.27565 -11.26843 -11.26834 -11.21699
 Alpha  occ. eigenvalues --  -11.21511 -11.21424 -11.21345 -11.21067 -11.21006
 Alpha  occ. eigenvalues --   -1.59941  -1.39496  -1.19433  -1.08831  -1.08465
 Alpha  occ. eigenvalues --   -1.04834  -1.03516  -0.95980  -0.95668  -0.86989
 Alpha  occ. eigenvalues --   -0.86236  -0.82500  -0.79563  -0.78273  -0.77533
 Alpha  occ. eigenvalues --   -0.72134  -0.71257  -0.70555  -0.65270  -0.65085
 Alpha  occ. eigenvalues --   -0.64736  -0.62159  -0.60929  -0.59329  -0.57566
 Alpha  occ. eigenvalues --   -0.55402  -0.55224  -0.53161  -0.52939  -0.52643
 Alpha  occ. eigenvalues --   -0.52379  -0.49935  -0.48908  -0.48889  -0.47873
 Alpha  occ. eigenvalues --   -0.46622  -0.45776  -0.45692  -0.44884  -0.43785
 Alpha  occ. eigenvalues --   -0.37411  -0.36430
 Alpha virt. eigenvalues --    0.04937   0.11153   0.16469   0.19342   0.23071
 Alpha virt. eigenvalues --    0.24166   0.25663   0.26285   0.27690   0.28162
 Alpha virt. eigenvalues --    0.30225   0.30902   0.31455   0.31819   0.31950

 Mulliken charges:
               1
     1  C   -0.170254
     2  C   -0.218778
     3  C   -0.169899
     4  C    0.155751
     5  C   -0.177950
     6  C   -0.222390
     7  H    0.225992
     8  H    0.223800
     9  H    0.275807
    10  H    0.290158
    11  H    0.224174
    12  N    0.488415
    13  O   -0.463750
    14  O   -0.459157
    15  C   -0.304973
    16  C   -0.298409
    17  C   -0.475496
    18  H    0.154461
    19  H    0.156123
    20  H    0.144451
    21  H    0.152606
    22  H    0.158298
    23  H    0.156220
    24  H    0.158831
    25  C   -0.299521
    26  C   -0.306879
    27  C   -0.475269
    28  H    0.138171
    29  H    0.151294
    30  H    0.162427
    31  H    0.157634
    32  H    0.154644
    33  H    0.149983
    34  H    0.163486
 Sum of Mulliken charges =  -0.00000

 Dipole moment (field-independent basis, Debye):
    X=              1.0866    Y=              2.8146    Z=              4.0244  Tot=              5.0298
 Quadrupole moment (field-independent basis, Debye-Ang):
   XX=            -84.1615   YY=            -97.7069   ZZ=            -97.1082
   XY=              6.8224   XZ=              9.2748   YZ=             -1.0223

 Normal termination of Gaussian 16 at Thu May  6 04:32:33 2021.
