 Gaussian 16, Revision A.03,
 Gaussian 16:  EM64L-G16RevA.03 25-Dec-2016

 -------------
 #p 6-31g* mp2
 -------------

 ------------------------------------------------------
 Input file generated by CHIRIPA (05-May-2021 14:55:24)
 ------------------------------------------------------
 Symbolic Z-matrix:
 Charge =  0 Multiplicity = 1

                         Standard orientation:
 ---------------------------------------------------------------------
 Center     Atomic      Atomic             Coordinates (Angstroms)
 Number     Number       Type             X           Y           Z
 ---------------------------------------------------------------------
      1          6           0        5.070352   -1.743459    0.008877
      2          6           0        5.130827   -0.611616   -0.810754
      3          6           0        4.084448    0.315511   -0.819354
      4          6           0        2.987781    0.078404    0.007926
      5          6           0        2.898155   -1.039677    0.835666
      6          6           0        3.956174   -1.953507    0.828027
      7          1           0        5.887726   -2.458509    0.009250
      8          1           0        5.994872   -0.445916   -1.447947
      9          1           0        4.105346    1.200220   -1.444071
     10          1           0        2.023756   -1.177731    1.459994
     11          1           0        3.906492   -2.831623    1.465592
     12          7           0        1.873865    1.052873    0.007418
     13          8           0        0.918740    0.821082    0.745419
     14          8           0        1.976995    2.030002   -0.730972
     15          6           0       -3.735050    0.626913    0.443723
     16          6           0       -2.713087    1.506680   -0.277102
     17          6           0       -2.072947    2.545443    0.644301
     18          1           0       -4.516733    1.264844    0.878417
     19          1           0       -3.242823    0.118830    1.284533
     20          1           0       -3.206766    2.011882   -1.117141
     21          1           0       -1.933848    0.866565   -0.710295
     22          1           0       -1.555353    2.056061    1.475687
     23          1           0       -2.835505    3.207886    1.066530
     24          1           0       -1.345678    3.163422    0.108539
     25          6           0       -4.383652   -0.416479   -0.464229
     26          6           0       -5.405615   -1.296246    0.256596
     27          6           0       -6.045755   -2.335010   -0.664808
     28          1           0       -4.875878    0.091603   -1.305038
     29          1           0       -3.601969   -1.054410   -0.898923
     30          1           0       -6.184854   -0.656131    0.689789
     31          1           0       -4.911935   -1.801449    1.096635
     32          1           0       -5.283197   -2.997452   -1.087036
     33          1           0       -6.563349   -1.845628   -1.496193
     34          1           0       -6.773024   -2.952988   -0.129045
 ---------------------------------------------------------------------

 SCF Done:  E(RHF) =  -669.536061693     A.U. after   15 cycles
 E2 =    -0.2091596662D+01 EUMP2 =    -0.67162765835491D+03

 The electronic state is 1-A.
 Alpha  occ. eigenvalues --  -20.61017 -20.61012 -15.86040 -11.31345 -11.27907
 Alpha  occ. eigenvalues --  -11.27900 -11.27637 -11.26907 -11.26897 -11.20949
 Alpha  occ. eigenvalues --  -11.20571 -11.20514 -11.20199 -11.19976 -11.18986
 Alpha  occ. eigenvalues --   -1.60068  -1.39626  -1.19510  -1.08917  -1.07370
 Alpha  occ. eigenvalues --   -1.04903  -1.02334  -0.95766  -0.94774  -0.86305
 Alpha  occ. eigenvalues --   -0.85806  -0.82597  -0.78494  -0.77653  -0.77097
 Alpha  occ. eigenvalues --   -0.72268  -0.71380  -0.70618  -0.65168  -0.64907
 Alpha  occ. eigenvalues --   -0.64007  -0.62251  -0.59721  -0.58271  -0.56362
 Alpha  occ. eigenvalues --   -0.55409  -0.54084  -0.53235  -0.52993  -0.51459
 Alpha  occ. eigenvalues --   -0.51221  -0.49189  -0.49010  -0.48497  -0.46773
 Alpha  occ. eigenvalues --   -0.45558  -0.45062  -0.44637  -0.44471  -0.42598
 Alpha  occ. eigenvalues --   -0.37487  -0.36503
 Alpha virt. eigenvalues --    0.04865   0.11152   0.16365   0.21282   0.23813
 Alpha virt. eigenvalues --    0.25600   0.27209   0.27611   0.28201   0.28468
 Alpha virt. eigenvalues --    0.29291   0.30874   0.32325   0.32599   0.32646

 Mulliken charges:
               1
     1  C   -0.170511
     2  C   -0.218574
     3  C   -0.170475
     4  C    0.157810
     5  C   -0.170838
     6  C   -0.218518
     7  H    0.226190
     8  H    0.224016
     9  H    0.276006
    10  H    0.275473
    11  H    0.223971
    12  N    0.490398
    13  O   -0.460528
    14  O   -0.458877
    15  C   -0.297687
    16  C   -0.298448
    17  C   -0.470793
    18  H    0.145755
    19  H    0.148783
    20  H    0.144176
    21  H    0.157266
    22  H    0.166532
    23  H    0.139674
    24  H    0.167977
    25  C   -0.297055
    26  C   -0.298572
    27  C   -0.474919
    28  H    0.147709
    29  H    0.147510
    30  H    0.150970
    31  H    0.149986
    32  H    0.153345
    33  H    0.154522
    34  H    0.157724
 Sum of Mulliken charges =  -0.00000

 Dipole moment (field-independent basis, Debye):
    X=              4.3741    Y=             -3.4101    Z=              0.0217  Tot=              5.5463
 Quadrupole moment (field-independent basis, Debye-Ang):
   XX=            -71.8111   YY=            -94.7934   ZZ=            -93.2832
   XY=             -9.5057   XZ=             -2.0670   YZ=             -2.9341

 Normal termination of Gaussian 16 at Thu May  6 11:03:31 2021.
