 Gaussian 16, Revision A.03,
 Gaussian 16:  EM64L-G16RevA.03 25-Dec-2016

 -------------
 #p 6-31g* mp2
 -------------

 ------------------------------------------------------
 Input file generated by CHIRIPA (05-May-2021 14:57:23)
 ------------------------------------------------------
 Symbolic Z-matrix:
 Charge =  0 Multiplicity = 1

                         Standard orientation:
 ---------------------------------------------------------------------
 Center     Atomic      Atomic             Coordinates (Angstroms)
 Number     Number       Type             X           Y           Z
 ---------------------------------------------------------------------
      1          6           0       -5.324326    1.266175   -1.249720
      2          6           0       -5.602962   -0.015401   -0.763461
      3          6           0       -4.683896   -0.680006    0.053953
      4          6           0       -3.490697   -0.030549    0.366635
      5          6           0       -3.184161    1.245948   -0.102281
      6          6           0       -4.117941    1.891656   -0.918162
      7          1           0       -6.043994    1.775117   -1.884111
      8          1           0       -6.539046   -0.503588   -1.019321
      9          1           0       -4.874085   -1.672485    0.444123
     10          1           0       -2.242496    1.706990    0.169980
     11          1           0       -3.898874    2.886911   -1.294357
     12          7           0       -2.509935   -0.724134    1.231184
     13          8           0       -1.465925   -0.130342    1.492130
     14          8           0       -2.803793   -1.848425    1.631500
     15          6           0        5.608988    1.239936    0.662009
     16          6           0        4.359803    1.335788    1.283999
     17          6           0        3.268654    0.606936    0.801592
     18          6           0        3.463177   -0.211733   -0.309818
     19          6           0        4.695320   -0.328439   -0.951295
     20          6           0        5.772471    0.409592   -0.451690
     21          1           0        6.451182    1.809690    1.043434
     22          1           0        4.229914    1.979846    2.149078
     23          1           0        2.290592    0.662431    1.263905
     24          1           0        4.793965   -0.978871   -1.811891
     25          1           0        6.741453    0.333190   -0.936749
     26          7           0        2.315436   -0.988194   -0.829624
     27          8           0        2.512845   -1.702347   -1.810262
     28          8           0        1.240160   -0.867930   -0.246566
 ---------------------------------------------------------------------

 SCF Done:  E(RHF) =  -868.336893403     A.U. after   16 cycles
 E2 =    -0.2599881929D+01 EUMP2 =    -0.87093677533266D+03

 The electronic state is 1-A.
 Alpha  occ. eigenvalues --  -20.60015 -20.59934 -20.59932 -20.59859 -15.85019
 Alpha  occ. eigenvalues --  -15.84951 -11.30567 -11.30505 -11.27204 -11.27109
 Alpha  occ. eigenvalues --  -11.27103 -11.27092 -11.26979 -11.26908 -11.26256
 Alpha  occ. eigenvalues --  -11.26205 -11.26185 -11.26172  -1.59065  -1.58943
 Alpha  occ. eigenvalues --   -1.38605  -1.38497  -1.18770  -1.18700  -1.08143
 Alpha  occ. eigenvalues --   -1.08062  -1.04194  -1.04143  -0.94947  -0.94860
 Alpha  occ. eigenvalues --   -0.85584  -0.85532  -0.81790  -0.81675  -0.76796
 Alpha  occ. eigenvalues --   -0.76687  -0.71358  -0.71076  -0.70403  -0.70218
 Alpha  occ. eigenvalues --   -0.69870  -0.69827  -0.64420  -0.64354  -0.64202
 Alpha  occ. eigenvalues --   -0.64163  -0.61523  -0.61496  -0.54710  -0.54655
 Alpha  occ. eigenvalues --   -0.52528  -0.52448  -0.52284  -0.52250  -0.48058
 Alpha  occ. eigenvalues --   -0.48003  -0.47926  -0.47905  -0.43976  -0.43829
 Alpha  occ. eigenvalues --   -0.36782  -0.36690  -0.35811  -0.35750
 Alpha virt. eigenvalues --    0.05750   0.05850   0.11840   0.11904   0.17197
 Alpha virt. eigenvalues --    0.17288   0.21880   0.22020   0.27805   0.27873
 Alpha virt. eigenvalues --    0.28687   0.29039   0.31335   0.31590   0.32912

 Mulliken charges:
               1
     1  C   -0.171423
     2  C   -0.218511
     3  C   -0.170637
     4  C    0.161421
     5  C   -0.168173
     6  C   -0.218538
     7  H    0.223127
     8  H    0.221491
     9  H    0.275090
    10  H    0.273862
    11  H    0.220576
    12  N    0.490802
    13  O   -0.455910
    14  O   -0.462388
    15  C   -0.171503
    16  C   -0.219417
    17  C   -0.173582
    18  C    0.157137
    19  C   -0.171729
    20  C   -0.219055
    21  H    0.223261
    22  H    0.222516
    23  H    0.285949
    24  H    0.273969
    25  H    0.221049
    26  N    0.487125
    27  O   -0.466774
    28  O   -0.449734
 Sum of Mulliken charges =  -0.00000

 Dipole moment (field-independent basis, Debye):
    X=              0.5128    Y=              5.1150    Z=             -1.0866  Tot=              5.2543
 Quadrupole moment (field-independent basis, Debye-Ang):
   XX=            -51.9299   YY=           -103.5129   ZZ=           -107.0666
   XY=              1.9501   XZ=             12.2986   YZ=              0.9871

 Normal termination of Gaussian 16 at Thu May  6 04:58:40 2021.
