 Gaussian 16, Revision A.03,
 Gaussian 16:  EM64L-G16RevA.03 25-Dec-2016

 -------------
 #p 6-31g* mp2
 -------------

 ------------------------------------------------------
 Input file generated by CHIRIPA (05-May-2021 14:53:16)
 ------------------------------------------------------
 Symbolic Z-matrix:
 Charge =  0 Multiplicity = 1

                         Standard orientation:
 ---------------------------------------------------------------------
 Center     Atomic      Atomic             Coordinates (Angstroms)
 Number     Number       Type             X           Y           Z
 ---------------------------------------------------------------------
      1          6           0       -5.844276    0.114723   -0.150107
      2          6           0       -6.636377   -1.095085    0.346811
      3          6           0       -8.071955   -1.118239   -0.178901
      4          1           0       -6.362544    1.034404    0.154082
      5          1           0       -5.833356    0.110914   -1.248861
      6          1           0       -6.644627   -1.089755    1.444317
      7          1           0       -6.116062   -2.011990    0.041569
      8          1           0       -8.081019   -1.147805   -1.273271
      9          1           0       -8.612587   -0.220330    0.137448
     10          1           0       -8.620046   -1.991384    0.188623
     11          6           0       -4.407258    0.151901    0.366929
     12          6           0       -3.615158    1.361708   -0.129989
     13          6           0       -2.179580    1.384863    0.395723
     14          1           0       -4.418179    0.155709    1.465683
     15          1           0       -3.888991   -0.767780    0.062740
     16          1           0       -4.135473    2.278614    0.175253
     17          1           0       -3.606908    1.356379   -1.227495
     18          1           0       -1.638948    0.486953    0.079374
     19          1           0       -2.170516    1.414428    1.490093
     20          1           0       -1.631488    2.258008    0.028199
     21          6           0        1.618975    0.593384   -0.518992
     22          6           0        1.964635   -0.761963   -0.527803
     23          6           0        3.283288   -1.159968   -0.288448
     24          6           0        4.235130   -0.171585   -0.042710
     25          6           0        3.921914    1.186704   -0.027281
     26          6           0        2.596994    1.561683   -0.269200
     27          1           0        0.592179    0.893621   -0.705923
     28          1           0        1.207181   -1.516143   -0.721505
     29          1           0        3.578393   -2.202240   -0.289401
     30          1           0        4.698989    1.915469    0.168866
     31          1           0        2.331432    2.614997   -0.261741
     32          7           0        5.634447   -0.580748    0.212041
     33          8           0        6.454440    0.309471    0.425955
     34          8           0        5.884742   -1.783921    0.192978
 ---------------------------------------------------------------------

 SCF Done:  E(RHF) =  -669.535331980     A.U. after   15 cycles
 E2 =    -0.2090980777D+01 EUMP2 =    -0.67162631275699D+03

 The electronic state is 1-A.
 Alpha  occ. eigenvalues --  -20.60694 -20.60689 -15.85749 -11.31091 -11.27671
 Alpha  occ. eigenvalues --  -11.27666 -11.27320 -11.26667 -11.26652 -11.22593
 Alpha  occ. eigenvalues --  -11.22411 -11.22194 -11.22138 -11.22012 -11.21516
 Alpha  occ. eigenvalues --   -1.59771  -1.39325  -1.19262  -1.09198  -1.08653
 Alpha  occ. eigenvalues --   -1.04669  -1.04339  -0.96819  -0.95491  -0.87843
 Alpha  occ. eigenvalues --   -0.86064  -0.82334  -0.80414  -0.78962  -0.77388
 Alpha  occ. eigenvalues --   -0.71966  -0.71095  -0.70374  -0.65825  -0.64912
 Alpha  occ. eigenvalues --   -0.64680  -0.62023  -0.61739  -0.60219  -0.58391
 Alpha  occ. eigenvalues --   -0.56214  -0.55115  -0.53470  -0.53227  -0.52982
 Alpha  occ. eigenvalues --   -0.52759  -0.50727  -0.48735  -0.48723  -0.48705
 Alpha  occ. eigenvalues --   -0.47418  -0.46516  -0.46409  -0.44736  -0.44576
 Alpha  occ. eigenvalues --   -0.37222  -0.36280
 Alpha virt. eigenvalues --    0.05147   0.11367   0.16621   0.20289   0.22378
 Alpha virt. eigenvalues --    0.23817   0.25698   0.26361   0.26483   0.27219
 Alpha virt. eigenvalues --    0.29364   0.30091   0.30820   0.31028   0.31906

 Mulliken charges:
               1
     1  C   -0.298935
     2  C   -0.300149
     3  C   -0.476112
     4  H    0.151171
     5  H    0.150105
     6  H    0.152994
     7  H    0.152032
     8  H    0.155643
     9  H    0.156009
    10  H    0.161864
    11  C   -0.299025
    12  C   -0.299811
    13  C   -0.480356
    14  H    0.151761
    15  H    0.148606
    16  H    0.156034
    17  H    0.152703
    18  H    0.148535
    19  H    0.162818
    20  H    0.156502
    21  C   -0.175147
    22  C   -0.221142
    23  C   -0.170719
    24  C    0.157980
    25  C   -0.170755
    26  C   -0.220816
    27  H    0.236183
    28  H    0.222209
    29  H    0.275152
    30  H    0.275173
    31  H    0.222933
    32  N    0.488097
    33  O   -0.460742
    34  O   -0.460795
 Sum of Mulliken charges =  -0.00000

 Dipole moment (field-independent basis, Debye):
    X=             -5.2316    Y=              1.4710    Z=             -0.8460  Tot=              5.5000
 Quadrupole moment (field-independent basis, Debye-Ang):
   XX=           -136.9820   YY=            -90.3904   ZZ=            -94.8869
   XY=              8.0502   XZ=             -4.1420   YZ=              1.1507

 Normal termination of Gaussian 16 at Wed May  5 15:40:38 2021.
