 Gaussian 16, Revision A.03,
 Gaussian 16:  EM64L-G16RevA.03 25-Dec-2016

 -------------
 #p 6-31g* mp2
 -------------

 ------------------------------------------------------
 Input file generated by CHIRIPA (05-May-2021 14:53:15)
 ------------------------------------------------------
 Symbolic Z-matrix:
 Charge =  0 Multiplicity = 1

                         Standard orientation:
 ---------------------------------------------------------------------
 Center     Atomic      Atomic             Coordinates (Angstroms)
 Number     Number       Type             X           Y           Z
 ---------------------------------------------------------------------
      1          6           0       -3.385992    1.106675    0.195693
      2          6           0       -2.610033    1.610072   -1.021872
      3          6           0       -1.906724    2.943152   -0.764877
      4          1           0       -4.126757    1.863152    0.488873
      5          1           0       -2.695321    1.000422    1.043678
      6          1           0       -3.301703    1.714023   -1.867688
      7          1           0       -1.871160    0.852225   -1.312304
      8          1           0       -1.194866    2.850091    0.061682
      9          1           0       -2.633537    3.716785   -0.496857
     10          1           0       -1.358128    3.284489   -1.648275
     11          6           0       -4.094544   -0.225027   -0.045662
     12          6           0       -4.870502   -0.728424    1.171904
     13          6           0       -5.573812   -2.061504    0.914909
     14          1           0       -4.785215   -0.118774   -0.893647
     15          1           0       -3.353779   -0.981504   -0.338841
     16          1           0       -5.609376    0.029423    1.462336
     17          1           0       -4.178833   -0.832376    2.017719
     18          1           0       -4.846999   -2.835137    0.646889
     19          1           0       -6.285670   -1.968443    0.088350
     20          1           0       -6.122407   -2.402842    1.798307
     21          6           0        4.759736    0.840217    1.200624
     22          6           0        3.547040    1.492317    0.954341
     23          6           0        2.521860    0.845660    0.257642
     24          6           0        2.744427   -0.458918   -0.180344
     25          6           0        3.941509   -1.135290    0.049446
     26          6           0        4.952760   -0.469198    0.748188
     27          1           0        5.550710    1.350104    1.742629
     28          1           0        3.394337    2.509222    1.304526
     29          1           0        1.573187    1.326962    0.053224
     30          1           0        4.064247   -2.149016   -0.312098
     31          1           0        5.893523   -0.978095    0.938012
     32          7           0        1.666488   -1.153792   -0.918989
     33          8           0        1.887461   -2.303107   -1.294334
     34          8           0        0.621037   -0.535963   -1.108608
 ---------------------------------------------------------------------

 SCF Done:  E(RHF) =  -669.536242334     A.U. after   15 cycles
 E2 =    -0.2091163925D+01 EUMP2 =    -0.67162740625866D+03

 The electronic state is 1-A.
 Alpha  occ. eigenvalues --  -20.60951 -20.60938 -15.85996 -11.31290 -11.27853
 Alpha  occ. eigenvalues --  -11.27845 -11.27588 -11.26857 -11.26845 -11.20965
 Alpha  occ. eigenvalues --  -11.20671 -11.20645 -11.20584 -11.20540 -11.20477
 Alpha  occ. eigenvalues --   -1.60015  -1.39572  -1.19458  -1.08867  -1.07666
 Alpha  occ. eigenvalues --   -1.04851  -1.02841  -0.95713  -0.95341  -0.86363
 Alpha  occ. eigenvalues --   -0.86251  -0.82551  -0.78891  -0.77616  -0.77449
 Alpha  occ. eigenvalues --   -0.72226  -0.71331  -0.70567  -0.65119  -0.64854
 Alpha  occ. eigenvalues --   -0.64276  -0.62199  -0.60225  -0.58699  -0.56937
 Alpha  occ. eigenvalues --   -0.55358  -0.54644  -0.53185  -0.52941  -0.52057
 Alpha  occ. eigenvalues --   -0.51768  -0.49294  -0.48975  -0.48960  -0.47219
 Alpha  occ. eigenvalues --   -0.45879  -0.45043  -0.44995  -0.44863  -0.43086
 Alpha  occ. eigenvalues --   -0.37438  -0.36452
 Alpha virt. eigenvalues --    0.04928   0.11202   0.16432   0.20543   0.23172
 Alpha virt. eigenvalues --    0.24298   0.26715   0.27466   0.28100   0.28355
 Alpha virt. eigenvalues --    0.29166   0.30745   0.31542   0.32263   0.32569

 Mulliken charges:
               1
     1  C   -0.295879
     2  C   -0.311848
     3  C   -0.474235
     4  H    0.144518
     5  H    0.146365
     6  H    0.148711
     7  H    0.182566
     8  H    0.145123
     9  H    0.152394
    10  H    0.158939
    11  C   -0.300607
    12  C   -0.298912
    13  C   -0.475647
    14  H    0.147692
    15  H    0.160232
    16  H    0.148975
    17  H    0.150326
    18  H    0.157549
    19  H    0.154330
    20  H    0.157461
    21  C   -0.170473
    22  C   -0.219122
    23  C   -0.172733
    24  C    0.157160
    25  C   -0.170515
    26  C   -0.218709
    27  H    0.226031
    28  H    0.224257
    29  H    0.278651
    30  H    0.275759
    31  H    0.223785
    32  N    0.496418
    33  O   -0.459041
    34  O   -0.469519
 Sum of Mulliken charges =  -0.00000

 Dipole moment (field-independent basis, Debye):
    X=              3.9967    Y=              2.2796    Z=              2.4949  Tot=              5.2340
 Quadrupole moment (field-independent basis, Debye-Ang):
   XX=            -72.8728   YY=            -95.1611   ZZ=            -96.4455
   XY=              1.7478   XZ=              7.0108   YZ=             -1.3055

 Normal termination of Gaussian 16 at Thu May  6 13:50:25 2021.
