 Gaussian 16, Revision A.03,
 Gaussian 16:  EM64L-G16RevA.03 25-Dec-2016

 -------------
 #p 6-31g* mp2
 -------------

 ------------------------------------------------------
 Input file generated by CHIRIPA (05-May-2021 14:53:17)
 ------------------------------------------------------
 Symbolic Z-matrix:
 Charge =  0 Multiplicity = 1

                         Standard orientation:
 ---------------------------------------------------------------------
 Center     Atomic      Atomic             Coordinates (Angstroms)
 Number     Number       Type             X           Y           Z
 ---------------------------------------------------------------------
      1          6           0       -3.698007    0.753310   -0.613042
      2          6           0       -3.063485    1.989048    0.025957
      3          6           0       -3.243336    3.250139   -0.819677
      4          1           0       -3.258021    0.595651   -1.607276
      5          1           0       -4.769202    0.940084   -0.771320
      6          1           0       -1.994082    1.799483    0.184253
      7          1           0       -3.504895    2.143673    1.018864
      8          1           0       -4.306324    3.466823   -0.967001
      9          1           0       -2.786927    3.120678   -1.806354
     10          1           0       -2.782199    4.121451   -0.344253
     11          6           0       -3.526557   -0.515360    0.220510
     12          6           0       -4.161079   -1.751097   -0.418488
     13          6           0       -3.981229   -3.012188    0.427146
     14          1           0       -2.455363   -0.702134    0.378789
     15          1           0       -3.966543   -0.357700    1.214744
     16          1           0       -3.719669   -1.905722   -1.411395
     17          1           0       -5.230483   -1.561532   -0.576784
     18          1           0       -4.437638   -2.882727    1.413823
     19          1           0       -2.918240   -3.228873    0.574469
     20          1           0       -4.442365   -3.883501   -0.048278
     21          6           0        0.486308    0.096350    1.088312
     22          6           0        0.812768   -0.957315    0.228233
     23          6           0        2.103806   -1.072124   -0.295777
     24          6           0        3.047911   -0.111250    0.062943
     25          6           0        2.753336    0.950009    0.917484
     26          6           0        1.455926    1.044978    1.429591
     27          1           0       -0.519077    0.177830    1.490752
     28          1           0        0.061781   -1.695486   -0.038536
     29          1           0        2.383616   -1.877718   -0.963715
     30          1           0        3.523348    1.670523    1.165196
     31          1           0        1.205230    1.864328    2.097319
     32          7           0        4.418049   -0.222291   -0.485503
     33          8           0        5.231747    0.637185   -0.154090
     34          8           0        4.652321   -1.166697   -1.236402
 ---------------------------------------------------------------------

 SCF Done:  E(RHF) =  -669.535026820     A.U. after   15 cycles
 E2 =    -0.2092832586D+01 EUMP2 =    -0.67162785940590D+03

 The electronic state is 1-A.
 Alpha  occ. eigenvalues --  -20.60766 -20.60761 -15.85821 -11.31194 -11.27765
 Alpha  occ. eigenvalues --  -11.27757 -11.27443 -11.26776 -11.26763 -11.22608
 Alpha  occ. eigenvalues --  -11.22545 -11.22539 -11.22309 -11.22009 -11.21787
 Alpha  occ. eigenvalues --   -1.59842  -1.39395  -1.19366  -1.09451  -1.08754
 Alpha  occ. eigenvalues --   -1.04769  -1.04454  -0.96898  -0.95593  -0.87907
 Alpha  occ. eigenvalues --   -0.86167  -0.82429  -0.80532  -0.79310  -0.77470
 Alpha  occ. eigenvalues --   -0.72038  -0.71165  -0.70497  -0.66102  -0.65013
 Alpha  occ. eigenvalues --   -0.64744  -0.62136  -0.61831  -0.60267  -0.58521
 Alpha  occ. eigenvalues --   -0.56197  -0.55277  -0.53546  -0.53319  -0.53096
 Alpha  occ. eigenvalues --   -0.52860  -0.50837  -0.48856  -0.48794  -0.48785
 Alpha  occ. eigenvalues --   -0.47574  -0.46777  -0.46714  -0.44799  -0.44732
 Alpha  occ. eigenvalues --   -0.37313  -0.36375
 Alpha virt. eigenvalues --    0.05021   0.11239   0.16390   0.19032   0.22560
 Alpha virt. eigenvalues --    0.22940   0.25331   0.25707   0.26661   0.27579
 Alpha virt. eigenvalues --    0.29609   0.30702   0.31011   0.31149   0.31622

 Mulliken charges:
               1
     1  C   -0.297829
     2  C   -0.305781
     3  C   -0.475702
     4  H    0.152960
     5  H    0.153730
     6  H    0.149535
     7  H    0.151180
     8  H    0.157547
     9  H    0.158572
    10  H    0.161295
    11  C   -0.304055
    12  C   -0.300712
    13  C   -0.475697
    14  H    0.140680
    15  H    0.151623
    16  H    0.153552
    17  H    0.156654
    18  H    0.157539
    19  H    0.149293
    20  H    0.164955
    21  C   -0.172942
    22  C   -0.222428
    23  C   -0.170906
    24  C    0.158507
    25  C   -0.170646
    26  C   -0.220126
    27  H    0.232365
    28  H    0.224200
    29  H    0.275644
    30  H    0.275646
    31  H    0.224057
    32  N    0.488045
    33  O   -0.460330
    34  O   -0.460424
 Sum of Mulliken charges =  -0.00000

 Dipole moment (field-independent basis, Debye):
    X=             -5.0336    Y=              0.4224    Z=              1.8556  Tot=              5.3814
 Quadrupole moment (field-independent basis, Debye-Ang):
   XX=           -122.7029   YY=            -92.3038   ZZ=            -93.8328
   XY=              2.9663   XZ=              6.2081   YZ=              2.7447

 Normal termination of Gaussian 16 at Thu May  6 13:56:36 2021.
