 Gaussian 16, Revision A.03,
 Gaussian 16:  EM64L-G16RevA.03 25-Dec-2016

 -------------
 #p 6-31g* mp2
 -------------

 ------------------------------------------------------
 Input file generated by CHIRIPA (05-May-2021 14:55:22)
 ------------------------------------------------------
 Symbolic Z-matrix:
 Charge =  0 Multiplicity = 1

                         Standard orientation:
 ---------------------------------------------------------------------
 Center     Atomic      Atomic             Coordinates (Angstroms)
 Number     Number       Type             X           Y           Z
 ---------------------------------------------------------------------
      1          6           0       -1.697460    1.823022   -1.209947
      2          6           0       -3.091342    1.859434   -1.099102
      3          6           0       -3.787665    0.782691   -0.542050
      4          6           0       -3.055059   -0.319473   -0.104087
      5          6           0       -1.665977   -0.385620   -0.200869
      6          6           0       -0.990472    0.702587   -0.761268
      7          1           0       -1.164626    2.663915   -1.643978
      8          1           0       -3.643008    2.728271   -1.446713
      9          1           0       -4.866478    0.784524   -0.444188
     10          1           0       -1.143549   -1.265513    0.154483
     11          1           0        0.092065    0.671546   -0.846089
     12          7           0       -3.781205   -1.465442    0.487410
     13          8           0       -3.112561   -2.424804    0.865796
     14          8           0       -5.005252   -1.382590    0.561439
     15          6           0        4.462207   -0.104825    0.146040
     16          6           0        4.486756   -1.430463   -0.615582
     17          6           0        5.904032   -1.961851   -0.831799
     18          1           0        5.053912    0.638603   -0.405454
     19          1           0        4.956676   -0.239209    1.118066
     20          1           0        3.991163   -1.293969   -1.585309
     21          1           0        3.894766   -2.170768   -0.062308
     22          1           0        6.404442   -2.126182    0.127985
     23          1           0        6.501386   -1.244402   -1.403669
     24          1           0        5.898225   -2.910192   -1.378131
     25          6           0        3.052368    0.439171    0.369987
     26          6           0        3.027819    1.764809    1.131608
     27          6           0        1.610543    2.296197    1.347827
     28          1           0        2.557899    0.573555   -0.602040
     29          1           0        2.460663   -0.304257    0.921481
     30          1           0        3.619809    2.505114    0.578335
     31          1           0        3.523413    1.628315    2.101336
     32          1           0        1.013189    1.578749    1.919697
     33          1           0        1.110133    2.460529    0.388042
     34          1           0        1.616350    3.244538    1.894157
 ---------------------------------------------------------------------

 SCF Done:  E(RHF) =  -669.534390298     A.U. after   15 cycles
 E2 =    -0.2092782417D+01 EUMP2 =    -0.67162717271483D+03

 The electronic state is 1-A.
 Alpha  occ. eigenvalues --  -20.60708 -20.60703 -15.85758 -11.31107 -11.27658
 Alpha  occ. eigenvalues --  -11.27634 -11.27392 -11.26694 -11.26595 -11.22434
 Alpha  occ. eigenvalues --  -11.22371 -11.22177 -11.22068 -11.21908 -11.21504
 Alpha  occ. eigenvalues --   -1.59783  -1.39337  -1.19267  -1.09220  -1.08670
 Alpha  occ. eigenvalues --   -1.04672  -1.04229  -0.96700  -0.95510  -0.87714
 Alpha  occ. eigenvalues --   -0.86075  -0.82345  -0.80315  -0.79062  -0.77376
 Alpha  occ. eigenvalues --   -0.71979  -0.71105  -0.70386  -0.65881  -0.64919
 Alpha  occ. eigenvalues --   -0.64683  -0.62083  -0.61574  -0.60046  -0.58316
 Alpha  occ. eigenvalues --   -0.56000  -0.55177  -0.53356  -0.53298  -0.52843
 Alpha  occ. eigenvalues --   -0.52768  -0.50642  -0.48777  -0.48734  -0.48544
 Alpha  occ. eigenvalues --   -0.47334  -0.46532  -0.46480  -0.44746  -0.44511
 Alpha  occ. eigenvalues --   -0.37231  -0.36234
 Alpha virt. eigenvalues --    0.05117   0.11327   0.16588   0.19760   0.22600
 Alpha virt. eigenvalues --    0.23969   0.25170   0.25746   0.26774   0.28219
 Alpha virt. eigenvalues --    0.29132   0.29882   0.30955   0.31422   0.31599

 Mulliken charges:
               1
     1  C   -0.173665
     2  C   -0.218209
     3  C   -0.171726
     4  C    0.159058
     5  C   -0.176495
     6  C   -0.219299
     7  H    0.224890
     8  H    0.223007
     9  H    0.275148
    10  H    0.275323
    11  H    0.234775
    12  N    0.488071
    13  O   -0.460724
    14  O   -0.460688
    15  C   -0.297588
    16  C   -0.300749
    17  C   -0.476236
    18  H    0.151087
    19  H    0.153303
    20  H    0.150495
    21  H    0.153763
    22  H    0.156864
    23  H    0.155606
    24  H    0.162611
    25  C   -0.303919
    26  C   -0.300255
    27  C   -0.476629
    28  H    0.141650
    29  H    0.150991
    30  H    0.153134
    31  H    0.156842
    32  H    0.160227
    33  H    0.145064
    34  H    0.164273
 Sum of Mulliken charges =  -0.00000

 Dipole moment (field-independent basis, Debye):
    X=              2.7789    Y=              4.0240    Z=             -1.9795  Tot=              5.2757
 Quadrupole moment (field-independent basis, Debye-Ang):
   XX=           -106.9251   YY=            -96.6669   ZZ=            -94.1689
   XY=            -15.2813   XZ=              7.2503   YZ=             -0.6041

 Normal termination of Gaussian 16 at Wed May  5 20:40:19 2021.
