 Gaussian 16, Revision A.03,
 Gaussian 16:  EM64L-G16RevA.03 25-Dec-2016

 -------------
 #p 6-31g* mp2
 -------------

 ------------------------------------------------------
 Input file generated by CHIRIPA (05-May-2021 14:53:13)
 ------------------------------------------------------
 Symbolic Z-matrix:
 Charge =  0 Multiplicity = 1

                         Standard orientation:
 ---------------------------------------------------------------------
 Center     Atomic      Atomic             Coordinates (Angstroms)
 Number     Number       Type             X           Y           Z
 ---------------------------------------------------------------------
      1          6           0       -2.373818   -0.904264   -0.464907
      2          6           0       -1.665486   -1.231252   -1.779947
      3          6           0       -0.678521   -2.391456   -1.647196
      4          1           0       -1.622064   -0.662459    0.298860
      5          1           0       -2.903779   -1.798876   -0.109654
      6          1           0       -1.138156   -0.335895   -2.133324
      7          1           0       -2.419022   -1.472120   -2.540723
      8          1           0       -1.193638   -3.299671   -1.317954
      9          1           0        0.094506   -2.156991   -0.908239
     10          1           0       -0.183464   -2.608290   -2.598911
     11          6           0       -3.363687    0.253440   -0.581555
     12          6           0       -4.072020    0.580429    0.733484
     13          6           0       -5.058984    1.740632    0.600733
     14          1           0       -2.833726    1.148053   -0.936808
     15          1           0       -4.115442    0.011636   -1.345323
     16          1           0       -3.318483    0.821297    1.494261
     17          1           0       -4.599350   -0.314928    1.086861
     18          1           0       -5.832011    1.506167   -0.138223
     19          1           0       -4.543868    2.648848    0.271492
     20          1           0       -5.554041    1.957467    1.552448
     21          6           0        3.228918    1.980642   -1.143599
     22          6           0        3.805148    0.709306   -1.053124
     23          6           0        3.266301   -0.255126   -0.196349
     24          6           0        2.145725    0.087324    0.558852
     25          6           0        1.548934    1.345300    0.490823
     26          6           0        2.104632    2.294029   -0.372695
     27          1           0        3.654052    2.723736   -1.811781
     28          1           0        4.678321    0.463131   -1.650627
     29          1           0        3.692388   -1.247017   -0.106796
     30          1           0        0.678922    1.561253    1.098985
     31          1           0        1.655026    3.280561   -0.440913
     32          7           0        1.566352   -0.925364    1.469451
     33          8           0        0.578778   -0.598804    2.124195
     34          8           0        2.110786   -2.026493    1.511191
 ---------------------------------------------------------------------

 SCF Done:  E(RHF) =  -669.536197884     A.U. after   15 cycles
 E2 =    -0.2093220196D+01 EUMP2 =    -0.67162941808002D+03

 The electronic state is 1-A.
 Alpha  occ. eigenvalues --  -20.61053 -20.61039 -15.86038 -11.31334 -11.27899
 Alpha  occ. eigenvalues --  -11.27883 -11.27618 -11.26892 -11.26878 -11.21194
 Alpha  occ. eigenvalues --  -11.21178 -11.21005 -11.20829 -11.20677 -11.20607
 Alpha  occ. eigenvalues --   -1.60092  -1.39649  -1.19499  -1.08911  -1.07974
 Alpha  occ. eigenvalues --   -1.04887  -1.03131  -0.95759  -0.95570  -0.86587
 Alpha  occ. eigenvalues --   -0.86290  -0.82592  -0.79183  -0.77789  -0.77618
 Alpha  occ. eigenvalues --   -0.72271  -0.71420  -0.70605  -0.65156  -0.64894
 Alpha  occ. eigenvalues --   -0.64604  -0.62235  -0.60538  -0.58940  -0.57174
 Alpha  occ. eigenvalues --   -0.55393  -0.54883  -0.53213  -0.52978  -0.52292
 Alpha  occ. eigenvalues --   -0.51988  -0.49552  -0.49038  -0.49023  -0.47493
 Alpha  occ. eigenvalues --   -0.46224  -0.45503  -0.45296  -0.44692  -0.43356
 Alpha  occ. eigenvalues --   -0.37468  -0.36480
 Alpha virt. eigenvalues --    0.04836   0.11125   0.16288   0.21061   0.22979
 Alpha virt. eigenvalues --    0.24469   0.26399   0.27306   0.27632   0.28116
 Alpha virt. eigenvalues --    0.28896   0.30987   0.31483   0.32160   0.32188

 Mulliken charges:
               1
     1  C   -0.308529
     2  C   -0.300207
     3  C   -0.474106
     4  H    0.165674
     5  H    0.151337
     6  H    0.146132
     7  H    0.149610
     8  H    0.158950
     9  H    0.154564
    10  H    0.155678
    11  C   -0.296962
    12  C   -0.300053
    13  C   -0.475093
    14  H    0.142014
    15  H    0.147703
    16  H    0.155586
    17  H    0.154004
    18  H    0.154377
    19  H    0.150960
    20  H    0.160212
    21  C   -0.170339
    22  C   -0.218352
    23  C   -0.170866
    24  C    0.156435
    25  C   -0.171463
    26  C   -0.218664
    27  H    0.226259
    28  H    0.224136
    29  H    0.276409
    30  H    0.275670
    31  H    0.224066
    32  N    0.489198
    33  O   -0.457598
    34  O   -0.456742
 Sum of Mulliken charges =  -0.00000

 Dipole moment (field-independent basis, Debye):
    X=              2.2154    Y=              3.4844    Z=             -3.0453  Tot=              5.1306
 Quadrupole moment (field-independent basis, Debye-Ang):
   XX=            -83.9785   YY=            -92.5295   ZZ=            -98.8290
   XY=              6.7438   XZ=             -7.1248   YZ=              2.6330

 Normal termination of Gaussian 16 at Thu May  6 15:23:38 2021.
