 Gaussian 16, Revision A.03,
 Gaussian 16:  EM64L-G16RevA.03 25-Dec-2016

 -------------
 #p 6-31g* mp2
 -------------

 ------------------------------------------------------
 Input file generated by CHIRIPA (05-May-2021 14:55:22)
 ------------------------------------------------------
 Symbolic Z-matrix:
 Charge =  0 Multiplicity = 1

                         Standard orientation:
 ---------------------------------------------------------------------
 Center     Atomic      Atomic             Coordinates (Angstroms)
 Number     Number       Type             X           Y           Z
 ---------------------------------------------------------------------
      1          6           0        0.595272    0.327332    1.275255
      2          6           0        1.427799   -0.706755    1.715804
      3          6           0        2.665238   -0.931086    1.105094
      4          6           0        3.040284   -0.098509    0.051792
      5          6           0        2.233029    0.939987   -0.409897
      6          6           0        0.999831    1.145960    0.215679
      7          1           0       -0.364353    0.494468    1.755444
      8          1           0        1.116205   -1.344080    2.538465
      9          1           0        3.329352   -1.724398    1.426071
     10          1           0        2.570955    1.558776   -1.232286
     11          1           0        0.355334    1.949804   -0.128563
     12          7           0        4.348061   -0.326281   -0.602609
     13          8           0        4.655417    0.421175   -1.528611
     14          8           0        5.040977   -1.247951   -0.177135
     15          6           0       -3.082393    0.609175   -0.074201
     16          6           0       -3.622821    2.038308   -0.133386
     17          6           0       -2.544054    3.089592    0.129024
     18          1           0       -2.631058    0.435177    0.912190
     19          1           0       -2.274878    0.499143   -0.811228
     20          1           0       -4.430009    2.145218    0.602571
     21          1           0       -4.073092    2.208862   -1.119684
     22          1           0       -1.741932    3.011758   -0.612017
     23          1           0       -2.100878    2.947753    1.120022
     24          1           0       -2.952177    4.104027    0.081933
     25          6           0       -4.148959   -0.453094   -0.334490
     26          6           0       -3.608531   -1.882226   -0.275304
     27          6           0       -4.687297   -2.933511   -0.537714
     28          1           0       -4.956473   -0.343061    0.402537
     29          1           0       -4.600294   -0.279096   -1.320879
     30          1           0       -3.158260   -2.052780    0.710994
     31          1           0       -2.801342   -1.989137   -1.011260
     32          1           0       -5.130475   -2.791672   -1.528712
     33          1           0       -5.489419   -2.855677    0.203327
     34          1           0       -4.279175   -3.947946   -0.490624
 ---------------------------------------------------------------------

 SCF Done:  E(RHF) =  -669.534781740     A.U. after   15 cycles
 E2 =    -0.2092866794D+01 EUMP2 =    -0.67162764853475D+03

 The electronic state is 1-A.
 Alpha  occ. eigenvalues --  -20.60685 -20.60680 -15.85737 -11.31073 -11.27649
 Alpha  occ. eigenvalues --  -11.27631 -11.27334 -11.26648 -11.26574 -11.22690
 Alpha  occ. eigenvalues --  -11.22513 -11.22425 -11.22321 -11.22213 -11.21638
 Alpha  occ. eigenvalues --   -1.59762  -1.39316  -1.19241  -1.09410  -1.08632
 Alpha  occ. eigenvalues --   -1.04648  -1.04466  -0.96947  -0.95480  -0.87965
 Alpha  occ. eigenvalues --   -0.86040  -0.82317  -0.80560  -0.79217  -0.77365
 Alpha  occ. eigenvalues --   -0.71956  -0.71085  -0.70358  -0.66033  -0.64888
 Alpha  occ. eigenvalues --   -0.64669  -0.62061  -0.61824  -0.60297  -0.58556
 Alpha  occ. eigenvalues --   -0.56258  -0.55172  -0.53600  -0.53440  -0.52963
 Alpha  occ. eigenvalues --   -0.52662  -0.50888  -0.48860  -0.48714  -0.48690
 Alpha  occ. eigenvalues --   -0.47565  -0.46724  -0.46620  -0.44728  -0.44718
 Alpha  occ. eigenvalues --   -0.37192  -0.36245
 Alpha virt. eigenvalues --    0.05155   0.11329   0.16616   0.19273   0.22459
 Alpha virt. eigenvalues --    0.23601   0.24067   0.25835   0.26681   0.28334
 Alpha virt. eigenvalues --    0.29336   0.30194   0.30857   0.31474   0.31794

 Mulliken charges:
               1
     1  C   -0.172849
     2  C   -0.219833
     3  C   -0.171115
     4  C    0.158585
     5  C   -0.173106
     6  C   -0.225610
     7  H    0.229386
     8  H    0.222718
     9  H    0.275042
    10  H    0.275309
    11  H    0.232631
    12  N    0.488031
    13  O   -0.460824
    14  O   -0.460871
    15  C   -0.303003
    16  C   -0.299649
    17  C   -0.482285
    18  H    0.141106
    19  H    0.153271
    20  H    0.155607
    21  H    0.157145
    22  H    0.152127
    23  H    0.151129
    24  H    0.168760
    25  C   -0.298592
    26  C   -0.299966
    27  C   -0.476334
    28  H    0.151075
    29  H    0.153215
    30  H    0.148225
    31  H    0.155316
    32  H    0.157159
    33  H    0.155699
    34  H    0.162499
 Sum of Mulliken charges =  -0.00000

 Dipole moment (field-independent basis, Debye):
    X=             -4.9034    Y=              0.8060    Z=              2.2117  Tot=              5.4391
 Quadrupole moment (field-independent basis, Debye-Ang):
   XX=           -122.9617   YY=            -92.6879   ZZ=            -92.1276
   XY=              1.4115   XZ=              7.4139   YZ=             -3.1336

 Normal termination of Gaussian 16 at Thu May  6 04:37:54 2021.
