 Gaussian 16, Revision A.03,
 Gaussian 16:  EM64L-G16RevA.03 25-Dec-2016

 -------------
 #p 6-31g* mp2
 -------------

 ------------------------------------------------------
 Input file generated by CHIRIPA (05-May-2021 14:55:19)
 ------------------------------------------------------
 Symbolic Z-matrix:
 Charge =  0 Multiplicity = 1

                         Standard orientation:
 ---------------------------------------------------------------------
 Center     Atomic      Atomic             Coordinates (Angstroms)
 Number     Number       Type             X           Y           Z
 ---------------------------------------------------------------------
      1          6           0        4.893483   -1.157230   -0.781400
      2          6           0        4.686616    0.218947   -0.922339
      3          6           0        3.540722    0.822299   -0.395612
      4          6           0        2.618234    0.015788    0.269104
      5          6           0        2.795958   -1.357943    0.425842
      6          6           0        3.949159   -1.939903   -0.108945
      7          1           0        5.786479   -1.617620   -1.193705
      8          1           0        5.418292    0.829252   -1.444089
      9          1           0        3.355526    1.885385   -0.490324
     10          1           0        2.048687   -1.940290    0.951082
     11          1           0        4.107190   -3.008902    0.002018
     12          7           0        1.401260    0.643207    0.830993
     13          8           0        0.603659   -0.089311    1.412274
     14          8           0        1.268040    1.855615    0.679481
     15          6           0       -3.510299    0.779480   -0.584447
     16          6           0       -2.651266    1.770201    0.202013
     17          6           0       -2.464750    3.100524   -0.528226
     18          1           0       -3.047244    0.599729   -1.564353
     19          1           0       -4.492245    1.231747   -0.780996
     20          1           0       -1.671715    1.315667    0.398218
     21          1           0       -3.116318    1.947468    1.180234
     22          1           0       -3.432497    3.578859   -0.710603
     23          1           0       -1.979686    2.943468   -1.497063
     24          1           0       -1.847590    3.793774    0.051756
     25          6           0       -3.705846   -0.555179    0.132613
     26          6           0       -4.564879   -1.545899   -0.653847
     27          6           0       -4.751395   -2.876222    0.076391
     28          1           0       -2.723899   -1.007445    0.329161
     29          1           0       -4.168900   -0.375427    1.112518
     30          1           0       -4.099826   -1.723166   -1.632069
     31          1           0       -5.544429   -1.091365   -0.850052
     32          1           0       -5.236459   -2.719166    1.045229
     33          1           0       -3.783648   -3.354557    0.258768
     34          1           0       -5.368555   -3.569473   -0.503589
 ---------------------------------------------------------------------

 SCF Done:  E(RHF) =  -669.536800336     A.U. after   15 cycles
 E2 =    -0.2091990293D+01 EUMP2 =    -0.67162879062885D+03

 The electronic state is 1-A.
 Alpha  occ. eigenvalues --  -20.61137 -20.61130 -15.86126 -11.31404 -11.27954
 Alpha  occ. eigenvalues --  -11.27949 -11.27680 -11.26945 -11.26935 -11.20780
 Alpha  occ. eigenvalues --  -11.20420 -11.20230 -11.20108 -11.19766 -11.19575
 Alpha  occ. eigenvalues --   -1.60170  -1.39725  -1.19560  -1.08975  -1.07224
 Alpha  occ. eigenvalues --   -1.04946  -1.02317  -0.95822  -0.94822  -0.86349
 Alpha  occ. eigenvalues --   -0.85855  -0.82658  -0.78413  -0.77722  -0.76950
 Alpha  occ. eigenvalues --   -0.72327  -0.71480  -0.70667  -0.65213  -0.64949
 Alpha  occ. eigenvalues --   -0.63868  -0.62292  -0.59728  -0.58224  -0.56385
 Alpha  occ. eigenvalues --   -0.55451  -0.54141  -0.53281  -0.53036  -0.51535
 Alpha  occ. eigenvalues --   -0.51244  -0.49198  -0.49098  -0.48785  -0.46702
 Alpha  occ. eigenvalues --   -0.45429  -0.45170  -0.44537  -0.44251  -0.42571
 Alpha  occ. eigenvalues --   -0.37533  -0.36543
 Alpha virt. eigenvalues --    0.04759   0.11113   0.16266   0.21252   0.23981
 Alpha virt. eigenvalues --    0.25497   0.27182   0.27777   0.28141   0.28830
 Alpha virt. eigenvalues --    0.29099   0.30847   0.32378   0.32511   0.32883

 Mulliken charges:
               1
     1  C   -0.170311
     2  C   -0.218643
     3  C   -0.170701
     4  C    0.160379
     5  C   -0.170754
     6  C   -0.218619
     7  H    0.226439
     8  H    0.224267
     9  H    0.276242
    10  H    0.275957
    11  H    0.224248
    12  N    0.487218
    13  O   -0.459387
    14  O   -0.458063
    15  C   -0.297254
    16  C   -0.309454
    17  C   -0.472698
    18  H    0.143555
    19  H    0.143648
    20  H    0.179812
    21  H    0.147568
    22  H    0.146169
    23  H    0.148705
    24  H    0.165299
    25  C   -0.299013
    26  C   -0.298530
    27  C   -0.474534
    28  H    0.156860
    29  H    0.148603
    30  H    0.148449
    31  H    0.149640
    32  H    0.154851
    33  H    0.153567
    34  H    0.156485
 Sum of Mulliken charges =  -0.00000

 Dipole moment (field-independent basis, Debye):
    X=              4.7600    Y=             -2.2149    Z=             -1.8219  Tot=              5.5572
 Quadrupole moment (field-independent basis, Debye-Ang):
   XX=            -73.0049   YY=            -92.3546   ZZ=            -96.1565
   XY=             -4.7660   XZ=             -5.6257   YZ=             -1.6000

 Normal termination of Gaussian 16 at Wed May  5 20:30:11 2021.
