 Gaussian 16, Revision A.03,
 Gaussian 16:  EM64L-G16RevA.03 25-Dec-2016

 -------------
 #p 6-31g* mp2
 -------------

 ------------------------------------------------------
 Input file generated by CHIRIPA (05-May-2021 14:51:14)
 ------------------------------------------------------
 Symbolic Z-matrix:
 Charge =  0 Multiplicity = 1

                         Standard orientation:
 ---------------------------------------------------------------------
 Center     Atomic      Atomic             Coordinates (Angstroms)
 Number     Number       Type             X           Y           Z
 ---------------------------------------------------------------------
      1          6           0        2.022862    0.767547   -0.664666
      2          6           0        2.551895    1.937361    0.165782
      3          6           0        2.050740    3.292262   -0.335099
      4          1           0        2.321231    0.905777   -1.712909
      5          1           0        0.924273    0.782237   -0.647841
      6          1           0        3.649167    1.919656    0.148533
      7          1           0        2.252395    1.796232    1.212203
      8          1           0        0.957274    3.334892   -0.301687
      9          1           0        2.361982    3.459017   -1.371401
     10          1           0        2.441045    4.114417    0.272834
     11          6           0        2.515098   -0.593651   -0.176227
     12          6           0        1.986065   -1.763465   -1.006675
     13          6           0        2.487220   -3.118366   -0.505794
     14          1           0        3.613687   -0.608341   -0.193052
     15          1           0        2.216729   -0.731881    0.872015
     16          1           0        2.285565   -1.622336   -2.053097
     17          1           0        0.888793   -1.745760   -0.989426
     18          1           0        2.175978   -3.285121    0.530508
     19          1           0        3.580686   -3.160995   -0.539207
     20          1           0        2.096915   -3.940521   -1.113728
     21          6           0       -2.276757   -0.263312   -0.322700
     22          6           0       -3.421535    0.398000   -1.090902
     23          6           0       -3.423712    0.035563   -2.576307
     24          1           0       -1.320574    0.033027   -0.775297
     25          1           0       -2.350997   -1.353862   -0.434874
     26          1           0       -3.345959    1.486917   -0.976169
     27          1           0       -4.375095    0.100205   -0.636306
     28          1           0       -3.522601   -1.046709   -2.708628
     29          1           0       -2.487618    0.347882   -3.050422
     30          1           0       -4.250252    0.519075   -3.106316
     31          6           0       -2.261203    0.089415    1.163593
     32          6           0       -1.116425   -0.571896    1.931795
     33          6           0       -1.114248   -0.209460    3.417201
     34          1           0       -2.186963    1.179966    1.275767
     35          1           0       -3.217386   -0.206924    1.616190
     36          1           0       -0.162865   -0.274101    1.477200
     37          1           0       -1.192001   -1.660814    1.817063
     38          1           0       -2.050342   -0.521779    3.891317
     39          1           0       -1.015358    0.872813    3.549521
     40          1           0       -0.287708   -0.692971    3.947209
 ---------------------------------------------------------------------

 SCF Done:  E(RHF) =  -470.732603562     A.U. after   11 cycles
 E2 =    -0.1585358386D+01 EUMP2 =    -0.47231796194827D+03

 The electronic state is 1-A.
 Alpha  occ. eigenvalues --  -11.21662 -11.21651 -11.21648 -11.21550 -11.21474
 Alpha  occ. eigenvalues --  -11.21421 -11.21412 -11.21350 -11.21142 -11.21128
 Alpha  occ. eigenvalues --  -11.21093 -11.21039  -1.08553  -1.08409  -1.03590
 Alpha  occ. eigenvalues --   -1.03537  -0.96040  -0.95997  -0.87055  -0.87008
 Alpha  occ. eigenvalues --   -0.79669  -0.79595  -0.78436  -0.78175  -0.65534
 Alpha  occ. eigenvalues --   -0.64746  -0.60984  -0.60935  -0.59403  -0.59360
 Alpha  occ. eigenvalues --   -0.57686  -0.57577  -0.55350  -0.55287  -0.52732
 Alpha  occ. eigenvalues --   -0.52681  -0.52465  -0.52420  -0.50035  -0.49899
 Alpha  occ. eigenvalues --   -0.47990  -0.47916  -0.46751  -0.46659  -0.46432
 Alpha  occ. eigenvalues --   -0.45787  -0.45697  -0.45062  -0.43845  -0.43788
 Alpha virt. eigenvalues --    0.19665   0.22901   0.23570   0.24473   0.25225
 Alpha virt. eigenvalues --    0.26316   0.26897   0.27651   0.28548   0.30851
 Alpha virt. eigenvalues --    0.31097   0.31376   0.31778   0.31842   0.32121

 Mulliken charges:
               1
     1  C   -0.308455
     2  C   -0.299800
     3  C   -0.475572
     4  H    0.150332
     5  H    0.156876
     6  H    0.152555
     7  H    0.151962
     8  H    0.154263
     9  H    0.155452
    10  H    0.160584
    11  C   -0.300726
    12  C   -0.303589
    13  C   -0.475773
    14  H    0.150227
    15  H    0.151448
    16  H    0.151479
    17  H    0.156841
    18  H    0.155423
    19  H    0.154914
    20  H    0.160066
    21  C   -0.308877
    22  C   -0.299020
    23  C   -0.475964
    24  H    0.158641
    25  H    0.149917
    26  H    0.151844
    27  H    0.152199
    28  H    0.155273
    29  H    0.155701
    30  H    0.160446
    31  C   -0.297411
    32  C   -0.309632
    33  C   -0.475554
    34  H    0.149001
    35  H    0.150225
    36  H    0.161600
    37  H    0.152040
    38  H    0.155706
    39  H    0.155224
    40  H    0.160133
 Sum of Mulliken charges =  -0.00000

 Dipole moment (field-independent basis, Debye):
    X=             -0.0162    Y=             -0.0002    Z=             -0.0041  Tot=              0.0167
 Quadrupole moment (field-independent basis, Debye-Ang):
   XX=            -83.8482   YY=            -85.2826   ZZ=            -85.5996
   XY=              0.8552   XZ=             -0.8192   YZ=             -0.1467

 Normal termination of Gaussian 16 at Wed May  5 23:15:37 2021.
