 Gaussian 16, Revision A.03,
 Gaussian 16:  EM64L-G16RevA.03 25-Dec-2016

 -------------
 #p 6-31g* mp2
 -------------

 ------------------------------------------------------
 Input file generated by CHIRIPA (05-May-2021 14:51:12)
 ------------------------------------------------------
 Symbolic Z-matrix:
 Charge =  0 Multiplicity = 1

                         Standard orientation:
 ---------------------------------------------------------------------
 Center     Atomic      Atomic             Coordinates (Angstroms)
 Number     Number       Type             X           Y           Z
 ---------------------------------------------------------------------
      1          6           0        4.383444   -0.252457    0.276813
      2          6           0        3.223740    0.599321   -0.240436
      3          6           0        1.877327    0.190692    0.357885
      4          1           0        4.184591   -1.308564    0.048687
      5          1           0        4.428255   -0.172266    1.371781
      6          1           0        3.181989    0.518644   -1.334220
      7          1           0        3.425468    1.653542   -0.011222
      8          1           0        1.894702    0.288417    1.448182
      9          1           0        1.649839   -0.852930    0.117668
     10          1           0        1.062331    0.812494   -0.025524
     11          6           0        5.736082    0.143983   -0.312198
     12          6           0        6.895786   -0.707795    0.205051
     13          6           0        8.242200   -0.299165   -0.393270
     14          1           0        5.691272    0.063792   -1.407166
     15          1           0        5.934936    1.200090   -0.084072
     16          1           0        6.694058   -1.762016   -0.024163
     17          1           0        6.937538   -0.627117    1.298835
     18          1           0        8.469687    0.744456   -0.153053
     19          1           0        8.224825   -0.396891   -1.483567
     20          1           0        9.057196   -0.920968   -0.009861
     21          6           0       -4.429251    0.410222   -0.225539
     22          6           0       -3.228373    0.217479    0.701135
     23          6           0       -1.974561    0.935618    0.201108
     24          1           0       -4.171905    0.045625   -1.229425
     25          1           0       -4.636695    1.484514   -0.326823
     26          1           0       -3.024117   -0.856194    0.801740
     27          1           0       -3.488673    0.582402    1.702979
     28          1           0       -2.154640    2.012304    0.117921
     29          1           0       -1.687444    0.565535   -0.788439
     30          1           0       -1.128297    0.784526    0.878506
     31          6           0       -5.690275   -0.301748    0.260924
     32          6           0       -6.891154   -0.109005   -0.665750
     33          6           0       -8.144966   -0.827144   -0.165723
     34          1           0       -5.482832   -1.376041    0.362208
     35          1           0       -5.947621    0.062848    1.264810
     36          1           0       -6.630854   -0.473927   -1.667593
     37          1           0       -7.095411    0.964667   -0.766355
     38          1           0       -8.432083   -0.457061    0.823824
     39          1           0       -7.964886   -1.903829   -0.082536
     40          1           0       -8.991230   -0.676052   -0.843122
 ---------------------------------------------------------------------

 SCF Done:  E(RHF) =  -470.732843096     A.U. after   11 cycles
 E2 =    -0.1582309451D+01 EUMP2 =    -0.47231515254645D+03

 The electronic state is 1-A.
 Alpha  occ. eigenvalues --  -11.21585 -11.21583 -11.21557 -11.21549 -11.21378
 Alpha  occ. eigenvalues --  -11.21374 -11.21318 -11.21314 -11.21058 -11.21056
 Alpha  occ. eigenvalues --  -11.20983 -11.20964  -1.08405  -1.08393  -1.03523
 Alpha  occ. eigenvalues --   -1.03470  -0.96017  -0.95881  -0.87087  -0.86853
 Alpha  occ. eigenvalues --   -0.79646  -0.79482  -0.78220  -0.78206  -0.65035
 Alpha  occ. eigenvalues --   -0.65026  -0.60912  -0.60879  -0.59606  -0.59084
 Alpha  occ. eigenvalues --   -0.57609  -0.57497  -0.55266  -0.55204  -0.53082
 Alpha  occ. eigenvalues --   -0.52432  -0.52336  -0.52145  -0.49920  -0.49853
 Alpha  occ. eigenvalues --   -0.47889  -0.47863  -0.46613  -0.46577  -0.45762
 Alpha  occ. eigenvalues --   -0.45747  -0.45685  -0.45678  -0.44006  -0.43439
 Alpha virt. eigenvalues --    0.22693   0.22951   0.23785   0.24646   0.26651
 Alpha virt. eigenvalues --    0.26669   0.27008   0.27412   0.27597   0.28878
 Alpha virt. eigenvalues --    0.30684   0.30801   0.31497   0.31538   0.32211

 Mulliken charges:
               1
     1  C   -0.298449
     2  C   -0.299848
     3  C   -0.480958
     4  H    0.149431
     5  H    0.149337
     6  H    0.151684
     7  H    0.151767
     8  H    0.153652
     9  H    0.154610
    10  H    0.168842
    11  C   -0.298203
    12  C   -0.299573
    13  C   -0.475674
    14  H    0.149433
    15  H    0.149583
    16  H    0.151862
    17  H    0.151867
    18  H    0.155152
    19  H    0.155143
    20  H    0.160172
    21  C   -0.298513
    22  C   -0.299732
    23  C   -0.480614
    24  H    0.149520
    25  H    0.149357
    26  H    0.152079
    27  H    0.151678
    28  H    0.154279
    29  H    0.154787
    30  H    0.167528
    31  C   -0.298244
    32  C   -0.299589
    33  C   -0.475680
    34  H    0.149480
    35  H    0.149589
    36  H    0.151879
    37  H    0.151873
    38  H    0.155153
    39  H    0.155156
    40  H    0.160183
 Sum of Mulliken charges =  -0.00000

 Dipole moment (field-independent basis, Debye):
    X=             -0.0089    Y=              0.0076    Z=              0.0028  Tot=              0.0121
 Quadrupole moment (field-independent basis, Debye-Ang):
   XX=            -87.0595   YY=            -83.8947   ZZ=            -84.0958
   XY=             -0.7432   XZ=              0.5205   YZ=              1.1540

 Normal termination of Gaussian 16 at Thu May  6 02:20:43 2021.
