 Gaussian 16, Revision A.03,
 Gaussian 16:  EM64L-G16RevA.03 25-Dec-2016

 -------------
 #p 6-31g* mp2
 -------------

 ------------------------------------------------------
 Input file generated by CHIRIPA (05-May-2021 14:55:25)
 ------------------------------------------------------
 Symbolic Z-matrix:
 Charge =  0 Multiplicity = 1

                         Standard orientation:
 ---------------------------------------------------------------------
 Center     Atomic      Atomic             Coordinates (Angstroms)
 Number     Number       Type             X           Y           Z
 ---------------------------------------------------------------------
      1          6           0        2.669034    2.825163   -0.188108
      2          6           0        2.898626    2.011651   -1.302561
      3          6           0        2.874526    0.619009   -1.182084
      4          6           0        2.616570    0.071057    0.073502
      5          6           0        2.383983    0.854871    1.202586
      6          6           0        2.412896    2.245199    1.058711
      7          1           0        2.689625    3.906102   -0.290785
      8          1           0        3.097801    2.459295   -2.272092
      9          1           0        3.048882   -0.034352   -2.028334
     10          1           0        2.188125    0.379516    2.156051
     11          1           0        2.234237    2.874513    1.925942
     12          7           0        2.588508   -1.402046    0.213431
     13          8           0        2.358977   -1.860205    1.330589
     14          8           0        2.796575   -2.070611   -0.796701
     15          6           0       -3.068494   -1.064328   -0.314003
     16          6           0       -1.648637   -1.336540    0.183887
     17          6           0       -1.088922   -2.665822   -0.323579
     18          1           0       -3.725393   -1.885602    0.003703
     19          1           0       -3.071450   -1.068909   -1.412804
     20          1           0       -1.648096   -1.330074    1.281418
     21          1           0       -0.995081   -0.514427   -0.134876
     22          1           0       -1.060490   -2.679181   -1.417935
     23          1           0       -1.717215   -3.499462    0.006407
     24          1           0       -0.073022   -2.840297    0.044344
     25          6           0       -3.641765    0.260892    0.184876
     26          6           0       -5.061621    0.533103   -0.313015
     27          6           0       -5.621336    1.862385    0.194452
     28          1           0       -3.638808    0.265473    1.283677
     29          1           0       -2.984865    1.082166   -0.132830
     30          1           0       -5.715177   -0.289010    0.005749
     31          1           0       -5.062162    0.526638   -1.410546
     32          1           0       -4.993043    2.696026   -0.135534
     33          1           0       -5.649767    1.875743    1.288807
     34          1           0       -6.637236    2.036861   -0.173470
 ---------------------------------------------------------------------

 SCF Done:  E(RHF) =  -669.536327928     A.U. after   15 cycles
 E2 =    -0.2092047761D+01 EUMP2 =    -0.67162837568821D+03

 The electronic state is 1-A.
 Alpha  occ. eigenvalues --  -20.60932 -20.60924 -15.85946 -11.31285 -11.27841
 Alpha  occ. eigenvalues --  -11.27837 -11.27577 -11.26843 -11.26832 -11.21487
 Alpha  occ. eigenvalues --  -11.21200 -11.21073 -11.21048 -11.20996 -11.20056
 Alpha  occ. eigenvalues --   -1.59989  -1.39540  -1.19446  -1.08849  -1.08126
 Alpha  occ. eigenvalues --   -1.04839  -1.03147  -0.95693  -0.95567  -0.86580
 Alpha  occ. eigenvalues --   -0.86239  -0.82523  -0.79234  -0.77932  -0.77577
 Alpha  occ. eigenvalues --   -0.72165  -0.71330  -0.70551  -0.65098  -0.64841
 Alpha  occ. eigenvalues --   -0.64767  -0.62185  -0.60555  -0.58958  -0.57162
 Alpha  occ. eigenvalues --   -0.55344  -0.54872  -0.53183  -0.52930  -0.52201
 Alpha  occ. eigenvalues --   -0.51991  -0.49531  -0.48933  -0.48926  -0.47521
 Alpha  occ. eigenvalues --   -0.46298  -0.45469  -0.45395  -0.44944  -0.43373
 Alpha  occ. eigenvalues --   -0.37413  -0.36436
 Alpha virt. eigenvalues --    0.04909   0.11214   0.16397   0.21347   0.23101
 Alpha virt. eigenvalues --    0.24646   0.26865   0.27261   0.27654   0.28169
 Alpha virt. eigenvalues --    0.28526   0.30891   0.31666   0.31975   0.32473

 Mulliken charges:
               1
     1  C   -0.170549
     2  C   -0.218789
     3  C   -0.171312
     4  C    0.160082
     5  C   -0.170199
     6  C   -0.218622
     7  H    0.225986
     8  H    0.223739
     9  H    0.275964
    10  H    0.276182
    11  H    0.223956
    12  N    0.487767
    13  O   -0.460332
    14  O   -0.458939
    15  C   -0.297254
    16  C   -0.300430
    17  C   -0.485339
    18  H    0.150125
    19  H    0.148321
    20  H    0.152227
    21  H    0.144551
    22  H    0.152416
    23  H    0.152825
    24  H    0.182784
    25  C   -0.297464
    26  C   -0.299262
    27  C   -0.475285
    28  H    0.148507
    29  H    0.146595
    30  H    0.152617
    31  H    0.151454
    32  H    0.153072
    33  H    0.154710
    34  H    0.159897
 Sum of Mulliken charges =  -0.00000

 Dipole moment (field-independent basis, Debye):
    X=              0.2919    Y=              5.1237    Z=             -0.4655  Tot=              5.1531
 Quadrupole moment (field-independent basis, Debye-Ang):
   XX=            -95.3630   YY=            -94.9675   ZZ=            -89.5016
   XY=             14.3932   XZ=             -2.6672   YZ=              0.1701

 Normal termination of Gaussian 16 at Wed May  5 22:26:22 2021.
