 Gaussian 16, Revision A.03,
 Gaussian 16:  EM64L-G16RevA.03 25-Dec-2016

 -------------
 #p 6-31g* mp2
 -------------

 ------------------------------------------------------
 Input file generated by CHIRIPA (05-May-2021 14:51:12)
 ------------------------------------------------------
 Symbolic Z-matrix:
 Charge =  0 Multiplicity = 1

                         Standard orientation:
 ---------------------------------------------------------------------
 Center     Atomic      Atomic             Coordinates (Angstroms)
 Number     Number       Type             X           Y           Z
 ---------------------------------------------------------------------
      1          6           0        4.389380   -0.163094    0.056652
      2          6           0        5.044181    1.208671   -0.109127
      3          6           0        6.567128    1.155741    0.015865
      4          1           0        4.664123   -0.577491    1.036313
      5          1           0        4.796540   -0.849674   -0.698479
      6          1           0        4.634893    1.892835    0.645207
      7          1           0        4.767691    1.619934   -1.088428
      8          1           0        6.993451    0.495051   -0.745935
      9          1           0        6.859899    0.769502    0.997550
     10          1           0        7.014633    2.147089   -0.105909
     11          6           0        2.867074   -0.126495   -0.065719
     12          6           0        2.212274   -1.498260    0.100059
     13          6           0        0.689326   -1.445330   -0.024932
     14          1           0        2.459914    0.560085    0.689412
     15          1           0        2.592331    0.287902   -1.045380
     16          1           0        2.488764   -1.909524    1.079361
     17          1           0        2.621562   -2.182424   -0.654274
     18          1           0        0.396555   -1.059092   -1.006617
     19          1           0        0.263003   -0.784640    0.736868
     20          1           0        0.241821   -2.436678    0.096842
     21          6           0       -3.140262   -0.436505    0.090631
     22          6           0       -3.781026   -1.805410   -0.140678
     23          6           0       -2.792213   -2.958283    0.035181
     24          1           0       -2.299689   -0.309885   -0.605322
     25          1           0       -2.715068   -0.404850    1.103352
     26          1           0       -4.206100   -1.833987   -1.152169
     27          1           0       -4.620291   -1.928709    0.555776
     28          1           0       -2.376478   -2.958133    1.047982
     29          1           0       -1.959934   -2.862873   -0.669667
     30          1           0       -3.271289   -3.927544   -0.134754
     31          6           0       -4.116192    0.726094   -0.081564
     32          6           0       -3.475428    2.095000    0.149745
     33          6           0       -4.464242    3.247871   -0.026114
     34          1           0       -4.541386    0.694440   -1.094285
     35          1           0       -4.956765    0.599474    0.614389
     36          1           0       -2.636163    2.218298   -0.546709
     37          1           0       -3.050355    2.123577    1.161236
     38          1           0       -5.296521    3.152463    0.678734
     39          1           0       -4.879975    3.247722   -1.038915
     40          1           0       -3.985166    4.217134    0.143821
 ---------------------------------------------------------------------

 SCF Done:  E(RHF) =  -470.732286424     A.U. after   11 cycles
 E2 =    -0.1583445828D+01 EUMP2 =    -0.47231573225163D+03

 The electronic state is 1-A.
 Alpha  occ. eigenvalues --  -11.21587 -11.21564 -11.21540 -11.21526 -11.21378
 Alpha  occ. eigenvalues --  -11.21330 -11.21318 -11.21252 -11.21060 -11.21044
 Alpha  occ. eigenvalues --  -11.20956 -11.20944  -1.08408  -1.08356  -1.03531
 Alpha  occ. eigenvalues --   -1.03436  -0.95982  -0.95886  -0.87024  -0.86892
 Alpha  occ. eigenvalues --   -0.79703  -0.79423  -0.78266  -0.78097  -0.65048
 Alpha  occ. eigenvalues --   -0.64983  -0.60944  -0.60829  -0.59462  -0.59195
 Alpha  occ. eigenvalues --   -0.57739  -0.57356  -0.55259  -0.55186  -0.52877
 Alpha  occ. eigenvalues --   -0.52631  -0.52450  -0.52031  -0.49917  -0.49832
 Alpha  occ. eigenvalues --   -0.47879  -0.47830  -0.46673  -0.46504  -0.45895
 Alpha  occ. eigenvalues --   -0.45722  -0.45598  -0.45520  -0.43731  -0.43653
 Alpha virt. eigenvalues --    0.22074   0.23027   0.23727   0.24720   0.25856
 Alpha virt. eigenvalues --    0.26384   0.27053   0.27182   0.27963   0.29561
 Alpha virt. eigenvalues --    0.30673   0.31133   0.31458   0.31795   0.32116

 Mulliken charges:
               1
     1  C   -0.298160
     2  C   -0.299565
     3  C   -0.475673
     4  H    0.149576
     5  H    0.149419
     6  H    0.151888
     7  H    0.151816
     8  H    0.155141
     9  H    0.155153
    10  H    0.160179
    11  C   -0.298379
    12  C   -0.300941
    13  C   -0.478340
    14  H    0.149465
    15  H    0.149187
    16  H    0.151592
    17  H    0.151380
    18  H    0.152794
    19  H    0.157193
    20  H    0.165901
    21  C   -0.300812
    22  C   -0.299734
    23  C   -0.478713
    24  H    0.154859
    25  H    0.149080
    26  H    0.151239
    27  H    0.151275
    28  H    0.154935
    29  H    0.160521
    30  H    0.158966
    31  C   -0.298248
    32  C   -0.299501
    33  C   -0.475619
    34  H    0.149135
    35  H    0.149275
    36  H    0.151971
    37  H    0.151480
    38  H    0.155095
    39  H    0.155099
    40  H    0.160068
 Sum of Mulliken charges =  -0.00000

 Dipole moment (field-independent basis, Debye):
    X=              0.0049    Y=             -0.0164    Z=             -0.0002  Tot=              0.0171
 Quadrupole moment (field-independent basis, Debye-Ang):
   XX=            -86.6348   YY=            -85.7281   ZZ=            -82.7624
   XY=              0.3973   XZ=             -0.4147   YZ=              0.1879

 Normal termination of Gaussian 16 at Wed May  5 23:10:53 2021.
