 Gaussian 16, Revision A.03,
 Gaussian 16:  EM64L-G16RevA.03 25-Dec-2016

 -------------
 #p 6-31g* mp2
 -------------

 ------------------------------------------------------
 Input file generated by CHIRIPA (05-May-2021 14:55:25)
 ------------------------------------------------------
 Symbolic Z-matrix:
 Charge =  0 Multiplicity = 1

                         Standard orientation:
 ---------------------------------------------------------------------
 Center     Atomic      Atomic             Coordinates (Angstroms)
 Number     Number       Type             X           Y           Z
 ---------------------------------------------------------------------
      1          6           0       -4.444744   -1.013419   -1.326401
      2          6           0       -3.880928   -1.868205   -0.373524
      3          6           0       -2.893934   -1.404051    0.501092
      4          6           0       -2.492603   -0.073310    0.394538
      5          6           0       -3.035241    0.802834   -0.544187
      6          6           0       -4.020848    0.317026   -1.408546
      7          1           0       -5.210925   -1.382396   -2.001840
      8          1           0       -4.208188   -2.901926   -0.307443
      9          1           0       -2.440589   -2.044178    1.248175
     10          1           0       -2.688541    1.828246   -0.585977
     11          1           0       -4.456948    0.983130   -2.147578
     12          7           0       -1.448451    0.429531    1.315026
     13          8           0       -1.112162    1.606180    1.200820
     14          8           0       -0.986106   -0.362513    2.133281
     15          6           0        3.479022   -0.520294   -0.065720
     16          6           0        4.747666   -1.212953   -0.564470
     17          6           0        4.869927   -2.653123   -0.065713
     18          1           0        3.470555   -0.531365    1.032801
     19          1           0        2.602438   -1.097582   -0.390888
     20          1           0        5.621542   -0.633781   -0.239636
     21          1           0        4.753207   -1.200064   -1.661929
     22          1           0        4.016574   -3.250964   -0.401830
     23          1           0        4.889842   -2.681464    1.028545
     24          1           0        5.783910   -3.129338   -0.434111
     25          6           0        3.342590    0.920127   -0.555926
     26          6           0        2.073945    1.612787   -0.057177
     27          6           0        1.951684    3.052955   -0.555934
     28          1           0        4.219174    1.497415   -0.230759
     29          1           0        3.351057    0.931197   -1.654448
     30          1           0        2.068404    1.599896    1.040283
     31          1           0        1.200070    1.033614   -0.382011
     32          1           0        1.931769    3.081298   -1.650192
     33          1           0        2.805037    3.650798   -0.219817
     34          1           0        1.037702    3.529171   -0.187536
 ---------------------------------------------------------------------

 SCF Done:  E(RHF) =  -669.535773722     A.U. after   15 cycles
 E2 =    -0.2092067270D+01 EUMP2 =    -0.67162784099190D+03

 The electronic state is 1-A.
 Alpha  occ. eigenvalues --  -20.60932 -20.60918 -15.85940 -11.31288 -11.27851
 Alpha  occ. eigenvalues --  -11.27847 -11.27589 -11.26860 -11.26851 -11.20975
 Alpha  occ. eigenvalues --  -11.20555 -11.20547 -11.20410 -11.20249 -11.19917
 Alpha  occ. eigenvalues --   -1.59978  -1.39536  -1.19456  -1.08857  -1.07525
 Alpha  occ. eigenvalues --   -1.04854  -1.02606  -0.95699  -0.95094  -0.86253
 Alpha  occ. eigenvalues --   -0.86129  -0.82532  -0.78691  -0.77585  -0.77287
 Alpha  occ. eigenvalues --   -0.72173  -0.71290  -0.70563  -0.65111  -0.64856
 Alpha  occ. eigenvalues --   -0.64174  -0.62200  -0.60024  -0.58468  -0.56651
 Alpha  occ. eigenvalues --   -0.55356  -0.54423  -0.53184  -0.52945  -0.51791
 Alpha  occ. eigenvalues --   -0.51516  -0.49089  -0.48954  -0.48926  -0.47000
 Alpha  occ. eigenvalues --   -0.45769  -0.45146  -0.44748  -0.44531  -0.42859
 Alpha  occ. eigenvalues --   -0.37435  -0.36456
 Alpha virt. eigenvalues --    0.04924   0.11193   0.16395   0.21297   0.23655
 Alpha virt. eigenvalues --    0.25102   0.27232   0.27435   0.27963   0.28433
 Alpha virt. eigenvalues --    0.28945   0.30837   0.32087   0.32193   0.32583

 Mulliken charges:
               1
     1  C   -0.170645
     2  C   -0.218582
     3  C   -0.170921
     4  C    0.157627
     5  C   -0.170987
     6  C   -0.218555
     7  H    0.225983
     8  H    0.223829
     9  H    0.275940
    10  H    0.275861
    11  H    0.223878
    12  N    0.488722
    13  O   -0.458353
    14  O   -0.458750
    15  C   -0.296783
    16  C   -0.298838
    17  C   -0.474901
    18  H    0.154390
    19  H    0.146430
    20  H    0.151010
    21  H    0.149025
    22  H    0.153104
    23  H    0.156230
    24  H    0.157560
    25  C   -0.299537
    26  C   -0.290275
    27  C   -0.478947
    28  H    0.146682
    29  H    0.143626
    30  H    0.165073
    31  H    0.144827
    32  H    0.145744
    33  H    0.150748
    34  H    0.169783
 Sum of Mulliken charges =  -0.00000

 Dipole moment (field-independent basis, Debye):
    X=             -3.9347    Y=             -1.7415    Z=             -3.0333  Tot=              5.2645
 Quadrupole moment (field-independent basis, Debye-Ang):
   XX=            -77.6877   YY=            -91.7842   ZZ=            -96.5315
   XY=              4.9766   XZ=              7.9638   YZ=             -1.8579

 Normal termination of Gaussian 16 at Thu May  6 06:22:51 2021.
