 Gaussian 16, Revision A.03,
 Gaussian 16:  EM64L-G16RevA.03 25-Dec-2016

 -------------
 #p 6-31g* mp2
 -------------

 ------------------------------------------------------
 Input file generated by CHIRIPA (05-May-2021 14:53:13)
 ------------------------------------------------------
 Symbolic Z-matrix:
 Charge =  0 Multiplicity = 1

                         Standard orientation:
 ---------------------------------------------------------------------
 Center     Atomic      Atomic             Coordinates (Angstroms)
 Number     Number       Type             X           Y           Z
 ---------------------------------------------------------------------
      1          6           0        2.686684    0.528478   -0.452576
      2          6           0        2.699744    2.052447   -0.576404
      3          6           0        1.327399    2.628934   -0.925867
      4          1           0        2.334403    0.093168   -1.397747
      5          1           0        1.958508    0.236304    0.316703
      6          1           0        3.428680    2.341729   -1.344247
      7          1           0        3.052217    2.484172    0.369108
      8          1           0        0.593120    2.369082   -0.156508
      9          1           0        0.971722    2.225830   -1.879598
     10          1           0        1.359615    3.719728   -1.009474
     11          6           0        4.051397   -0.062691   -0.103569
     12          6           0        4.038337   -1.586659    0.020260
     13          6           0        5.410682   -2.163147    0.369723
     14          1           0        4.779573    0.229484   -0.872847
     15          1           0        4.403678    0.372619    0.841602
     16          1           0        3.685864   -2.018385   -0.925252
     17          1           0        3.309400   -1.875942    0.788103
     18          1           0        5.766358   -1.760043    1.323454
     19          1           0        6.144961   -1.903295   -0.399636
     20          1           0        5.378466   -3.253941    0.453329
     21          6           0       -3.499895   -2.338197   -0.764276
     22          6           0       -2.637907   -2.367303    0.336929
     23          6           0       -2.150898   -1.178775    0.888987
     24          6           0       -2.548164    0.026510    0.312134
     25          6           0       -3.405645    0.088325   -0.785225
     26          6           0       -3.880343   -1.112636   -1.320856
     27          1           0       -3.873434   -3.266304   -1.186747
     28          1           0       -2.340762   -3.317632    0.771241
     29          1           0       -1.482395   -1.172351    1.741325
     30          1           0       -3.684100    1.051031   -1.196418
     31          1           0       -4.549650   -1.086997   -2.176084
     32          7           0       -2.039106    1.291334    0.887878
     33          8           0       -2.404086    2.340213    0.361306
     34          8           0       -1.284766    1.209873    1.854818
 ---------------------------------------------------------------------

 SCF Done:  E(RHF) =  -669.536322548     A.U. after   15 cycles
 E2 =    -0.2091632542D+01 EUMP2 =    -0.67162795509046D+03

 The electronic state is 1-A.
 Alpha  occ. eigenvalues --  -20.60945 -20.60930 -15.85951 -11.31265 -11.27830
 Alpha  occ. eigenvalues --  -11.27823 -11.27566 -11.26832 -11.26823 -11.21404
 Alpha  occ. eigenvalues --  -11.21002 -11.20921 -11.20863 -11.20803 -11.20015
 Alpha  occ. eigenvalues --   -1.59996  -1.39549  -1.19432  -1.08840  -1.07957
 Alpha  occ. eigenvalues --   -1.04827  -1.03005  -0.95685  -0.95438  -0.86455
 Alpha  occ. eigenvalues --   -0.86228  -0.82520  -0.79103  -0.77756  -0.77575
 Alpha  occ. eigenvalues --   -0.72172  -0.71324  -0.70544  -0.65088  -0.64832
 Alpha  occ. eigenvalues --   -0.64583  -0.62175  -0.60389  -0.58857  -0.57054
 Alpha  occ. eigenvalues --   -0.55337  -0.54711  -0.53157  -0.52920  -0.52128
 Alpha  occ. eigenvalues --   -0.51870  -0.49426  -0.48940  -0.48889  -0.47397
 Alpha  occ. eigenvalues --   -0.46134  -0.45294  -0.45223  -0.44918  -0.43263
 Alpha  occ. eigenvalues --   -0.37408  -0.36425
 Alpha virt. eigenvalues --    0.04911   0.11221   0.16405   0.21328   0.23303
 Alpha virt. eigenvalues --    0.24862   0.26845   0.27331   0.27762   0.28425
 Alpha virt. eigenvalues --    0.28574   0.30883   0.31926   0.32193   0.32417

 Mulliken charges:
               1
     1  C   -0.299659
     2  C   -0.298482
     3  C   -0.482052
     4  H    0.145249
     5  H    0.152641
     6  H    0.147607
     7  H    0.154103
     8  H    0.172904
     9  H    0.147055
    10  H    0.160953
    11  C   -0.297789
    12  C   -0.298737
    13  C   -0.475332
    14  H    0.148437
    15  H    0.151020
    16  H    0.149613
    17  H    0.149573
    18  H    0.155890
    19  H    0.155131
    20  H    0.157846
    21  C   -0.170476
    22  C   -0.218455
    23  C   -0.170546
    24  C    0.159526
    25  C   -0.170584
    26  C   -0.218682
    27  H    0.225932
    28  H    0.223812
    29  H    0.275432
    30  H    0.276023
    31  H    0.223749
    32  N    0.487219
    33  O   -0.457560
    34  O   -0.461360
 Sum of Mulliken charges =  -0.00000

 Dipole moment (field-independent basis, Debye):
    X=             -1.9906    Y=             -4.3873    Z=             -1.9467  Tot=              5.1962
 Quadrupole moment (field-independent basis, Debye-Ang):
   XX=            -86.0084   YY=            -94.3201   ZZ=            -93.3664
   XY=             10.5935   XZ=              6.6158   YZ=             -3.0644

 Normal termination of Gaussian 16 at Wed May  5 15:31:24 2021.
