 Gaussian 16, Revision A.03,
 Gaussian 16:  EM64L-G16RevA.03 25-Dec-2016

 -------------
 #p 6-31g* mp2
 -------------

 ------------------------------------------------------
 Input file generated by CHIRIPA (05-May-2021 14:55:22)
 ------------------------------------------------------
 Symbolic Z-matrix:
 Charge =  0 Multiplicity = 1

                         Standard orientation:
 ---------------------------------------------------------------------
 Center     Atomic      Atomic             Coordinates (Angstroms)
 Number     Number       Type             X           Y           Z
 ---------------------------------------------------------------------
      1          6           0        4.243450    0.816129   -0.376588
      2          6           0        3.976378   -0.316649   -1.152478
      3          6           0        2.868096   -1.122324   -0.874720
      4          6           0        2.044204   -0.764130    0.191201
      5          6           0        2.283770    0.358207    0.982565
      6          6           0        3.397785    1.149355    0.686583
      7          1           0        5.106617    1.436354   -0.599435
      8          1           0        4.631406   -0.577859   -1.978766
      9          1           0        2.637933   -2.004822   -1.459220
     10          1           0        1.612615    0.593068    1.799761
     11          1           0        3.602744    2.028505    1.290845
     12          7           0        0.867881   -1.609372    0.494897
     13          8           0        0.157387   -1.272252    1.439454
     14          8           0        0.678646   -2.592987   -0.217372
     15          6           0       -2.729096    1.548786   -0.117307
     16          6           0       -1.247315    1.908437   -0.231162
     17          6           0       -0.991971    3.410440   -0.102404
     18          1           0       -3.290880    2.085572   -0.893970
     19          1           0       -3.112616    1.905370    0.848692
     20          1           0       -0.866363    1.550059   -1.196075
     21          1           0       -0.688966    1.370585    0.545740
     22          1           0       -1.345200    3.779642    0.865852
     23          1           0       -1.523603    3.960136   -0.885859
     24          1           0        0.073694    3.645182   -0.186750
     25          6           0       -3.000378    0.050763   -0.244033
     26          6           0       -4.482159   -0.308887   -0.130177
     27          6           0       -4.737502   -1.810890   -0.258936
     28          1           0       -2.616856   -0.305820   -1.210032
     29          1           0       -2.438593   -0.486022    0.532629
     30          1           0       -5.040508    0.228965   -0.907080
     31          1           0       -4.863111    0.049491    0.834735
     32          1           0       -4.205870   -2.360586    0.524519
     33          1           0       -4.384274   -2.180093   -1.227193
     34          1           0       -5.803167   -2.045632   -0.174590
 ---------------------------------------------------------------------

 SCF Done:  E(RHF) =  -669.536370131     A.U. after   15 cycles
 E2 =    -0.2093478202D+01 EUMP2 =    -0.67162984833230D+03

 The electronic state is 1-A.
 Alpha  occ. eigenvalues --  -20.61029 -20.61016 -15.86019 -11.31300 -11.27866
 Alpha  occ. eigenvalues --  -11.27859 -11.27592 -11.26860 -11.26850 -11.21114
 Alpha  occ. eigenvalues --  -11.20892 -11.20672 -11.20653 -11.20178 -11.20048
 Alpha  occ. eigenvalues --   -1.60058  -1.39622  -1.19466  -1.08877  -1.07624
 Alpha  occ. eigenvalues --   -1.04860  -1.02829  -0.95729  -0.95268  -0.86306
 Alpha  occ. eigenvalues --   -0.86246  -0.82571  -0.78938  -0.77650  -0.77351
 Alpha  occ. eigenvalues --   -0.72257  -0.71348  -0.70583  -0.65131  -0.64870
 Alpha  occ. eigenvalues --   -0.64242  -0.62218  -0.60229  -0.58695  -0.56874
 Alpha  occ. eigenvalues --   -0.55368  -0.54552  -0.53177  -0.52954  -0.52032
 Alpha  occ. eigenvalues --   -0.51688  -0.49300  -0.49012  -0.48936  -0.47235
 Alpha  occ. eigenvalues --   -0.46016  -0.45423  -0.44912  -0.44263  -0.43030
 Alpha  occ. eigenvalues --   -0.37428  -0.36441
 Alpha virt. eigenvalues --    0.04842   0.11132   0.16321   0.21126   0.23605
 Alpha virt. eigenvalues --    0.24869   0.26821   0.27528   0.27719   0.28651
 Alpha virt. eigenvalues --    0.28973   0.30804   0.31684   0.32150   0.32251

 Mulliken charges:
               1
     1  C   -0.170364
     2  C   -0.218538
     3  C   -0.170819
     4  C    0.160774
     5  C   -0.169388
     6  C   -0.219487
     7  H    0.226104
     8  H    0.223831
     9  H    0.275755
    10  H    0.275295
    11  H    0.224150
    12  N    0.489544
    13  O   -0.460345
    14  O   -0.457559
    15  C   -0.295863
    16  C   -0.307120
    17  C   -0.475348
    18  H    0.145517
    19  H    0.147694
    20  H    0.148606
    21  H    0.158745
    22  H    0.154034
    23  H    0.155231
    24  H    0.152741
    25  C   -0.310545
    26  C   -0.298830
    27  C   -0.475685
    28  H    0.146277
    29  H    0.177008
    30  H    0.146596
    31  H    0.149369
    32  H    0.162601
    33  H    0.154802
    34  H    0.155214
 Sum of Mulliken charges =  -0.00000

 Dipole moment (field-independent basis, Debye):
    X=              4.3446    Y=              2.7221    Z=             -0.9731  Tot=              5.2185
 Quadrupole moment (field-independent basis, Debye-Ang):
   XX=            -78.8755   YY=            -99.4877   ZZ=            -91.6628
   XY=              2.1508   XZ=             -2.7942   YZ=              3.9298

 Normal termination of Gaussian 16 at Thu May  6 06:16:04 2021.
