 Gaussian 16, Revision A.03,
 Gaussian 16:  EM64L-G16RevA.03 25-Dec-2016

 -------------
 #p 6-31g* mp2
 -------------

 ------------------------------------------------------
 Input file generated by CHIRIPA (05-May-2021 14:55:19)
 ------------------------------------------------------
 Symbolic Z-matrix:
 Charge =  0 Multiplicity = 1

                         Standard orientation:
 ---------------------------------------------------------------------
 Center     Atomic      Atomic             Coordinates (Angstroms)
 Number     Number       Type             X           Y           Z
 ---------------------------------------------------------------------
      1          6           0       -0.904066   -0.484171    1.148936
      2          6           0       -1.856914   -1.496629    1.302332
      3          6           0       -3.128059   -1.367208    0.734892
      4          6           0       -3.413752   -0.206780    0.017204
      5          6           0       -2.485870    0.819514   -0.153229
      6          6           0       -1.221026    0.668636    0.422925
      7          1           0        0.080943   -0.593042    1.593122
      8          1           0       -1.613542   -2.393011    1.865639
      9          1           0       -3.884662   -2.135527    0.838117
     10          1           0       -2.757812    1.701516   -0.720271
     11          1           0       -0.483017    1.456548    0.302168
     12          7           0       -4.756121   -0.058411   -0.588132
     13          8           0       -4.983048    0.973684   -1.215765
     14          8           0       -5.555925   -0.977022   -0.423499
     15          6           0        4.137246   -0.400180   -0.459903
     16          6           0        5.456591   -1.107714   -0.148924
     17          6           0        5.543293   -2.499341   -0.776341
     18          1           0        3.303323   -1.018563   -0.100568
     19          1           0        4.020126   -0.320094   -1.549519
     20          1           0        5.571845   -1.185208    0.939803
     21          1           0        6.287478   -0.487485   -0.508869
     22          1           0        5.453848   -2.437031   -1.865707
     23          1           0        4.734149   -3.138717   -0.408803
     24          1           0        6.494473   -2.987102   -0.541384
     25          6           0        4.035588    0.992137    0.160458
     26          6           0        2.716242    1.699671   -0.150520
     27          6           0        2.629541    3.091298    0.476897
     28          1           0        4.152708    0.912051    1.250075
     29          1           0        4.869510    1.610520   -0.198876
     30          1           0        1.885356    1.079443    0.209425
     31          1           0        2.600990    1.777164   -1.239248
     32          1           0        3.438685    3.730674    0.109359
     33          1           0        2.718986    3.028988    1.566263
     34          1           0        1.678360    3.579059    0.241941
 ---------------------------------------------------------------------

 SCF Done:  E(RHF) =  -669.535233631     A.U. after   15 cycles
 E2 =    -0.2091708831D+01 EUMP2 =    -0.67162694246200D+03

 The electronic state is 1-A.
 Alpha  occ. eigenvalues --  -20.60737 -20.60732 -15.85790 -11.31154 -11.27721
 Alpha  occ. eigenvalues --  -11.27706 -11.27466 -11.26746 -11.26690 -11.22769
 Alpha  occ. eigenvalues --  -11.22324 -11.22284 -11.22191 -11.22146 -11.21649
 Alpha  occ. eigenvalues --   -1.59813  -1.39366  -1.19323  -1.09335  -1.08722
 Alpha  occ. eigenvalues --   -1.04728  -1.04416  -0.96842  -0.95559  -0.87852
 Alpha  occ. eigenvalues --   -0.86131  -0.82388  -0.80504  -0.79124  -0.77433
 Alpha  occ. eigenvalues --   -0.72009  -0.71135  -0.70448  -0.66005  -0.64976
 Alpha  occ. eigenvalues --   -0.64743  -0.62168  -0.61729  -0.60215  -0.58450
 Alpha  occ. eigenvalues --   -0.56115  -0.55234  -0.53543  -0.53262  -0.53055
 Alpha  occ. eigenvalues --   -0.52809  -0.50774  -0.48830  -0.48764  -0.48734
 Alpha  occ. eigenvalues --   -0.47533  -0.46658  -0.46568  -0.44772  -0.44663
 Alpha  occ. eigenvalues --   -0.37304  -0.36321
 Alpha virt. eigenvalues --    0.05091   0.11282   0.16571   0.19112   0.22328
 Alpha virt. eigenvalues --    0.23461   0.24728   0.25708   0.26329   0.28410
 Alpha virt. eigenvalues --    0.29363   0.29826   0.30860   0.31338   0.32205

 Mulliken charges:
               1
     1  C   -0.173225
     2  C   -0.218415
     3  C   -0.171233
     4  C    0.158779
     5  C   -0.171957
     6  C   -0.222349
     7  H    0.225418
     8  H    0.223146
     9  H    0.275459
    10  H    0.275644
    11  H    0.231202
    12  N    0.488028
    13  O   -0.460428
    14  O   -0.460515
    15  C   -0.297947
    16  C   -0.300355
    17  C   -0.475957
    18  H    0.144968
    19  H    0.152728
    20  H    0.151749
    21  H    0.154145
    22  H    0.157012
    23  H    0.154316
    24  H    0.162389
    25  C   -0.298696
    26  C   -0.305084
    27  C   -0.478136
    28  H    0.149278
    29  H    0.153965
    30  H    0.142366
    31  H    0.157370
    32  H    0.161721
    33  H    0.156781
    34  H    0.157832
 Sum of Mulliken charges =  -0.00000

 Dipole moment (field-independent basis, Debye):
    X=              4.9703    Y=             -0.4852    Z=              2.0685  Tot=              5.4054
 Quadrupole moment (field-independent basis, Debye-Ang):
   XX=           -126.2474   YY=            -91.2923   ZZ=            -94.1572
   XY=              2.7488   XZ=             -8.2663   YZ=             -3.1427

 Normal termination of Gaussian 16 at Thu May  6 04:29:55 2021.
