 Gaussian 16, Revision A.03,
 Gaussian 16:  EM64L-G16RevA.03 25-Dec-2016

 -------------
 #p 6-31g* mp2
 -------------

 ------------------------------------------------------
 Input file generated by CHIRIPA (05-May-2021 14:51:12)
 ------------------------------------------------------
 Symbolic Z-matrix:
 Charge =  0 Multiplicity = 1

                         Standard orientation:
 ---------------------------------------------------------------------
 Center     Atomic      Atomic             Coordinates (Angstroms)
 Number     Number       Type             X           Y           Z
 ---------------------------------------------------------------------
      1          6           0        4.178575    0.596192   -0.081038
      2          6           0        3.630075    2.014324    0.080304
      3          6           0        4.733961    3.068412    0.170461
      4          1           0        4.838521    0.366485    0.766695
      5          1           0        4.803083    0.552619   -0.984082
      6          1           0        3.005666    2.054860    0.982017
      7          1           0        2.971207    2.240612   -0.767814
      8          1           0        5.352130    3.057113   -0.733055
      9          1           0        5.386785    2.870306    1.026718
     10          1           0        4.319593    4.074858    0.285459
     11          6           0        3.087120   -0.468736   -0.172591
     12          6           0        3.635621   -1.886869   -0.333933
     13          6           0        2.531734   -2.940956   -0.424091
     14          1           0        2.462613   -0.425164    0.730452
     15          1           0        2.427175   -0.239029   -1.020325
     16          1           0        4.294488   -2.113157    0.514185
     17          1           0        4.260029   -1.927405   -1.235646
     18          1           0        1.878911   -2.742850   -1.280348
     19          1           0        1.913565   -2.929658    0.479425
     20          1           0        2.946103   -3.947402   -0.539089
     21          6           0       -4.394145   -0.076153    0.187667
     22          6           0       -5.076201    1.111944   -0.491458
     23          6           0       -6.599120    1.072986   -0.361101
     24          1           0       -4.777157   -1.008977   -0.248320
     25          1           0       -4.671830   -0.090870    1.250715
     26          1           0       -4.796208    1.125219   -1.552611
     27          1           0       -4.691380    2.042053   -0.053936
     28          1           0       -6.895957    1.083341    0.692645
     29          1           0       -7.001382    0.161297   -0.814544
     30          1           0       -7.066304    1.931486   -0.853622
     31          6           0       -2.871550   -0.051302    0.065962
     32          6           0       -2.189494   -1.239399    0.745088
     33          6           0       -0.666576   -1.200441    0.614731
     34          1           0       -2.593865   -0.036586   -0.997086
     35          1           0       -2.488538    0.881522    0.501950
     36          1           0       -2.574317   -2.169509    0.307566
     37          1           0       -2.469487   -1.252674    1.806240
     38          1           0       -0.264314   -0.288753    1.068174
     39          1           0       -0.369739   -1.210796   -0.439016
     40          1           0       -0.199392   -2.058942    1.107251
 ---------------------------------------------------------------------

 SCF Done:  E(RHF) =  -470.732190302     A.U. after   11 cycles
 E2 =    -0.1583564129D+01 EUMP2 =    -0.47231575443051D+03

 The electronic state is 1-A.
 Alpha  occ. eigenvalues --  -11.21588 -11.21565 -11.21542 -11.21518 -11.21381
 Alpha  occ. eigenvalues --  -11.21325 -11.21322 -11.21243 -11.21061 -11.21045
 Alpha  occ. eigenvalues --  -11.20973 -11.20940  -1.08411  -1.08352  -1.03532
 Alpha  occ. eigenvalues --   -1.03433  -0.95978  -0.95886  -0.87013  -0.86896
 Alpha  occ. eigenvalues --   -0.79704  -0.79419  -0.78270  -0.78084  -0.65050
 Alpha  occ. eigenvalues --   -0.64982  -0.60929  -0.60863  -0.59430  -0.59201
 Alpha  occ. eigenvalues --   -0.57681  -0.57422  -0.55256  -0.55186  -0.52798
 Alpha  occ. eigenvalues --   -0.52624  -0.52432  -0.52151  -0.49908  -0.49828
 Alpha  occ. eigenvalues --   -0.47921  -0.47794  -0.46641  -0.46518  -0.45899
 Alpha  occ. eigenvalues --   -0.45722  -0.45579  -0.45519  -0.43729  -0.43662
 Alpha virt. eigenvalues --    0.21916   0.23053   0.23635   0.24730   0.25445
 Alpha virt. eigenvalues --    0.26341   0.26817   0.27344   0.27933   0.29140
 Alpha virt. eigenvalues --    0.29726   0.31229   0.31607   0.32044   0.32345

 Mulliken charges:
               1
     1  C   -0.298294
     2  C   -0.299405
     3  C   -0.475611
     4  H    0.149236
     5  H    0.149143
     6  H    0.151308
     7  H    0.151925
     8  H    0.155156
     9  H    0.155081
    10  H    0.160023
    11  C   -0.300548
    12  C   -0.299856
    13  C   -0.477037
    14  H    0.154478
    15  H    0.149530
    16  H    0.151187
    17  H    0.151196
    18  H    0.154661
    19  H    0.159128
    20  H    0.158748
    21  C   -0.298169
    22  C   -0.299577
    23  C   -0.475677
    24  H    0.149609
    25  H    0.149443
    26  H    0.151826
    27  H    0.151893
    28  H    0.155153
    29  H    0.155159
    30  H    0.160186
    31  C   -0.298504
    32  C   -0.301081
    33  C   -0.475935
    34  H    0.149207
    35  H    0.149578
    36  H    0.151773
    37  H    0.151241
    38  H    0.154879
    39  H    0.157517
    40  H    0.161430
 Sum of Mulliken charges =  -0.00000

 Dipole moment (field-independent basis, Debye):
    X=             -0.0107    Y=             -0.0066    Z=              0.0075  Tot=              0.0147
 Quadrupole moment (field-independent basis, Debye-Ang):
   XX=            -86.7904   YY=            -85.3793   ZZ=            -82.9830
   XY=             -0.4132   XZ=              0.0942   YZ=              0.2631

 Normal termination of Gaussian 16 at Wed May  5 23:10:11 2021.
