 Gaussian 16, Revision A.03,
 Gaussian 16:  EM64L-G16RevA.03 25-Dec-2016

 -------------
 #p 6-31g* mp2
 -------------

 ------------------------------------------------------
 Input file generated by CHIRIPA (05-May-2021 14:53:14)
 ------------------------------------------------------
 Symbolic Z-matrix:
 Charge =  0 Multiplicity = 1

                         Standard orientation:
 ---------------------------------------------------------------------
 Center     Atomic      Atomic             Coordinates (Angstroms)
 Number     Number       Type             X           Y           Z
 ---------------------------------------------------------------------
      1          6           0       -3.716802    0.551650    0.181618
      2          6           0       -3.285269    1.944306   -0.279111
      3          6           0       -2.028453    2.440608    0.436356
      4          1           0       -3.893211    0.569381    1.265828
      5          1           0       -2.893076   -0.155161    0.010483
      6          1           0       -4.110063    2.648011   -0.108436
      7          1           0       -3.110052    1.923305   -1.362381
      8          1           0       -1.189009    1.761269    0.256264
      9          1           0       -2.194702    2.490093    1.517334
     10          1           0       -1.737737    3.437921    0.091812
     11          6           0       -4.971815    0.041766   -0.524562
     12          6           0       -5.403349   -1.350891   -0.063833
     13          6           0       -6.660165   -1.847192   -0.779300
     14          1           0       -5.795542    0.748577   -0.353427
     15          1           0       -4.795406    0.024035   -1.608771
     16          1           0       -5.578566   -1.329889    1.019437
     17          1           0       -4.578555   -2.054596   -0.234508
     18          1           0       -6.493916   -1.896677   -1.860278
     19          1           0       -7.499609   -1.167853   -0.599208
     20          1           0       -6.950881   -2.844505   -0.434755
     21          6           0        5.482232   -0.157023   -1.280103
     22          6           0        4.699074    0.991765   -1.126901
     23          6           0        3.539991    0.961920   -0.345757
     24          6           0        3.192108   -0.239033    0.270669
     25          6           0        3.951628   -1.400328    0.137210
     26          6           0        5.106672   -1.347305   -0.648672
     27          1           0        6.381067   -0.124836   -1.888754
     28          1           0        4.988307    1.917545   -1.616105
     29          1           0        2.915379    1.836511   -0.210229
     30          1           0        3.637679   -2.308529    0.637235
     31          1           0        5.712963   -2.241016   -0.765877
     32          7           0        1.967177   -0.282897    1.100139
     33          8           0        1.682328   -1.353316    1.632775
     34          8           0        1.315120    0.753971    1.201935
 ---------------------------------------------------------------------

 SCF Done:  E(RHF) =  -669.535966040     A.U. after   15 cycles
 E2 =    -0.2090704957D+01 EUMP2 =    -0.67162667099693D+03

 The electronic state is 1-A.
 Alpha  occ. eigenvalues --  -20.60924 -20.60916 -15.85955 -11.31283 -11.27848
 Alpha  occ. eigenvalues --  -11.27843 -11.27588 -11.26858 -11.26847 -11.20941
 Alpha  occ. eigenvalues --  -11.20646 -11.20615 -11.20547 -11.20404 -11.19689
 Alpha  occ. eigenvalues --   -1.59986  -1.39542  -1.19454  -1.08857  -1.07587
 Alpha  occ. eigenvalues --   -1.04851  -1.02660  -0.95698  -0.95087  -0.86251
 Alpha  occ. eigenvalues --   -0.86096  -0.82530  -0.78736  -0.77584  -0.77367
 Alpha  occ. eigenvalues --   -0.72177  -0.71303  -0.70562  -0.65109  -0.64853
 Alpha  occ. eigenvalues --   -0.64227  -0.62197  -0.60061  -0.58502  -0.56696
 Alpha  occ. eigenvalues --   -0.55355  -0.54366  -0.53183  -0.52942  -0.51806
 Alpha  occ. eigenvalues --   -0.51487  -0.49077  -0.48937  -0.48868  -0.47029
 Alpha  occ. eigenvalues --   -0.45799  -0.45021  -0.44898  -0.44719  -0.42928
 Alpha  occ. eigenvalues --   -0.37434  -0.36453
 Alpha virt. eigenvalues --    0.04915   0.11202   0.16388   0.21324   0.23668
 Alpha virt. eigenvalues --    0.25212   0.27243   0.27487   0.28068   0.28375
 Alpha virt. eigenvalues --    0.29030   0.30868   0.32157   0.32452   0.32674

 Mulliken charges:
               1
     1  C   -0.297774
     2  C   -0.299641
     3  C   -0.480966
     4  H    0.150857
     5  H    0.154066
     6  H    0.147162
     7  H    0.146396
     8  H    0.176008
     9  H    0.155965
    10  H    0.150755
    11  C   -0.297685
    12  C   -0.299184
    13  C   -0.475225
    14  H    0.147295
    15  H    0.146856
    16  H    0.152376
    17  H    0.152775
    18  H    0.153545
    19  H    0.153981
    20  H    0.158826
    21  C   -0.170630
    22  C   -0.218561
    23  C   -0.170933
    24  C    0.157727
    25  C   -0.170782
    26  C   -0.218587
    27  H    0.225956
    28  H    0.223872
    29  H    0.276221
    30  H    0.275799
    31  H    0.223761
    32  N    0.490046
    33  O   -0.459105
    34  O   -0.461172
 Sum of Mulliken charges =  -0.00000

 Dipole moment (field-independent basis, Debye):
    X=              4.6136    Y=              0.0733    Z=             -2.8324  Tot=              5.4142
 Quadrupole moment (field-independent basis, Debye-Ang):
   XX=            -69.1798   YY=            -90.7380   ZZ=            -96.6319
   XY=             -1.9506   XZ=             -9.3997   YZ=             -0.2281

 Normal termination of Gaussian 16 at Wed May  5 20:14:35 2021.
