 Gaussian 16, Revision A.03,
 Gaussian 16:  EM64L-G16RevA.03 25-Dec-2016

 -------------
 #p 6-31g* mp2
 -------------

 ------------------------------------------------------
 Input file generated by CHIRIPA (05-May-2021 14:57:26)
 ------------------------------------------------------
 Symbolic Z-matrix:
 Charge =  0 Multiplicity = 1

                         Standard orientation:
 ---------------------------------------------------------------------
 Center     Atomic      Atomic             Coordinates (Angstroms)
 Number     Number       Type             X           Y           Z
 ---------------------------------------------------------------------
      1          6           0        5.416197    1.184952   -0.237056
      2          6           0        5.344179   -0.076792   -0.836503
      3          6           0        4.251016   -0.914957   -0.597708
      4          6           0        3.243178   -0.457393    0.249752
      5          6           0        3.286117    0.794337    0.861813
      6          6           0        4.388748    1.615730    0.608697
      7          1           0        6.269070    1.829544   -0.428120
      8          1           0        6.140645   -0.413964   -1.493772
      9          1           0        4.169837   -1.896501   -1.048706
     10          1           0        2.476728    1.102799    1.512318
     11          1           0        4.442013    2.595120    1.075606
     12          7           0        2.080884   -1.335843    0.510133
     13          8           0        1.206007   -0.909387    1.260708
     14          8           0        2.066764   -2.434194   -0.041285
     15          6           0       -1.272203    1.512225   -0.707134
     16          6           0       -2.363305    2.221014   -0.193678
     17          6           0       -3.566400    1.566649    0.087242
     18          6           0       -3.643804    0.196640   -0.158471
     19          6           0       -2.574406   -0.537210   -0.669492
     20          6           0       -1.381044    0.137799   -0.942986
     21          1           0       -0.341390    2.028570   -0.922474
     22          1           0       -2.281648    3.288470   -0.009519
     23          1           0       -4.426706    2.090958    0.485224
     24          1           0       -2.686053   -1.600686   -0.842617
     25          1           0       -0.535317   -0.415215   -1.341692
     26          7           0       -4.912316   -0.507034    0.134995
     27          8           0       -4.954972   -1.714535   -0.090303
     28          8           0       -5.839899    0.162251    0.584755
 ---------------------------------------------------------------------

 SCF Done:  E(RHF) =  -868.337953936     A.U. after   16 cycles
 E2 =    -0.2599999673D+01 EUMP2 =    -0.87093795360898D+03

 The electronic state is 1-A.
 Alpha  occ. eigenvalues --  -20.61693 -20.61661 -20.60069 -20.60051 -15.86698
 Alpha  occ. eigenvalues --  -15.85111 -11.32015 -11.30389 -11.28576 -11.28544
 Alpha  occ. eigenvalues --  -11.28262 -11.27557 -11.27525 -11.26989 -11.26853
 Alpha  occ. eigenvalues --  -11.26744 -11.26062 -11.25904  -1.60763  -1.59138
 Alpha  occ. eigenvalues --   -1.40307  -1.38694  -1.20175  -1.18551  -1.09576
 Alpha  occ. eigenvalues --   -1.07989  -1.05556  -1.03934  -0.96417  -0.94837
 Alpha  occ. eigenvalues --   -0.86953  -0.85365  -0.83239  -0.81664  -0.78308
 Alpha  occ. eigenvalues --   -0.76709  -0.72904  -0.72118  -0.71336  -0.71254
 Alpha  occ. eigenvalues --   -0.70455  -0.69725  -0.65813  -0.65540  -0.64222
 Alpha  occ. eigenvalues --   -0.63966  -0.62896  -0.61291  -0.56036  -0.54535
 Alpha  occ. eigenvalues --   -0.53901  -0.53632  -0.52268  -0.52054  -0.49684
 Alpha  occ. eigenvalues --   -0.49670  -0.48095  -0.48085  -0.45711  -0.44118
 Alpha  occ. eigenvalues --   -0.38151  -0.37166  -0.36545  -0.35474
 Alpha virt. eigenvalues --    0.04184   0.05816   0.10473   0.12139   0.15720
 Alpha virt. eigenvalues --    0.17324   0.20677   0.22000   0.26593   0.27473
 Alpha virt. eigenvalues --    0.27929   0.28858   0.30394   0.31274   0.32029

 Mulliken charges:
               1
     1  C   -0.170391
     2  C   -0.218299
     3  C   -0.171398
     4  C    0.155411
     5  C   -0.175139
     6  C   -0.218819
     7  H    0.228229
     8  H    0.226235
     9  H    0.277232
    10  H    0.276149
    11  H    0.225031
    12  N    0.483967
    13  O   -0.456220
    14  O   -0.460111
    15  C   -0.170869
    16  C   -0.218719
    17  C   -0.172275
    18  C    0.158167
    19  C   -0.168875
    20  C   -0.204391
    21  H    0.217231
    22  H    0.218001
    23  H    0.272536
    24  H    0.278304
    25  H    0.224186
    26  N    0.488116
    27  O   -0.459676
    28  O   -0.463611
 Sum of Mulliken charges =  -0.00000

 Dipole moment (field-independent basis, Debye):
    X=              8.8796    Y=              5.3864    Z=             -1.9212  Tot=             10.5618
 Quadrupole moment (field-independent basis, Debye-Ang):
   XX=           -110.0681   YY=           -101.2812   ZZ=           -104.0105
   XY=             -2.9196   XZ=             -1.1078   YZ=              4.6770

 Normal termination of Gaussian 16 at Thu May  6 03:35:02 2021.
