 Gaussian 16, Revision A.03,
 Gaussian 16:  EM64L-G16RevA.03 25-Dec-2016

 -------------
 #p 6-31g* mp2
 -------------

 ------------------------------------------------------
 Input file generated by CHIRIPA (05-May-2021 14:57:27)
 ------------------------------------------------------
 Symbolic Z-matrix:
 Charge =  0 Multiplicity = 1

                         Standard orientation:
 ---------------------------------------------------------------------
 Center     Atomic      Atomic             Coordinates (Angstroms)
 Number     Number       Type             X           Y           Z
 ---------------------------------------------------------------------
      1          6           0        0.503060    0.467996    1.651494
      2          6           0        0.767549   -0.857152    1.290177
      3          6           0        1.935912   -1.183978    0.595440
      4          6           0        2.821868   -0.155983    0.276697
      5          6           0        2.586550    1.173741    0.622745
      6          6           0        1.411803    1.477434    1.317214
      7          1           0       -0.407033    0.712897    2.191078
      8          1           0        0.063606   -1.643154    1.548460
      9          1           0        2.165552   -2.201528    0.303420
     10          1           0        3.307227    1.935566    0.351332
     11          1           0        1.209005    2.507434    1.596528
     12          7           0        4.062141   -0.489733   -0.458649
     13          8           0        4.826669    0.434253   -0.727690
     14          8           0        4.246255   -1.668994   -0.752047
     15          6           0       -1.559764    2.332889   -0.913426
     16          6           0       -1.018046    1.160682   -1.451004
     17          6           0       -1.595821   -0.081468   -1.172097
     18          6           0       -2.719709   -0.114796   -0.348050
     19          6           0       -3.282700    1.035469    0.202606
     20          6           0       -2.688373    2.266658   -0.089789
     21          1           0       -1.104506    3.293564   -1.135327
     22          1           0       -0.141607    1.209096   -2.090969
     23          1           0       -1.196967   -1.004513   -1.574989
     24          1           0       -4.156935    0.955378    0.837205
     25          1           0       -3.111231    3.175380    0.329093
     26          7           0       -3.340136   -1.424004   -0.045644
     27          8           0       -4.329813   -1.426494    0.683169
     28          8           0       -2.825001   -2.422878   -0.543160
 ---------------------------------------------------------------------

 SCF Done:  E(RHF) =  -868.336331901     A.U. after   16 cycles
 E2 =    -0.2605311165D+01 EUMP2 =    -0.87094164306592D+03

 The electronic state is 1-A.
 Alpha  occ. eigenvalues --  -20.61577 -20.61571 -20.61111 -20.61096 -15.86620
 Alpha  occ. eigenvalues --  -15.86161 -11.31921 -11.31529 -11.28533 -11.28391
 Alpha  occ. eigenvalues --  -11.28179 -11.28140 -11.28039 -11.27715 -11.27533
 Alpha  occ. eigenvalues --  -11.27333 -11.27097 -11.26943  -1.60659  -1.60187
 Alpha  occ. eigenvalues --   -1.40210  -1.39739  -1.20123  -1.19678  -1.09505
 Alpha  occ. eigenvalues --   -1.09063  -1.05470  -1.05086  -0.96342  -0.95903
 Alpha  occ. eigenvalues --   -0.86879  -0.86462  -0.83156  -0.82733  -0.78219
 Alpha  occ. eigenvalues --   -0.77797  -0.72824  -0.72370  -0.72012  -0.71525
 Alpha  occ. eigenvalues --   -0.71188  -0.70751  -0.65730  -0.65447  -0.65316
 Alpha  occ. eigenvalues --   -0.65059  -0.62804  -0.62419  -0.55969  -0.55585
 Alpha  occ. eigenvalues --   -0.54585  -0.53535  -0.53145  -0.52692  -0.49593
 Alpha  occ. eigenvalues --   -0.49581  -0.49134  -0.49127  -0.45619  -0.45144
 Alpha  occ. eigenvalues --   -0.38402  -0.38099  -0.36601  -0.36280
 Alpha virt. eigenvalues --    0.04239   0.04714   0.09961   0.11591   0.15765
 Alpha virt. eigenvalues --    0.16207   0.20584   0.21262   0.26518   0.26775
 Alpha virt. eigenvalues --    0.27799   0.28073   0.30069   0.30946   0.32010

 Mulliken charges:
               1
     1  C   -0.162684
     2  C   -0.223361
     3  C   -0.175680
     4  C    0.155830
     5  C   -0.176268
     6  C   -0.219139
     7  H    0.227828
     8  H    0.232416
     9  H    0.278905
    10  H    0.274046
    11  H    0.219241
    12  N    0.487737
    13  O   -0.461610
    14  O   -0.458415
    15  C   -0.173042
    16  C   -0.210363
    17  C   -0.167584
    18  C    0.153068
    19  C   -0.177119
    20  C   -0.223389
    21  H    0.226339
    22  H    0.228739
    23  H    0.276878
    24  H    0.276250
    25  H    0.224192
    26  N    0.486495
    27  O   -0.459078
    28  O   -0.460235
 Sum of Mulliken charges =  -0.00000

 Dipole moment (field-independent basis, Debye):
    X=             -2.2272    Y=              5.7024    Z=              1.4582  Tot=              6.2932
 Quadrupole moment (field-independent basis, Debye-Ang):
   XX=           -140.3635   YY=           -101.0974   ZZ=           -102.1926
   XY=             -9.3263   XZ=              6.1704   YZ=             -0.2194

 Normal termination of Gaussian 16 at Thu May  6 19:49:25 2021.
