 Gaussian 16, Revision A.03,
 Gaussian 16:  EM64L-G16RevA.03 25-Dec-2016

 -------------
 #p 6-31g* mp2
 -------------

 ------------------------------------------------------
 Input file generated by CHIRIPA (05-May-2021 14:51:13)
 ------------------------------------------------------
 Symbolic Z-matrix:
 Charge =  0 Multiplicity = 1

                         Standard orientation:
 ---------------------------------------------------------------------
 Center     Atomic      Atomic             Coordinates (Angstroms)
 Number     Number       Type             X           Y           Z
 ---------------------------------------------------------------------
      1          6           0       -4.522706   -0.440108   -0.348975
      2          6           0       -5.779089    0.060627    0.364294
      3          6           0       -7.032182   -0.038370   -0.506195
      4          1           0       -4.376957    0.138905   -1.271171
      5          1           0       -4.675361   -1.484007   -0.656164
      6          1           0       -5.623587    1.102838    0.671269
      7          1           0       -5.921757   -0.519516    1.284998
      8          1           0       -7.215013   -1.076599   -0.801584
      9          1           0       -6.915149    0.554972   -1.418800
     10          1           0       -7.918533    0.324824    0.023268
     11          6           0       -3.261749   -0.347506    0.508428
     12          6           0       -2.005367   -0.848241   -0.204841
     13          6           0       -0.752274   -0.749243    0.665648
     14          1           0       -3.109094    0.696394    0.815618
     15          1           0       -3.407499   -0.926518    1.430625
     16          1           0       -1.862698   -0.268097   -1.125545
     17          1           0       -2.160868   -1.890451   -0.511816
     18          1           0       -0.869307   -1.342586    1.578253
     19          1           0       -0.569443    0.288986    0.961037
     20          1           0        0.134078   -1.112437    0.136185
     21          6           0        3.747899    1.129602    0.065901
     22          6           0        2.314764    1.544243   -0.269038
     23          6           0        2.041377    3.019021    0.027752
     24          1           0        3.943308    1.333797    1.127534
     25          1           0        4.446538    1.755409   -0.506518
     26          1           0        1.619012    0.916910    0.302799
     27          1           0        2.122683    1.338859   -1.329951
     28          1           0        2.712147    3.659777   -0.553711
     29          1           0        2.205615    3.235431    1.088316
     30          1           0        1.011137    3.293921   -0.219014
     31          6           0        4.036557   -0.341988   -0.225354
     32          6           0        5.469691   -0.756630    0.109584
     33          6           0        5.743078   -2.231407   -0.187205
     34          1           0        3.337917   -0.967796    0.347064
     35          1           0        3.841149   -0.546184   -1.286988
     36          1           0        5.661772   -0.551246    1.170498
     37          1           0        6.165444   -0.129297   -0.462252
     38          1           0        5.578842   -2.447817   -1.247769
     39          1           0        5.072308   -2.872163    0.394258
     40          1           0        6.773319   -2.506308    0.059561
 ---------------------------------------------------------------------

 SCF Done:  E(RHF) =  -470.732594994     A.U. after   11 cycles
 E2 =    -0.1583037283D+01 EUMP2 =    -0.47231563227658D+03

 The electronic state is 1-A.
 Alpha  occ. eigenvalues --  -11.21621 -11.21612 -11.21574 -11.21427 -11.21421
 Alpha  occ. eigenvalues --  -11.21361 -11.21358 -11.21286 -11.21086 -11.21079
 Alpha  occ. eigenvalues --  -11.21051 -11.21027  -1.08450  -1.08371  -1.03566
 Alpha  occ. eigenvalues --   -1.03461  -0.96014  -0.95930  -0.87051  -0.86933
 Alpha  occ. eigenvalues --   -0.79698  -0.79472  -0.78274  -0.78168  -0.65112
 Alpha  occ. eigenvalues --   -0.64985  -0.61072  -0.60783  -0.59429  -0.59246
 Alpha  occ. eigenvalues --   -0.57616  -0.57546  -0.55355  -0.55168  -0.52775
 Alpha  occ. eigenvalues --   -0.52595  -0.52427  -0.52348  -0.50064  -0.49803
 Alpha  occ. eigenvalues --   -0.47938  -0.47837  -0.46800  -0.46417  -0.45827
 Alpha  occ. eigenvalues --   -0.45761  -0.45710  -0.45521  -0.43773  -0.43698
 Alpha virt. eigenvalues --    0.22008   0.23011   0.23750   0.24612   0.25932
 Alpha virt. eigenvalues --    0.26557   0.26864   0.27310   0.27775   0.29153
 Alpha virt. eigenvalues --    0.30967   0.31439   0.31730   0.31865   0.32306

 Mulliken charges:
               1
     1  C   -0.298320
     2  C   -0.299665
     3  C   -0.475717
     4  H    0.149703
     5  H    0.149586
     6  H    0.151955
     7  H    0.151943
     8  H    0.155199
     9  H    0.155207
    10  H    0.160293
    11  C   -0.298774
    12  C   -0.299502
    13  C   -0.480708
    14  H    0.149739
    15  H    0.149650
    16  H    0.152508
    17  H    0.152040
    18  H    0.154867
    19  H    0.157655
    20  H    0.163633
    21  C   -0.297365
    22  C   -0.309131
    23  C   -0.475698
    24  H    0.149217
    25  H    0.148882
    26  H    0.164699
    27  H    0.150347
    28  H    0.154998
    29  H    0.154746
    30  H    0.158987
    31  C   -0.299586
    32  C   -0.299532
    33  C   -0.475724
    34  H    0.150278
    35  H    0.149268
    36  H    0.151976
    37  H    0.151968
    38  H    0.155049
    39  H    0.155150
    40  H    0.160178
 Sum of Mulliken charges =  -0.00000

 Dipole moment (field-independent basis, Debye):
    X=             -0.0398    Y=             -0.0288    Z=              0.0139  Tot=              0.0510
 Quadrupole moment (field-independent basis, Debye-Ang):
   XX=            -85.9472   YY=            -85.0413   ZZ=            -84.0436
   XY=              0.5305   XZ=             -0.7363   YZ=             -0.7342

 Normal termination of Gaussian 16 at Thu May  6 02:22:00 2021.
