 Gaussian 16, Revision A.03,
 Gaussian 16:  EM64L-G16RevA.03 25-Dec-2016

 -------------
 #p 6-31g* mp2
 -------------

 ------------------------------------------------------
 Input file generated by CHIRIPA (05-May-2021 14:53:14)
 ------------------------------------------------------
 Symbolic Z-matrix:
 Charge =  0 Multiplicity = 1

                         Standard orientation:
 ---------------------------------------------------------------------
 Center     Atomic      Atomic             Coordinates (Angstroms)
 Number     Number       Type             X           Y           Z
 ---------------------------------------------------------------------
      1          6           0        3.437719   -0.089034   -0.378976
      2          6           0        4.599552   -0.840766    0.271430
      3          6           0        4.799306   -2.239671   -0.312486
      4          1           0        2.516093   -0.674232   -0.256125
      5          1           0        3.618343   -0.013691   -1.460223
      6          1           0        4.417461   -0.913459    1.351326
      7          1           0        5.518484   -0.253619    0.147183
      8          1           0        5.005866   -2.183080   -1.386139
      9          1           0        3.898587   -2.846669   -0.175155
     10          1           0        5.634879   -2.759223    0.166829
     11          6           0        3.225466    1.311038    0.194151
     12          6           0        2.063633    2.062770   -0.456256
     13          6           0        1.863879    3.461675    0.127660
     14          1           0        3.044842    1.235695    1.275397
     15          1           0        4.147092    1.896236    0.071299
     16          1           0        1.144700    1.475623   -0.332009
     17          1           0        2.245724    2.135462   -1.536152
     18          1           0        2.764598    4.068672   -0.009671
     19          1           0        1.657319    3.405084    1.201313
     20          1           0        1.028306    3.981227   -0.351655
     21          6           0       -0.315108   -1.438769    0.528298
     22          6           0       -0.802996   -1.384026   -0.781469
     23          6           0       -2.069120   -0.853417   -1.045913
     24          6           0       -2.823973   -0.384399    0.028103
     25          6           0       -2.365648   -0.425227    1.343992
     26          6           0       -1.096614   -0.960039    1.584985
     27          1           0        0.669577   -1.852591    0.724616
     28          1           0       -0.198268   -1.755079   -1.604068
     29          1           0       -2.471330   -0.798938   -2.050242
     30          1           0       -2.991647   -0.047594    2.143327
     31          1           0       -0.720283   -1.001284    2.603179
     32          7           0       -4.165903    0.179558   -0.239438
     33          8           0       -4.811361    0.586221    0.724224
     34          8           0       -4.546838    0.204246   -1.407734
 ---------------------------------------------------------------------

 SCF Done:  E(RHF) =  -669.535316355     A.U. after   15 cycles
 E2 =    -0.2092709148D+01 EUMP2 =    -0.67162802550296D+03

 The electronic state is 1-A.
 Alpha  occ. eigenvalues --  -20.60810 -20.60805 -15.85865 -11.31258 -11.27826
 Alpha  occ. eigenvalues --  -11.27821 -11.27580 -11.26859 -11.26849 -11.22440
 Alpha  occ. eigenvalues --  -11.22262 -11.22030 -11.21965 -11.21958 -11.21380
 Alpha  occ. eigenvalues --   -1.59885  -1.39438  -1.19439  -1.09150  -1.08827
 Alpha  occ. eigenvalues --   -1.04840  -1.04162  -0.96630  -0.95661  -0.87640
 Alpha  occ. eigenvalues --   -0.86237  -0.82490  -0.80242  -0.78950  -0.77524
 Alpha  occ. eigenvalues --   -0.72083  -0.71208  -0.70581  -0.65798  -0.65088
 Alpha  occ. eigenvalues --   -0.64828  -0.62181  -0.61564  -0.60002  -0.58229
 Alpha  occ. eigenvalues --   -0.55995  -0.55314  -0.53316  -0.53154  -0.53042
 Alpha  occ. eigenvalues --   -0.52927  -0.50579  -0.48844  -0.48836  -0.48547
 Alpha  occ. eigenvalues --   -0.47290  -0.46471  -0.46389  -0.44837  -0.44434
 Alpha  occ. eigenvalues --   -0.37375  -0.36435
 Alpha virt. eigenvalues --    0.04972   0.11165   0.16352   0.19413   0.22870
 Alpha virt. eigenvalues --    0.23543   0.25513   0.26362   0.27260   0.27600
 Alpha virt. eigenvalues --    0.29254   0.30212   0.31055   0.31553   0.32138

 Mulliken charges:
               1
     1  C   -0.301483
     2  C   -0.300409
     3  C   -0.474887
     4  H    0.140389
     5  H    0.151949
     6  H    0.150333
     7  H    0.156360
     8  H    0.157717
     9  H    0.147367
    10  H    0.163948
    11  C   -0.297365
    12  C   -0.304919
    13  C   -0.475796
    14  H    0.147415
    15  H    0.152317
    16  H    0.157151
    17  H    0.151672
    18  H    0.155476
    19  H    0.154535
    20  H    0.163686
    21  C   -0.170831
    22  C   -0.218250
    23  C   -0.171031
    24  C    0.158721
    25  C   -0.170836
    26  C   -0.219797
    27  H    0.227715
    28  H    0.225188
    29  H    0.276118
    30  H    0.275944
    31  H    0.223846
    32  N    0.488061
    33  O   -0.460182
    34  O   -0.460124
 Sum of Mulliken charges =  -0.00000

 Dipole moment (field-independent basis, Debye):
    X=              4.7572    Y=             -1.9227    Z=              0.9153  Tot=              5.2120
 Quadrupole moment (field-independent basis, Debye-Ang):
   XX=           -121.2968   YY=            -94.6673   ZZ=            -89.5167
   XY=              4.2973   XZ=             -3.6719   YZ=             -0.0350

 Normal termination of Gaussian 16 at Thu May  6 02:39:37 2021.
