 Gaussian 16, Revision A.03,
 Gaussian 16:  EM64L-G16RevA.03 25-Dec-2016

 -------------
 #p 6-31g* mp2
 -------------

 ------------------------------------------------------
 Input file generated by CHIRIPA (05-May-2021 14:53:16)
 ------------------------------------------------------
 Symbolic Z-matrix:
 Charge =  0 Multiplicity = 1

                         Standard orientation:
 ---------------------------------------------------------------------
 Center     Atomic      Atomic             Coordinates (Angstroms)
 Number     Number       Type             X           Y           Z
 ---------------------------------------------------------------------
      1          6           0       -3.096029    0.721614   -0.495321
      2          6           0       -2.584628    2.068785    0.016134
      3          6           0       -1.234993    2.456964   -0.588512
      4          1           0       -2.353592   -0.055555   -0.267858
      5          1           0       -3.181495    0.761400   -1.590085
      6          1           0       -2.501468    2.026923    1.109729
      7          1           0       -3.328455    2.842806   -0.212402
      8          1           0       -1.306967    2.526404   -1.678741
      9          1           0       -0.475281    1.705885   -0.349098
     10          1           0       -0.888151    3.423229   -0.209181
     11          6           0       -4.444289    0.319795    0.100048
     12          6           0       -4.955690   -1.027375   -0.411407
     13          6           0       -6.305324   -1.415555    0.193240
     14          1           0       -4.358822    0.280010    1.194812
     15          1           0       -5.186726    1.096965   -0.127414
     16          1           0       -4.211863   -1.801396   -0.182871
     17          1           0       -5.038850   -0.985514   -1.505001
     18          1           0       -7.065037   -0.664476   -0.046174
     19          1           0       -6.233351   -1.484994    1.283468
     20          1           0       -6.652167   -2.381820   -0.186091
     21          6           0        0.624492   -1.232226    0.700121
     22          6           0        1.464937   -1.995748   -0.116708
     23          6           0        2.752885   -1.548226   -0.425675
     24          6           0        3.169817   -0.327002    0.101646
     25          6           0        2.355941    0.456496    0.918362
     26          6           0        1.071887   -0.010695    1.214143
     27          1           0       -0.374506   -1.587512    0.935012
     28          1           0        1.120148   -2.944792   -0.517309
     29          1           0        3.424247   -2.119216   -1.055485
     30          1           0        2.727729    1.398474    1.302899
     31          1           0        0.421358    0.584372    1.848769
     32          7           0        4.531249    0.157181   -0.218464
     33          8           0        4.874854    1.236524    0.258602
     34          8           0        5.228955   -0.551827   -0.940372
 ---------------------------------------------------------------------

 SCF Done:  E(RHF) =  -669.534831044     A.U. after   15 cycles
 E2 =    -0.2093014651D+01 EUMP2 =    -0.67162784569511D+03

 The electronic state is 1-A.
 Alpha  occ. eigenvalues --  -20.60809 -20.60804 -15.85863 -11.31268 -11.27832
 Alpha  occ. eigenvalues --  -11.27826 -11.27588 -11.26859 -11.26849 -11.22320
 Alpha  occ. eigenvalues --  -11.22298 -11.22171 -11.22087 -11.21672 -11.21471
 Alpha  occ. eigenvalues --   -1.59883  -1.39435  -1.19450  -1.09157  -1.08837
 Alpha  occ. eigenvalues --   -1.04863  -1.04179  -0.96612  -0.95663  -0.87625
 Alpha  occ. eigenvalues --   -0.86250  -0.82492  -0.80247  -0.78974  -0.77532
 Alpha  occ. eigenvalues --   -0.72081  -0.71206  -0.70554  -0.65836  -0.65097
 Alpha  occ. eigenvalues --   -0.64844  -0.62234  -0.61556  -0.59980  -0.58230
 Alpha  occ. eigenvalues --   -0.55988  -0.55318  -0.53314  -0.53275  -0.52968
 Alpha  occ. eigenvalues --   -0.52873  -0.50531  -0.48843  -0.48833  -0.48543
 Alpha  occ. eigenvalues --   -0.47301  -0.46502  -0.46450  -0.44832  -0.44452
 Alpha  occ. eigenvalues --   -0.37392  -0.36396
 Alpha virt. eigenvalues --    0.04967   0.11109   0.16332   0.19371   0.22866
 Alpha virt. eigenvalues --    0.23614   0.25133   0.26053   0.27261   0.28063
 Alpha virt. eigenvalues --    0.29454   0.30532   0.31023   0.31527   0.31614

 Mulliken charges:
               1
     1  C   -0.299201
     2  C   -0.300210
     3  C   -0.485504
     4  H    0.141606
     5  H    0.153656
     6  H    0.145340
     7  H    0.155692
     8  H    0.158380
     9  H    0.161820
    10  H    0.160444
    11  C   -0.298667
    12  C   -0.298707
    13  C   -0.475966
    14  H    0.147399
    15  H    0.153063
    16  H    0.146037
    17  H    0.154304
    18  H    0.157392
    19  H    0.155009
    20  H    0.161619
    21  C   -0.170644
    22  C   -0.218457
    23  C   -0.170611
    24  C    0.159104
    25  C   -0.170389
    26  C   -0.221115
    27  H    0.226896
    28  H    0.224114
    29  H    0.276049
    30  H    0.276572
    31  H    0.226972
    32  N    0.488083
    33  O   -0.459937
    34  O   -0.460143
 Sum of Mulliken charges =  -0.00000

 Dipole moment (field-independent basis, Debye):
    X=             -4.8067    Y=             -1.7050    Z=              1.0675  Tot=              5.2106
 Quadrupole moment (field-independent basis, Debye-Ang):
   XX=           -125.8338   YY=            -90.4439   ZZ=            -93.0775
   XY=             -5.3318   XZ=              3.5430   YZ=              1.7840

 Normal termination of Gaussian 16 at Thu May  6 12:14:26 2021.
