 Gaussian 16, Revision A.03,
 Gaussian 16:  EM64L-G16RevA.03 25-Dec-2016

 -------------
 #p 6-31g* mp2
 -------------

 ------------------------------------------------------
 Input file generated by CHIRIPA (05-May-2021 14:53:17)
 ------------------------------------------------------
 Symbolic Z-matrix:
 Charge =  0 Multiplicity = 1

                         Standard orientation:
 ---------------------------------------------------------------------
 Center     Atomic      Atomic             Coordinates (Angstroms)
 Number     Number       Type             X           Y           Z
 ---------------------------------------------------------------------
      1          6           0       -2.998034   -0.365260   -0.735427
      2          6           0       -3.807415   -1.600037   -0.337665
      3          6           0       -3.597118   -2.776950   -1.290788
      4          1           0       -3.274562   -0.066502   -1.755829
      5          1           0       -1.931590   -0.628357   -0.764937
      6          1           0       -4.871893   -1.334335   -0.307567
      7          1           0       -3.529068   -1.895776    0.681980
      8          1           0       -2.542546   -3.070095   -1.314122
      9          1           0       -3.893001   -2.505464   -2.309292
     10          1           0       -4.185015   -3.648967   -0.987763
     11          6           0       -3.197720    0.819680    0.207849
     12          6           0       -2.388339    2.054457   -0.189912
     13          6           0       -2.598636    3.231371    0.763211
     14          1           0       -4.264165    1.082777    0.237360
     15          1           0       -2.921192    0.520922    1.228252
     16          1           0       -2.666686    2.350196   -1.209558
     17          1           0       -1.323861    1.788755   -0.220010
     18          1           0       -2.302753    2.959885    1.781714
     19          1           0       -3.653209    3.524515    0.786544
     20          1           0       -2.010739    4.103387    0.460185
     21          6           0        4.192273    0.648550   -1.388708
     22          6           0        4.420996   -0.498161   -0.621076
     23          6           0        3.446265   -0.964960    0.265797
     24          6           0        2.248901   -0.257368    0.360263
     25          6           0        1.991267    0.888286   -0.390996
     26          6           0        2.980276    1.336900   -1.271426
     27          1           0        4.955014    1.004107   -2.075150
     28          1           0        5.361309   -1.034757   -0.710088
     29          1           0        3.597082   -1.849920    0.872031
     30          1           0        1.043996    1.401973   -0.280447
     31          1           0        2.799895    2.227743   -1.866326
     32          7           0        1.209439   -0.741921    1.295746
     33          8           0        0.162935   -0.100619    1.360552
     34          8           0        1.460893   -1.753841    1.946457
 ---------------------------------------------------------------------

 SCF Done:  E(RHF) =  -669.536009570     A.U. after   15 cycles
 E2 =    -0.2092984404D+01 EUMP2 =    -0.67162899397311D+03

 The electronic state is 1-A.
 Alpha  occ. eigenvalues --  -20.61054 -20.61045 -15.86070 -11.31332 -11.27889
 Alpha  occ. eigenvalues --  -11.27876 -11.27616 -11.26885 -11.26872 -11.20950
 Alpha  occ. eigenvalues --  -11.20710 -11.20509 -11.20434 -11.20369 -11.20352
 Alpha  occ. eigenvalues --   -1.60108  -1.39667  -1.19497  -1.08913  -1.07539
 Alpha  occ. eigenvalues --   -1.04884  -1.02777  -0.95767  -0.95213  -0.86294
 Alpha  occ. eigenvalues --   -0.86240  -0.82603  -0.78865  -0.77701  -0.77335
 Alpha  occ. eigenvalues --   -0.72319  -0.71414  -0.70612  -0.65173  -0.64903
 Alpha  occ. eigenvalues --   -0.64077  -0.62248  -0.60139  -0.58614  -0.56853
 Alpha  occ. eigenvalues --   -0.55394  -0.54473  -0.53217  -0.52987  -0.51974
 Alpha  occ. eigenvalues --   -0.51669  -0.49215  -0.49053  -0.49009  -0.47180
 Alpha  occ. eigenvalues --   -0.45836  -0.45275  -0.44857  -0.44596  -0.42985
 Alpha  occ. eigenvalues --   -0.37473  -0.36479
 Alpha virt. eigenvalues --    0.04835   0.11156   0.16325   0.20648   0.23612
 Alpha virt. eigenvalues --    0.24603   0.26066   0.27531   0.28055   0.28724
 Alpha virt. eigenvalues --    0.29234   0.30890   0.31502   0.32338   0.32459

 Mulliken charges:
               1
     1  C   -0.298677
     2  C   -0.300518
     3  C   -0.475160
     4  H    0.141488
     5  H    0.154892
     6  H    0.148042
     7  H    0.159824
     8  H    0.155194
     9  H    0.151124
    10  H    0.158482
    11  C   -0.296189
    12  C   -0.307795
    13  C   -0.475923
    14  H    0.143631
    15  H    0.166356
    16  H    0.144721
    17  H    0.157682
    18  H    0.162133
    19  H    0.153814
    20  H    0.152148
    21  C   -0.169925
    22  C   -0.219117
    23  C   -0.169463
    24  C    0.153158
    25  C   -0.173606
    26  C   -0.223055
    27  H    0.226273
    28  H    0.223962
    29  H    0.275892
    30  H    0.289778
    31  H    0.225039
    32  N    0.490369
    33  O   -0.466465
    34  O   -0.458111
 Sum of Mulliken charges =  -0.00000

 Dipole moment (field-independent basis, Debye):
    X=              3.8846    Y=              1.5841    Z=             -3.0708  Tot=              5.1990
 Quadrupole moment (field-independent basis, Debye-Ang):
   XX=            -76.7345   YY=            -94.5238   ZZ=            -97.5878
   XY=              0.3240   XZ=             -5.6414   YZ=             -0.5806

 Normal termination of Gaussian 16 at Wed May  5 20:25:24 2021.
