 Gaussian 16, Revision A.03,
 Gaussian 16:  EM64L-G16RevA.03 25-Dec-2016

 -------------
 #p 6-31g* mp2
 -------------

 ------------------------------------------------------
 Input file generated by CHIRIPA (05-May-2021 14:55:25)
 ------------------------------------------------------
 Symbolic Z-matrix:
 Charge =  0 Multiplicity = 1

                         Standard orientation:
 ---------------------------------------------------------------------
 Center     Atomic      Atomic             Coordinates (Angstroms)
 Number     Number       Type             X           Y           Z
 ---------------------------------------------------------------------
      1          6           0        1.368387   -2.053880    1.541121
      2          6           0        0.821053   -1.896784    0.263519
      3          6           0        1.279641   -0.885512   -0.585936
      4          6           0        2.291365   -0.045431   -0.123370
      5          6           0        2.856777   -0.176548    1.144072
      6          6           0        2.382714   -1.194775    1.976552
      7          1           0        1.006133   -2.842162    2.194405
      8          1           0        0.033209   -2.562508   -0.077300
      9          1           0        0.873640   -0.741479   -1.579836
     10          1           0        3.641043    0.502542    1.455812
     11          1           0        2.809639   -1.314429    2.968249
     12          7           0        2.785044    1.028839   -1.013665
     13          8           0        3.677299    1.755898   -0.582500
     14          8           0        2.270386    1.123452   -2.125786
     15          6           0       -2.796572   -0.218633   -0.603461
     16          6           0       -2.959403   -1.668914   -0.147217
     17          6           0       -2.892676   -2.664201   -1.305986
     18          1           0       -3.578847    0.018150   -1.337576
     19          1           0       -1.835503   -0.111423   -1.125235
     20          1           0       -3.919257   -1.773044    0.374754
     21          1           0       -2.176767   -1.902214    0.586040
     22          1           0       -1.930553   -2.589526   -1.823037
     23          1           0       -3.682943   -2.459622   -2.035524
     24          1           0       -3.011355   -3.694835   -0.957319
     25          6           0       -2.861031    0.788191    0.543656
     26          6           0       -2.698200    2.238471    0.087412
     27          6           0       -2.764927    3.233759    1.246180
     28          1           0       -3.822100    0.680981    1.065431
     29          1           0       -2.078757    0.551406    1.277771
     30          1           0       -3.480836    2.471771   -0.645846
     31          1           0       -1.738346    2.342601   -0.434559
     32          1           0       -1.974660    3.029180    1.975719
     33          1           0       -3.727050    3.159084    1.763232
     34          1           0       -2.646248    4.264393    0.897514
 ---------------------------------------------------------------------

 SCF Done:  E(RHF) =  -669.534958880     A.U. after   15 cycles
 E2 =    -0.2093633105D+01 EUMP2 =    -0.67162859198471D+03

 The electronic state is 1-A.
 Alpha  occ. eigenvalues --  -20.60828 -20.60823 -15.85881 -11.31266 -11.27829
 Alpha  occ. eigenvalues --  -11.27823 -11.27563 -11.26845 -11.26801 -11.22307
 Alpha  occ. eigenvalues --  -11.21973 -11.21842 -11.21664 -11.21603 -11.21085
 Alpha  occ. eigenvalues --   -1.59903  -1.39456  -1.19437  -1.08867  -1.08793
 Alpha  occ. eigenvalues --   -1.04846  -1.03947  -0.96403  -0.95658  -0.87418
 Alpha  occ. eigenvalues --   -0.86238  -0.82491  -0.80031  -0.78580  -0.77545
 Alpha  occ. eigenvalues --   -0.72098  -0.71228  -0.70540  -0.65648  -0.65079
 Alpha  occ. eigenvalues --   -0.64778  -0.62304  -0.61176  -0.59804  -0.57981
 Alpha  occ. eigenvalues --   -0.55741  -0.55312  -0.53165  -0.53099  -0.52944
 Alpha  occ. eigenvalues --   -0.52756  -0.50369  -0.48862  -0.48854  -0.48319
 Alpha  occ. eigenvalues --   -0.47078  -0.46127  -0.46016  -0.44857  -0.44170
 Alpha  occ. eigenvalues --   -0.37403  -0.36406
 Alpha virt. eigenvalues --    0.04965   0.11081   0.16378   0.19313   0.23108
 Alpha virt. eigenvalues --    0.23841   0.25146   0.26437   0.27025   0.28400
 Alpha virt. eigenvalues --    0.29484   0.30540   0.31196   0.31330   0.32080

 Mulliken charges:
               1
     1  C   -0.173224
     2  C   -0.220056
     3  C   -0.174154
     4  C    0.158154
     5  C   -0.171073
     6  C   -0.218125
     7  H    0.226417
     8  H    0.232555
     9  H    0.275638
    10  H    0.275892
    11  H    0.223819
    12  N    0.488041
    13  O   -0.460091
    14  O   -0.460335
    15  C   -0.298550
    16  C   -0.305025
    17  C   -0.479083
    18  H    0.152890
    19  H    0.148375
    20  H    0.156116
    21  H    0.146097
    22  H    0.147331
    23  H    0.163030
    24  H    0.160341
    25  C   -0.299133
    26  C   -0.301298
    27  C   -0.475919
    28  H    0.149091
    29  H    0.150399
    30  H    0.152609
    31  H    0.157443
    32  H    0.154844
    33  H    0.153864
    34  H    0.163122
 Sum of Mulliken charges =  -0.00000

 Dipole moment (field-independent basis, Debye):
    X=             -1.7910    Y=             -3.6926    Z=              3.1370  Tot=              5.1656
 Quadrupole moment (field-independent basis, Debye-Ang):
   XX=            -99.7197   YY=            -95.2784   ZZ=            -93.8874
   XY=             -7.7027   XZ=             10.4895   YZ=              0.7542

 Normal termination of Gaussian 16 at Thu May  6 01:37:37 2021.
