 Gaussian 16, Revision A.03,
 Gaussian 16:  EM64L-G16RevA.03 25-Dec-2016

 -------------
 #p 6-31g* mp2
 -------------

 ------------------------------------------------------
 Input file generated by CHIRIPA (05-May-2021 14:51:09)
 ------------------------------------------------------
 Symbolic Z-matrix:
 Charge =  0 Multiplicity = 1

                         Standard orientation:
 ---------------------------------------------------------------------
 Center     Atomic      Atomic             Coordinates (Angstroms)
 Number     Number       Type             X           Y           Z
 ---------------------------------------------------------------------
      1          6           0        2.341055    1.493437    0.110071
      2          6           0        1.013956    1.871291    0.768872
      3          6           0        0.973443    3.331000    1.222085
      4          1           0        3.160783    1.682356    0.816682
      5          1           0        2.514416    2.151212   -0.752874
      6          1           0        0.842482    1.212090    1.629492
      7          1           0        0.197274    1.681270    0.060678
      8          1           0        1.119323    4.003054    0.370226
      9          1           0        1.768197    3.531208    1.947953
     10          1           0        0.015898    3.579589    1.690240
     11          6           0        2.396868    0.037264   -0.348377
     12          6           0        3.723967   -0.340591   -1.007178
     13          6           0        3.764479   -1.800300   -1.460391
     14          1           0        2.223507   -0.620511    0.514568
     15          1           0        1.577139   -0.151655   -1.054988
     16          1           0        4.540648   -0.150569   -0.298984
     17          1           0        3.895440    0.318611   -1.867798
     18          1           0        2.969726   -2.000507   -2.186259
     19          1           0        3.618600   -2.472354   -0.608532
     20          1           0        4.722025   -2.048888   -1.928546
     21          6           0       -2.819037   -0.150820    0.062444
     22          6           0       -3.486170   -0.012057   -1.306375
     23          6           0       -4.383409    1.222107   -1.404318
     24          1           0       -3.595229   -0.197503    0.838518
     25          1           0       -2.226444    0.751626    0.266941
     26          1           0       -4.076217   -0.915093   -1.508831
     27          1           0       -2.708304    0.034108   -2.079297
     28          1           0       -3.804299    2.134361   -1.228176
     29          1           0       -5.179984    1.179766   -0.654468
     30          1           0       -4.850207    1.301806   -2.391034
     31          6           0       -1.918885   -1.379881    0.175862
     32          6           0       -1.251753   -1.518642    1.544681
     33          6           0       -0.354513   -2.752808    1.642624
     34          1           0       -2.511478   -2.282327   -0.028635
     35          1           0       -1.142693   -1.333197   -0.600212
     36          1           0       -2.029619   -1.564809    2.317604
     37          1           0       -0.661707   -0.615607    1.747137
     38          1           0        0.442062   -2.710467    0.892773
     39          1           0       -0.933623   -3.665062    1.466482
     40          1           0        0.112285   -2.832507    2.629339
 ---------------------------------------------------------------------

 SCF Done:  E(RHF) =  -470.732785348     A.U. after   11 cycles
 E2 =    -0.1585015591D+01 EUMP2 =    -0.47231780093896D+03

 The electronic state is 1-A.
 Alpha  occ. eigenvalues --  -11.21704 -11.21671 -11.21583 -11.21499 -11.21464
 Alpha  occ. eigenvalues --  -11.21440 -11.21335 -11.21274 -11.21154 -11.21128
 Alpha  occ. eigenvalues --  -11.21063 -11.20992  -1.08544  -1.08354  -1.03620
 Alpha  occ. eigenvalues --   -1.03474  -0.96062  -0.95928  -0.87080  -0.86943
 Alpha  occ. eigenvalues --   -0.79739  -0.79512  -0.78392  -0.78142  -0.65169
 Alpha  occ. eigenvalues --   -0.65007  -0.61060  -0.60844  -0.59453  -0.59280
 Alpha  occ. eigenvalues --   -0.57681  -0.57537  -0.55356  -0.55216  -0.52755
 Alpha  occ. eigenvalues --   -0.52628  -0.52486  -0.52356  -0.50087  -0.49808
 Alpha  occ. eigenvalues --   -0.48127  -0.47887  -0.46893  -0.46373  -0.46172
 Alpha  occ. eigenvalues --   -0.45783  -0.45592  -0.45272  -0.43867  -0.43724
 Alpha virt. eigenvalues --    0.19996   0.22290   0.23761   0.23776   0.25299
 Alpha virt. eigenvalues --    0.25889   0.27202   0.27773   0.28683   0.29673
 Alpha virt. eigenvalues --    0.30247   0.31527   0.31781   0.31870   0.32255

 Mulliken charges:
               1
     1  C   -0.297747
     2  C   -0.308524
     3  C   -0.475431
     4  H    0.150066
     5  H    0.149797
     6  H    0.156702
     7  H    0.155381
     8  H    0.155395
     9  H    0.155636
    10  H    0.160697
    11  C   -0.304003
    12  C   -0.299563
    13  C   -0.476549
    14  H    0.154159
    15  H    0.150415
    16  H    0.152320
    17  H    0.152169
    18  H    0.155155
    19  H    0.155820
    20  H    0.160801
    21  C   -0.303236
    22  C   -0.299432
    23  C   -0.475592
    24  H    0.149513
    25  H    0.154101
    26  H    0.152039
    27  H    0.150951
    28  H    0.154823
    29  H    0.155286
    30  H    0.160123
    31  C   -0.299119
    32  C   -0.306865
    33  C   -0.478565
    34  H    0.149157
    35  H    0.150958
    36  H    0.151003
    37  H    0.160402
    38  H    0.158062
    39  H    0.154894
    40  H    0.158798
 Sum of Mulliken charges =  -0.00000

 Dipole moment (field-independent basis, Debye):
    X=              0.0641    Y=              0.0428    Z=              0.0041  Tot=              0.0772
 Quadrupole moment (field-independent basis, Debye-Ang):
   XX=            -84.4686   YY=            -86.2433   ZZ=            -84.0704
   XY=              1.0805   XZ=              0.0028   YZ=             -0.5425

 Normal termination of Gaussian 16 at Wed May  5 19:44:38 2021.
