 Gaussian 16, Revision A.03,
 Gaussian 16:  EM64L-G16RevA.03 25-Dec-2016

 -------------
 #p 6-31g* mp2
 -------------

 ------------------------------------------------------
 Input file generated by CHIRIPA (05-May-2021 14:57:21)
 ------------------------------------------------------
 Symbolic Z-matrix:
 Charge =  0 Multiplicity = 1

                         Standard orientation:
 ---------------------------------------------------------------------
 Center     Atomic      Atomic             Coordinates (Angstroms)
 Number     Number       Type             X           Y           Z
 ---------------------------------------------------------------------
      1          6           0       -1.168590    0.081740    1.835782
      2          6           0       -1.664642   -1.144723    1.381646
      3          6           0       -2.796208   -1.193322    0.562045
      4          6           0       -3.409638    0.009245    0.214445
      5          6           0       -2.939395    1.246868    0.650852
      6          6           0       -1.806425    1.271524    1.469582
      7          1           0       -0.289016    0.110194    2.472129
      8          1           0       -1.171332   -2.070311    1.664446
      9          1           0       -3.201401   -2.128985    0.196297
     10          1           0       -3.452651    2.152820    0.352127
     11          1           0       -1.423402    2.225461    1.820785
     12          7           0       -4.608319   -0.029531   -0.652769
     13          8           0       -5.130600    1.044048   -0.944808
     14          8           0       -5.002868   -1.132769   -1.024031
     15          6           0        5.663885    0.067780    0.232221
     16          6           0        4.991715   -1.158591    0.205384
     17          6           0        3.633285   -1.216734   -0.119947
     18          6           0        2.975049   -0.023701   -0.414371
     19          6           0        3.617017    1.213569   -0.396132
     20          6           0        4.975604    1.247866   -0.068093
     21          1           0        6.719207    0.103686    0.485998
     22          1           0        5.523697   -2.076659    0.438169
     23          1           0        3.088442   -2.152556   -0.148223
     24          1           0        3.059895    2.111900   -0.632849
     25          1           0        5.495056    2.201707   -0.048037
     26          7           0        1.536857   -0.072631   -0.760218
     27          8           0        0.979589    0.992655   -1.015670
     28          8           0        0.994103   -1.175342   -0.769292
 ---------------------------------------------------------------------

 SCF Done:  E(RHF) =  -868.337443715     A.U. after   16 cycles
 E2 =    -0.2601468407D+01 EUMP2 =    -0.87093891212286D+03

 The electronic state is 1-A.
 Alpha  occ. eigenvalues --  -20.61413 -20.61394 -20.59655 -20.59649 -15.86420
 Alpha  occ. eigenvalues --  -15.84697 -11.31813 -11.29847 -11.28379 -11.28364
 Alpha  occ. eigenvalues --  -11.28082 -11.27372 -11.27359 -11.26376 -11.26335
 Alpha  occ. eigenvalues --  -11.26163 -11.25464 -11.25405  -1.60459  -1.58729
 Alpha  occ. eigenvalues --   -1.40020  -1.38291  -1.19977  -1.17976  -1.09363
 Alpha  occ. eigenvalues --   -1.07456  -1.05374  -1.03365  -0.96198  -0.94336
 Alpha  occ. eigenvalues --   -0.86769  -0.84814  -0.83032  -0.81184  -0.78087
 Alpha  occ. eigenvalues --   -0.76234  -0.72656  -0.71819  -0.71067  -0.70936
 Alpha  occ. eigenvalues --   -0.70034  -0.69208  -0.65623  -0.65363  -0.63683
 Alpha  occ. eigenvalues --   -0.63444  -0.62719  -0.60764  -0.55855  -0.54006
 Alpha  occ. eigenvalues --   -0.53719  -0.53456  -0.51715  -0.51530  -0.49418
 Alpha  occ. eigenvalues --   -0.49314  -0.47693  -0.47672  -0.45435  -0.43746
 Alpha  occ. eigenvalues --   -0.37965  -0.36984  -0.35917  -0.34830
 Alpha virt. eigenvalues --    0.04423   0.06290   0.10670   0.12777   0.15919
 Alpha virt. eigenvalues --    0.17842   0.20859   0.22517   0.26763   0.27734
 Alpha virt. eigenvalues --    0.28483   0.29285   0.30460   0.31870   0.32068

 Mulliken charges:
               1
     1  C   -0.173290
     2  C   -0.197642
     3  C   -0.168834
     4  C    0.160404
     5  C   -0.169577
     6  C   -0.206542
     7  H    0.214982
     8  H    0.218404
     9  H    0.271641
    10  H    0.271020
    11  H    0.216823
    12  N    0.488191
    13  O   -0.463951
    14  O   -0.463310
    15  C   -0.170758
    16  C   -0.218311
    17  C   -0.172665
    18  C    0.156866
    19  C   -0.172262
    20  C   -0.218365
    21  H    0.227503
    22  H    0.224894
    23  H    0.274453
    24  H    0.275771
    25  H    0.225123
    26  N    0.486842
    27  O   -0.456942
    28  O   -0.460468
 Sum of Mulliken charges =  -0.00000

 Dipole moment (field-independent basis, Debye):
    X=              9.5845    Y=              0.2800    Z=              4.1445  Tot=             10.4459
 Quadrupole moment (field-independent basis, Debye-Ang):
   XX=           -105.2015   YY=            -94.9266   ZZ=           -106.4637
   XY=             -0.2353   XZ=             -7.8417   YZ=             -0.5806

 Normal termination of Gaussian 16 at Thu May  6 01:42:53 2021.
