 Gaussian 16, Revision A.03,
 Gaussian 16:  EM64L-G16RevA.03 25-Dec-2016

 -------------
 #p 6-31g* mp2
 -------------

 ------------------------------------------------------
 Input file generated by CHIRIPA (05-May-2021 14:51:13)
 ------------------------------------------------------
 Symbolic Z-matrix:
 Charge =  0 Multiplicity = 1

                         Standard orientation:
 ---------------------------------------------------------------------
 Center     Atomic      Atomic             Coordinates (Angstroms)
 Number     Number       Type             X           Y           Z
 ---------------------------------------------------------------------
      1          6           0        3.039365   -0.554262   -0.389485
      2          6           0        3.444125    0.911779   -0.547210
      3          6           0        4.470144    1.125285   -1.660536
      4          1           0        3.935683   -1.155463   -0.184265
      5          1           0        2.629759   -0.918801   -1.341708
      6          1           0        3.851567    1.273841    0.405428
      7          1           0        2.546714    1.509588   -0.751888
      8          1           0        4.069571    0.790696   -2.622925
      9          1           0        5.381838    0.553610   -1.459032
     10          1           0        4.745361    2.180280   -1.755934
     11          6           0        2.014204   -0.783749    0.719618
     12          6           0        1.609444   -2.249790    0.877343
     13          6           0        0.583425   -2.463296    1.990669
     14          1           0        2.423810   -0.419210    1.671841
     15          1           0        1.117886   -0.182548    0.514398
     16          1           0        2.506855   -2.847599    1.082022
     17          1           0        1.202002   -2.611852   -0.075295
     18          1           0       -0.328269   -1.891621    1.789166
     19          1           0        0.983998   -2.128707    2.953058
     20          1           0        0.308208   -3.518291    2.086067
     21          6           0       -1.986241    1.207189   -0.125031
     22          6           0       -2.187919    2.184141    1.033794
     23          6           0       -1.098534    3.254918    1.100678
     24          1           0       -1.003455    0.726635   -0.024305
     25          1           0       -1.964294    1.768730   -1.069268
     26          1           0       -2.210864    1.620776    1.975447
     27          1           0       -3.170419    2.662283    0.930403
     28          1           0       -1.078330    3.842150    0.176908
     29          1           0       -0.113324    2.794726    1.227891
     30          1           0       -1.262242    3.942537    1.936285
     31          6           0       -3.067329    0.130822   -0.205102
     32          6           0       -2.865650   -0.846130   -1.363928
     33          6           0       -3.955035   -1.916907   -1.430812
     34          1           0       -3.089276   -0.430720    0.739135
     35          1           0       -4.050114    0.611375   -0.305828
     36          1           0       -1.883151   -1.324272   -1.260535
     37          1           0       -2.842705   -0.282765   -2.305580
     38          1           0       -4.940246   -1.456715   -1.558023
     39          1           0       -3.975239   -2.504140   -0.507042
     40          1           0       -3.791327   -2.604526   -2.266418
 ---------------------------------------------------------------------

 SCF Done:  E(RHF) =  -470.733464198     A.U. after   11 cycles
 E2 =    -0.1583825494D+01 EUMP2 =    -0.47231728969282D+03

 The electronic state is 1-A.
 Alpha  occ. eigenvalues --  -11.21669 -11.21653 -11.21623 -11.21614 -11.21451
 Alpha  occ. eigenvalues --  -11.21447 -11.21391 -11.21384 -11.21150 -11.21099
 Alpha  occ. eigenvalues --  -11.21076 -11.21075  -1.08500  -1.08451  -1.03570
 Alpha  occ. eigenvalues --   -1.03559  -0.96022  -0.96008  -0.87046  -0.87015
 Alpha  occ. eigenvalues --   -0.79643  -0.79613  -0.78392  -0.78197  -0.65324
 Alpha  occ. eigenvalues --   -0.64909  -0.60979  -0.60941  -0.59388  -0.59377
 Alpha  occ. eigenvalues --   -0.57646  -0.57605  -0.55339  -0.55273  -0.52713
 Alpha  occ. eigenvalues --   -0.52698  -0.52475  -0.52409  -0.50046  -0.49879
 Alpha  occ. eigenvalues --   -0.47956  -0.47950  -0.46793  -0.46610  -0.46256
 Alpha  occ. eigenvalues --   -0.45786  -0.45782  -0.45203  -0.43826  -0.43817
 Alpha virt. eigenvalues --    0.18885   0.22609   0.23554   0.24601   0.25608
 Alpha virt. eigenvalues --    0.26363   0.26854   0.27769   0.28502   0.29831
 Alpha virt. eigenvalues --    0.31244   0.31600   0.31682   0.31936   0.32354

 Mulliken charges:
               1
     1  C   -0.297532
     2  C   -0.300658
     3  C   -0.475738
     4  H    0.149859
     5  H    0.149700
     6  H    0.151915
     7  H    0.152895
     8  H    0.155328
     9  H    0.155156
    10  H    0.160478
    11  C   -0.309097
    12  C   -0.299445
    13  C   -0.477297
    14  H    0.149786
    15  H    0.158559
    16  H    0.152553
    17  H    0.151983
    18  H    0.155294
    19  H    0.155579
    20  H    0.160734
    21  C   -0.308849
    22  C   -0.298947
    23  C   -0.477307
    24  H    0.158243
    25  H    0.149654
    26  H    0.152202
    27  H    0.152133
    28  H    0.154977
    29  H    0.156684
    30  H    0.160503
    31  C   -0.298460
    32  C   -0.300339
    33  C   -0.475758
    34  H    0.150057
    35  H    0.150159
    36  H    0.151659
    37  H    0.152047
    38  H    0.155338
    39  H    0.155633
    40  H    0.160319
 Sum of Mulliken charges =  -0.00000

 Dipole moment (field-independent basis, Debye):
    X=              0.0050    Y=              0.0018    Z=              0.0009  Tot=              0.0054
 Quadrupole moment (field-independent basis, Debye-Ang):
   XX=            -84.8565   YY=            -85.1702   ZZ=            -84.5629
   XY=             -1.2867   XZ=              1.3039   YZ=             -0.3781

 Normal termination of Gaussian 16 at Wed May  5 19:58:07 2021.
