 Gaussian 16, Revision A.03,
 Gaussian 16:  EM64L-G16RevA.03 25-Dec-2016

 -------------
 #p 6-31g* mp2
 -------------

 ------------------------------------------------------
 Input file generated by CHIRIPA (05-May-2021 14:51:10)
 ------------------------------------------------------
 Symbolic Z-matrix:
 Charge =  0 Multiplicity = 1

                         Standard orientation:
 ---------------------------------------------------------------------
 Center     Atomic      Atomic             Coordinates (Angstroms)
 Number     Number       Type             X           Y           Z
 ---------------------------------------------------------------------
      1          6           0        4.274714   -0.497426   -0.324541
      2          6           0        5.357736    0.333826    0.363986
      3          6           0        6.677997    0.339821   -0.407162
      4          1           0        4.634576   -1.528264   -0.446268
      5          1           0        4.107569   -0.103162   -1.336476
      6          1           0        5.521808   -0.061026    1.374821
      7          1           0        4.995179    1.362759    0.484261
      8          1           0        6.536046    0.753538   -1.410800
      9          1           0        7.065667   -0.678337   -0.515179
     10          1           0        7.438060    0.939918    0.102786
     11          6           0        2.948982   -0.513109    0.434351
     12          6           0        1.865960   -1.344361   -0.254175
     13          6           0        0.545699   -1.350355    0.516972
     14          1           0        3.116127   -0.907373    1.446287
     15          1           0        2.589120    0.517729    0.556079
     16          1           0        2.228517   -2.373294   -0.374450
     17          1           0        1.701888   -0.949508   -1.265010
     18          1           0        0.158029   -0.332197    0.624990
     19          1           0        0.687650   -1.764072    1.520610
     20          1           0       -0.214364   -1.950453    0.007024
     21          6           0       -3.662977   -0.254934   -0.108861
     22          6           0       -5.099809   -0.772752   -0.035623
     23          6           0       -5.185730   -2.295398   -0.144986
     24          1           0       -3.209786   -0.582201   -1.054619
     25          1           0       -3.073286   -0.715143    0.696042
     26          1           0       -5.686952   -0.310647   -0.839574
     27          1           0       -5.549694   -0.444053    0.909986
     28          1           0       -4.624063   -2.772101    0.664882
     29          1           0       -4.762100   -2.637936   -1.094620
     30          1           0       -6.221754   -2.644001   -0.090289
     31          6           0       -3.560719    1.265469   -0.000949
     32          6           0       -2.123887    1.783287   -0.074188
     33          6           0       -2.037966    3.305933    0.035175
     34          1           0       -4.150410    1.725677   -0.805853
     35          1           0       -4.013910    1.592735    0.944809
     36          1           0       -1.674003    1.454587   -1.019797
     37          1           0       -1.536745    1.321181    0.729764
     38          1           0       -2.461597    3.648471    0.984809
     39          1           0       -2.599633    3.782635   -0.774692
     40          1           0       -1.001942    3.654536   -0.019522
 ---------------------------------------------------------------------

 SCF Done:  E(RHF) =  -470.733117970     A.U. after   11 cycles
 E2 =    -0.1582907439D+01 EUMP2 =    -0.47231602540952D+03

 The electronic state is 1-A.
 Alpha  occ. eigenvalues --  -11.21607 -11.21590 -11.21581 -11.21555 -11.21391
 Alpha  occ. eigenvalues --  -11.21383 -11.21323 -11.21322 -11.21094 -11.21062
 Alpha  occ. eigenvalues --  -11.21056 -11.20955  -1.08429  -1.08396  -1.03540
 Alpha  occ. eigenvalues --   -1.03486  -0.95976  -0.95943  -0.87002  -0.86954
 Alpha  occ. eigenvalues --   -0.79651  -0.79521  -0.78274  -0.78171  -0.65078
 Alpha  occ. eigenvalues --   -0.65012  -0.60983  -0.60852  -0.59362  -0.59302
 Alpha  occ. eigenvalues --   -0.57630  -0.57513  -0.55275  -0.55228  -0.52710
 Alpha  occ. eigenvalues --   -0.52614  -0.52445  -0.52323  -0.49991  -0.49857
 Alpha  occ. eigenvalues --   -0.48049  -0.47750  -0.46744  -0.46510  -0.45865
 Alpha  occ. eigenvalues --   -0.45734  -0.45703  -0.45464  -0.43785  -0.43733
 Alpha virt. eigenvalues --    0.21971   0.23042   0.23821   0.24446   0.25584
 Alpha virt. eigenvalues --    0.26696   0.26905   0.27529   0.27988   0.29443
 Alpha virt. eigenvalues --    0.30011   0.31350   0.31673   0.31897   0.32094

 Mulliken charges:
               1
     1  C   -0.298240
     2  C   -0.299622
     3  C   -0.475686
     4  H    0.149630
     5  H    0.149437
     6  H    0.151880
     7  H    0.151864
     8  H    0.155148
     9  H    0.155166
    10  H    0.160202
    11  C   -0.298309
    12  C   -0.299381
    13  C   -0.482842
    14  H    0.149352
    15  H    0.149435
    16  H    0.151574
    17  H    0.151573
    18  H    0.162650
    19  H    0.153775
    20  H    0.161319
    21  C   -0.299906
    22  C   -0.299676
    23  C   -0.475738
    24  H    0.149504
    25  H    0.152565
    26  H    0.151750
    27  H    0.151864
    28  H    0.155379
    29  H    0.154968
    30  H    0.160188
    31  C   -0.297981
    32  C   -0.304674
    33  C   -0.475148
    34  H    0.149387
    35  H    0.149520
    36  H    0.152071
    37  H    0.156786
    38  H    0.155297
    39  H    0.155288
    40  H    0.159633
 Sum of Mulliken charges =  -0.00000

 Dipole moment (field-independent basis, Debye):
    X=             -0.0266    Y=              0.0099    Z=              0.0063  Tot=              0.0290
 Quadrupole moment (field-independent basis, Debye-Ang):
   XX=            -85.8613   YY=            -85.3555   ZZ=            -83.6719
   XY=             -0.5992   XZ=              0.6384   YZ=             -0.5307

 Normal termination of Gaussian 16 at Wed May  5 16:42:09 2021.
