 Gaussian 16, Revision A.03,
 Gaussian 16:  EM64L-G16RevA.03 25-Dec-2016

 -------------
 #p 6-31g* mp2
 -------------

 ------------------------------------------------------
 Input file generated by CHIRIPA (05-May-2021 14:51:13)
 ------------------------------------------------------
 Symbolic Z-matrix:
 Charge =  0 Multiplicity = 1

                         Standard orientation:
 ---------------------------------------------------------------------
 Center     Atomic      Atomic             Coordinates (Angstroms)
 Number     Number       Type             X           Y           Z
 ---------------------------------------------------------------------
      1          6           0       -3.736529    0.692067   -0.223955
      2          6           0       -5.004294    1.444251    0.182217
      3          6           0       -5.159418    2.778710   -0.547818
      4          1           0       -2.861710    1.325488   -0.022916
      5          1           0       -3.753600    0.517815   -1.308731
      6          1           0       -4.985492    1.615815    1.266112
      7          1           0       -5.876183    0.808891   -0.019634
      8          1           0       -5.203832    2.622626   -1.630530
      9          1           0       -4.308080    3.434134   -0.337479
     10          1           0       -6.072220    3.299659   -0.242424
     11          6           0       -3.567424   -0.643915    0.497351
     12          6           0       -2.299658   -1.396099    0.091180
     13          6           0       -2.144535   -2.730558    0.821214
     14          1           0       -3.550353   -0.469663    1.582127
     15          1           0       -4.442242   -1.277336    0.296312
     16          1           0       -1.427769   -0.760740    0.293031
     17          1           0       -2.318461   -1.567663   -0.992715
     18          1           0       -2.995873   -3.385982    0.610876
     19          1           0       -2.100121   -2.574474    1.903927
     20          1           0       -1.231733   -3.251507    0.515821
     21          6           0        3.814003    0.693621    0.068461
     22          6           0        5.314268    0.981542    0.133952
     23          6           0        5.622454    2.421416    0.545749
     24          1           0        3.344485    1.388069   -0.641638
     25          1           0        3.365053    0.899321    1.050055
     26          1           0        5.760491    0.774037   -0.847090
     27          1           0        5.780299    0.286201    0.843834
     28          1           0        5.204011    2.637389    1.534113
     29          1           0        5.184090    3.127997   -0.166419
     30          1           0        6.700588    2.605398    0.586198
     31          6           0        3.489950   -0.741773   -0.341857
     32          6           0        1.989684   -1.029694   -0.407348
     33          6           0        1.681499   -2.469569   -0.819145
     34          1           0        3.938900   -0.947473   -1.323452
     35          1           0        3.959467   -1.436221    0.368241
     36          1           0        1.523654   -0.334353   -1.117231
     37          1           0        1.543461   -0.822189    0.573693
     38          1           0        2.119863   -3.176148   -0.106977
     39          1           0        2.099942   -2.685541   -1.807508
     40          1           0        0.603363   -2.653550   -0.859595
 ---------------------------------------------------------------------

 SCF Done:  E(RHF) =  -470.733121729     A.U. after   11 cycles
 E2 =    -0.1582972316D+01 EUMP2 =    -0.47231609404532D+03

 The electronic state is 1-A.
 Alpha  occ. eigenvalues --  -11.21607 -11.21603 -11.21598 -11.21587 -11.21410
 Alpha  occ. eigenvalues --  -11.21401 -11.21350 -11.21341 -11.21078 -11.21069
 Alpha  occ. eigenvalues --  -11.21040 -11.21040  -1.08445  -1.08414  -1.03574
 Alpha  occ. eigenvalues --   -1.03484  -0.96040  -0.95918  -0.87046  -0.86944
 Alpha  occ. eigenvalues --   -0.79637  -0.79547  -0.78278  -0.78206  -0.65079
 Alpha  occ. eigenvalues --   -0.65039  -0.60971  -0.60884  -0.59760  -0.59077
 Alpha  occ. eigenvalues --   -0.57844  -0.57265  -0.55283  -0.55237  -0.52929
 Alpha  occ. eigenvalues --   -0.52550  -0.52464  -0.52153  -0.49927  -0.49905
 Alpha  occ. eigenvalues --   -0.48018  -0.47804  -0.46666  -0.46583  -0.45853
 Alpha  occ. eigenvalues --   -0.45746  -0.45724  -0.45641  -0.43883  -0.43666
 Alpha virt. eigenvalues --    0.21168   0.23084   0.23339   0.25284   0.26134
 Alpha virt. eigenvalues --    0.26685   0.26772   0.27168   0.28025   0.29054
 Alpha virt. eigenvalues --    0.30369   0.30950   0.31441   0.31568   0.32313

 Mulliken charges:
               1
     1  C   -0.298351
     2  C   -0.299649
     3  C   -0.475709
     4  H    0.149817
     5  H    0.149453
     6  H    0.151913
     7  H    0.151937
     8  H    0.155145
     9  H    0.155199
    10  H    0.160244
    11  C   -0.298293
    12  C   -0.303045
    13  C   -0.480807
    14  H    0.149498
    15  H    0.149682
    16  H    0.156111
    17  H    0.151412
    18  H    0.155200
    19  H    0.155084
    20  H    0.164608
    21  C   -0.298284
    22  C   -0.299632
    23  C   -0.475707
    24  H    0.149650
    25  H    0.149287
    26  H    0.151989
    27  H    0.151973
    28  H    0.155112
    29  H    0.155182
    30  H    0.160292
    31  C   -0.298586
    32  C   -0.299701
    33  C   -0.482948
    34  H    0.149652
    35  H    0.149677
    36  H    0.152409
    37  H    0.152155
    38  H    0.154717
    39  H    0.155069
    40  H    0.168246
 Sum of Mulliken charges =  -0.00000

 Dipole moment (field-independent basis, Debye):
    X=              0.0035    Y=              0.0023    Z=             -0.0044  Tot=              0.0060
 Quadrupole moment (field-independent basis, Debye-Ang):
   XX=            -84.8164   YY=            -86.5032   ZZ=            -83.5211
   XY=              0.1035   XZ=              0.1925   YZ=              0.2338

 Normal termination of Gaussian 16 at Thu May  6 05:35:31 2021.
