 Gaussian 16, Revision A.03,
 Gaussian 16:  EM64L-G16RevA.03 25-Dec-2016

 -------------
 #p 6-31g* mp2
 -------------

 ------------------------------------------------------
 Input file generated by CHIRIPA (05-May-2021 14:55:21)
 ------------------------------------------------------
 Symbolic Z-matrix:
 Charge =  0 Multiplicity = 1

                         Standard orientation:
 ---------------------------------------------------------------------
 Center     Atomic      Atomic             Coordinates (Angstroms)
 Number     Number       Type             X           Y           Z
 ---------------------------------------------------------------------
      1          6           0       -0.668368   -0.384930    0.495760
      2          6           0       -1.231024   -0.779194   -0.722639
      3          6           0       -2.590696   -0.575018   -0.975925
      4          6           0       -3.361835    0.028973    0.015957
      5          6           0       -2.830531    0.432818    1.239851
      6          6           0       -1.468506    0.218754    1.471396
      7          1           0        0.388772   -0.547379    0.684074
      8          1           0       -0.612036   -1.248256   -1.482165
      9          1           0       -3.052126   -0.870511   -1.910368
     10          1           0       -3.472965    0.897941    1.977657
     11          1           0       -1.034249    0.525965    2.418542
     12          7           0       -4.802504    0.250359   -0.240677
     13          8           0       -5.460437    0.784553    0.649489
     14          8           0       -5.246487   -0.114506   -1.327134
     15          6           0        4.287096   -0.694049   -0.000977
     16          6           0        3.216195   -1.783443    0.065167
     17          6           0        3.807684   -3.185679    0.212372
     18          1           0        4.959390   -0.900427   -0.844999
     19          1           0        4.903175   -0.739597    0.907741
     20          1           0        2.601451   -1.734960   -0.842772
     21          1           0        2.546259   -1.574342    0.909014
     22          1           0        4.405147   -3.257705    1.126949
     23          1           0        4.460652   -3.419236   -0.634791
     24          1           0        3.024630   -3.948982    0.257686
     25          6           0        3.711356    0.713286   -0.148153
     26          6           0        4.782257    1.802680   -0.214297
     27          6           0        4.190767    3.204917   -0.361501
     28          1           0        3.095277    0.758834   -1.056870
     29          1           0        3.039061    0.919665    0.695870
     30          1           0        5.452193    1.593579   -1.058144
     31          1           0        5.397001    1.754198    0.693643
     32          1           0        3.537799    3.438474    0.485661
     33          1           0        3.593305    3.276943   -1.276079
     34          1           0        4.973821    3.968219   -0.406817
 ---------------------------------------------------------------------

 SCF Done:  E(RHF) =  -669.535558547     A.U. after   15 cycles
 E2 =    -0.2091577615D+01 EUMP2 =    -0.67162713616245D+03

 The electronic state is 1-A.
 Alpha  occ. eigenvalues --  -20.60690 -20.60685 -15.85744 -11.31084 -11.27662
 Alpha  occ. eigenvalues --  -11.27658 -11.27316 -11.26656 -11.26644 -11.22961
 Alpha  occ. eigenvalues --  -11.22466 -11.22414 -11.22369 -11.22084 -11.21724
 Alpha  occ. eigenvalues --   -1.59767  -1.39321  -1.19254  -1.09479  -1.08643
 Alpha  occ. eigenvalues --   -1.04660  -1.04504  -0.96907  -0.95486  -0.87927
 Alpha  occ. eigenvalues --   -0.86053  -0.82331  -0.80620  -0.79305  -0.77381
 Alpha  occ. eigenvalues --   -0.71962  -0.71090  -0.70349  -0.66101  -0.64902
 Alpha  occ. eigenvalues --   -0.64668  -0.62017  -0.61896  -0.60304  -0.58535
 Alpha  occ. eigenvalues --   -0.56176  -0.55176  -0.53587  -0.53323  -0.52984
 Alpha  occ. eigenvalues --   -0.52751  -0.50850  -0.48896  -0.48719  -0.48716
 Alpha  occ. eigenvalues --   -0.47652  -0.46795  -0.46733  -0.44763  -0.44732
 Alpha  occ. eigenvalues --   -0.37216  -0.36272
 Alpha virt. eigenvalues --    0.05153   0.11382   0.16628   0.19461   0.22485
 Alpha virt. eigenvalues --    0.23508   0.24175   0.25360   0.27059   0.27661
 Alpha virt. eigenvalues --    0.29685   0.29907   0.31027   0.31267   0.31712

 Mulliken charges:
               1
     1  C   -0.177421
     2  C   -0.222916
     3  C   -0.170765
     4  C    0.158014
     5  C   -0.170582
     6  C   -0.221385
     7  H    0.239333
     8  H    0.223360
     9  H    0.275101
    10  H    0.275109
    11  H    0.222788
    12  N    0.488041
    13  O   -0.460777
    14  O   -0.460805
    15  C   -0.298048
    16  C   -0.305799
    17  C   -0.475327
    18  H    0.154065
    19  H    0.152914
    20  H    0.148127
    21  H    0.146460
    22  H    0.158750
    23  H    0.159186
    24  H    0.162194
    25  C   -0.300039
    26  C   -0.300333
    27  C   -0.476282
    28  H    0.149558
    29  H    0.144381
    30  H    0.154526
    31  H    0.153660
    32  H    0.154975
    33  H    0.156693
    34  H    0.163246
 Sum of Mulliken charges =  -0.00000

 Dipole moment (field-independent basis, Debye):
    X=              5.4068    Y=             -0.7884    Z=              0.8717  Tot=              5.5331
 Quadrupole moment (field-independent basis, Debye-Ang):
   XX=           -128.4833   YY=            -95.3267   ZZ=            -89.7424
   XY=              2.7250   XZ=             -3.6457   YZ=              2.3658

 Normal termination of Gaussian 16 at Thu May  6 17:31:21 2021.
