 Gaussian 16, Revision A.03,
 Gaussian 16:  EM64L-G16RevA.03 25-Dec-2016

 -------------
 #p 6-31g* mp2
 -------------

 ------------------------------------------------------
 Input file generated by CHIRIPA (05-May-2021 14:55:21)
 ------------------------------------------------------
 Symbolic Z-matrix:
 Charge =  0 Multiplicity = 1

                         Standard orientation:
 ---------------------------------------------------------------------
 Center     Atomic      Atomic             Coordinates (Angstroms)
 Number     Number       Type             X           Y           Z
 ---------------------------------------------------------------------
      1          6           0        1.489607    1.761822    0.816819
      2          6           0        1.756263    0.692076    1.677667
      3          6           0        2.639304   -0.322680    1.296803
      4          6           0        3.240831   -0.235569    0.042264
      5          6           0        2.995543    0.817393   -0.837734
      6          6           0        2.109007    1.820962   -0.435926
      7          1           0        0.802282    2.545763    1.120818
      8          1           0        1.276671    0.643540    2.651156
      9          1           0        2.863729   -1.162182    1.943554
     10          1           0        3.488823    0.838304   -1.801920
     11          1           0        1.903804    2.650552   -1.106535
     12          7           0        4.177518   -1.303924   -0.372026
     13          8           0        4.694632   -1.203986   -1.482540
     14          8           0        4.376842   -2.221009    0.421613
     15          6           0       -4.081130   -0.645519    0.072058
     16          6           0       -5.466361   -1.155055   -0.327310
     17          6           0       -5.712440   -2.600307    0.106836
     18          1           0       -3.315880   -1.298060   -0.370127
     19          1           0       -3.968694   -0.726097    1.162132
     20          1           0       -5.576667   -1.072248   -1.416159
     21          1           0       -6.228398   -0.501111    0.115719
     22          1           0       -5.629456   -2.695307    1.194352
     23          1           0       -4.974023   -3.269689   -0.346230
     24          1           0       -6.708546   -2.944215   -0.188732
     25          6           0       -3.820192    0.797816   -0.355051
     26          6           0       -2.434961    1.307351    0.044317
     27          6           0       -2.188882    2.752604   -0.389830
     28          1           0       -3.932629    0.878395   -1.445125
     29          1           0       -4.585441    1.450358    0.087133
     30          1           0       -1.672925    0.653409   -0.398712
     31          1           0       -2.324655    1.224545    1.133166
     32          1           0       -2.927299    3.421986    0.063236
     33          1           0       -2.271866    2.847605   -1.477345
     34          1           0       -1.192776    3.096512   -0.094262
 ---------------------------------------------------------------------

 SCF Done:  E(RHF) =  -669.535374058     A.U. after   15 cycles
 E2 =    -0.2091649188D+01 EUMP2 =    -0.67162702324586D+03

 The electronic state is 1-A.
 Alpha  occ. eigenvalues --  -20.60764 -20.60759 -15.85818 -11.31185 -11.27754
 Alpha  occ. eigenvalues --  -11.27749 -11.27486 -11.26771 -11.26760 -11.22343
 Alpha  occ. eigenvalues --  -11.22061 -11.21957 -11.21942 -11.21805 -11.21335
 Alpha  occ. eigenvalues --   -1.59840  -1.39394  -1.19359  -1.08971  -1.08751
 Alpha  occ. eigenvalues --   -1.04761  -1.04102  -0.96569  -0.95585  -0.87581
 Alpha  occ. eigenvalues --   -0.86157  -0.82420  -0.80166  -0.78745  -0.77465
 Alpha  occ. eigenvalues --   -0.72036  -0.71164  -0.70499  -0.65590  -0.65012
 Alpha  occ. eigenvalues --   -0.64769  -0.62108  -0.61486  -0.60010  -0.58195
 Alpha  occ. eigenvalues --   -0.55831  -0.55268  -0.53292  -0.53082  -0.52919
 Alpha  occ. eigenvalues --   -0.52851  -0.50483  -0.48796  -0.48791  -0.48482
 Alpha  occ. eigenvalues --   -0.47182  -0.46295  -0.46194  -0.44799  -0.44355
 Alpha  occ. eigenvalues --   -0.37313  -0.36364
 Alpha virt. eigenvalues --    0.05045   0.11260   0.16465   0.19964   0.22594
 Alpha virt. eigenvalues --    0.24041   0.26060   0.26217   0.26787   0.27510
 Alpha virt. eigenvalues --    0.28692   0.30499   0.30913   0.31375   0.31973

 Mulliken charges:
               1
     1  C   -0.169395
     2  C   -0.219176
     3  C   -0.171076
     4  C    0.158388
     5  C   -0.171249
     6  C   -0.219878
     7  H    0.228456
     8  H    0.223660
     9  H    0.275583
    10  H    0.275579
    11  H    0.223869
    12  N    0.488060
    13  O   -0.460505
    14  O   -0.460415
    15  C   -0.298815
    16  C   -0.300097
    17  C   -0.476094
    18  H    0.151864
    19  H    0.148703
    20  H    0.152896
    21  H    0.151992
    22  H    0.155090
    23  H    0.156631
    24  H    0.161440
    25  C   -0.298864
    26  C   -0.300964
    27  C   -0.476535
    28  H    0.151333
    29  H    0.150140
    30  H    0.157805
    31  H    0.147327
    32  H    0.158243
    33  H    0.159089
    34  H    0.146914
 Sum of Mulliken charges =  -0.00000

 Dipole moment (field-independent basis, Debye):
    X=             -3.4202    Y=              3.6894    Z=              1.4181  Tot=              5.2269
 Quadrupole moment (field-independent basis, Debye-Ang):
   XX=           -116.4235   YY=            -97.1341   ZZ=            -90.2269
   XY=             13.1000   XZ=              3.7663   YZ=             -2.0360

 Normal termination of Gaussian 16 at Thu May  6 12:30:55 2021.
