 Gaussian 16, Revision A.03,
 Gaussian 16:  EM64L-G16RevA.03 25-Dec-2016

 -------------
 #p 6-31g* mp2
 -------------

 ------------------------------------------------------
 Input file generated by CHIRIPA (05-May-2021 14:57:24)
 ------------------------------------------------------
 Symbolic Z-matrix:
 Charge =  0 Multiplicity = 1

                         Standard orientation:
 ---------------------------------------------------------------------
 Center     Atomic      Atomic             Coordinates (Angstroms)
 Number     Number       Type             X           Y           Z
 ---------------------------------------------------------------------
      1          6           0       -3.084056    2.163349    0.652253
      2          6           0       -2.455490    2.174761   -0.597265
      3          6           0       -1.949115    0.993797   -1.148132
      4          6           0       -2.089201   -0.185962   -0.418862
      5          6           0       -2.710356   -0.229697    0.828352
      6          6           0       -3.209263    0.963272    1.359826
      7          1           0       -3.474520    3.085414    1.072648
      8          1           0       -2.356835    3.105286   -1.149023
      9          1           0       -1.457999    0.974074   -2.113448
     10          1           0       -2.793751   -1.172792    1.354693
     11          1           0       -3.696943    0.951416    2.330430
     12          7           0       -1.557078   -1.442551   -0.991775
     13          8           0       -1.693117   -2.468831   -0.329296
     14          8           0       -1.014037   -1.377391   -2.092456
     15          6           0        3.113803    2.108628   -0.651383
     16          6           0        3.102026    0.935530   -1.413106
     17          6           0        2.585361   -0.250312   -0.882649
     18          6           0        2.086325   -0.227037    0.418778
     19          6           0        2.084133    0.925664    1.202722
     20          6           0        2.605715    2.099967    0.651802
     21          1           0        3.517070    3.025337   -1.071403
     22          1           0        3.495949    0.939306   -2.425458
     23          1           0        2.563954   -1.172679   -1.450272
     24          1           0        1.684449    0.890805    2.208930
     25          1           0        2.613575    3.009522    1.245681
     26          7           0        1.536753   -1.476327    0.991181
     27          8           0        1.103014   -1.429571    2.140233
     28          8           0        1.550144   -2.478621    0.279939
 ---------------------------------------------------------------------

 SCF Done:  E(RHF) =  -868.336209182     A.U. after   16 cycles
 E2 =    -0.2603181292D+01 EUMP2 =    -0.87093939047423D+03

 The electronic state is 1-A.
 Alpha  occ. eigenvalues --  -20.60279 -20.60266 -20.60140 -20.60126 -15.85251
 Alpha  occ. eigenvalues --  -15.85236 -11.30845 -11.30815 -11.27511 -11.27491
 Alpha  occ. eigenvalues --  -11.27384 -11.27344 -11.27273 -11.27260 -11.26560
 Alpha  occ. eigenvalues --  -11.26537 -11.26469 -11.26442  -1.59313  -1.59234
 Alpha  occ. eigenvalues --   -1.38828  -1.38805  -1.19061  -1.19026  -1.08429
 Alpha  occ. eigenvalues --   -1.08391  -1.04479  -1.04452  -0.95228  -0.95166
 Alpha  occ. eigenvalues --   -0.85872  -0.85845  -0.82032  -0.82005  -0.77036
 Alpha  occ. eigenvalues --   -0.77007  -0.71506  -0.71437  -0.71205  -0.70170
 Alpha  occ. eigenvalues --   -0.70134  -0.70037  -0.64701  -0.64676  -0.64487
 Alpha  occ. eigenvalues --   -0.64460  -0.61815  -0.61781  -0.54998  -0.54978
 Alpha  occ. eigenvalues --   -0.52955  -0.52661  -0.52572  -0.52542  -0.48284
 Alpha  occ. eigenvalues --   -0.48247  -0.48209  -0.48159  -0.44272  -0.44004
 Alpha  occ. eigenvalues --   -0.37236  -0.36892  -0.36101  -0.36031
 Alpha virt. eigenvalues --    0.05103   0.05876   0.11539   0.11607   0.16845
 Alpha virt. eigenvalues --    0.17012   0.21622   0.21704   0.27553   0.27593
 Alpha virt. eigenvalues --    0.28532   0.28661   0.31074   0.31252   0.32880

 Mulliken charges:
               1
     1  C   -0.172391
     2  C   -0.219341
     3  C   -0.170268
     4  C    0.152925
     5  C   -0.166012
     6  C   -0.219713
     7  H    0.223066
     8  H    0.219566
     9  H    0.272510
    10  H    0.282476
    11  H    0.223717
    12  N    0.484868
    13  O   -0.443672
    14  O   -0.467654
    15  C   -0.172674
    16  C   -0.220912
    17  C   -0.165348
    18  C    0.152150
    19  C   -0.170428
    20  C   -0.219760
    21  H    0.222815
    22  H    0.223677
    23  H    0.284600
    24  H    0.272943
    25  H    0.219648
    26  N    0.483280
    27  O   -0.466896
    28  O   -0.443171
 Sum of Mulliken charges =  -0.00000

 Dipole moment (field-independent basis, Debye):
    X=              0.0349    Y=              8.3291    Z=             -0.0077  Tot=              8.3292
 Quadrupole moment (field-independent basis, Debye-Ang):
   XX=            -89.7801   YY=           -106.7358   ZZ=           -102.1097
   XY=              0.1566   XZ=             -9.9946   YZ=              0.1458

 Normal termination of Gaussian 16 at Fri May  7 00:22:46 2021.
