 Gaussian 16, Revision A.03,
 Gaussian 16:  EM64L-G16RevA.03 25-Dec-2016

 -------------
 #p 6-31g* mp2
 -------------

 ------------------------------------------------------
 Input file generated by CHIRIPA (05-May-2021 14:55:24)
 ------------------------------------------------------
 Symbolic Z-matrix:
 Charge =  0 Multiplicity = 1

                         Standard orientation:
 ---------------------------------------------------------------------
 Center     Atomic      Atomic             Coordinates (Angstroms)
 Number     Number       Type             X           Y           Z
 ---------------------------------------------------------------------
      1          6           0        4.653759    2.405790    0.130494
      2          6           0        3.324423    2.275838   -0.284836
      3          6           0        2.732701    1.013318   -0.387089
      4          6           0        3.502952   -0.102960   -0.064713
      5          6           0        4.829683   -0.006117    0.352056
      6          6           0        5.400829    1.266406    0.447057
      7          1           0        5.105432    3.390431    0.207109
      8          1           0        2.741841    3.158949   -0.531329
      9          1           0        1.705586    0.883922   -0.706007
     10          1           0        5.385163   -0.904882    0.590973
     11          1           0        6.433420    1.364310    0.769882
     12          7           0        2.887414   -1.444829   -0.169124
     13          8           0        3.587338   -2.412706    0.120630
     14          8           0        1.716686   -1.503299   -0.538739
     15          6           0       -4.275627   -0.826387    0.176691
     16          6           0       -2.770054   -0.804301   -0.089294
     17          6           0       -2.108043   -2.162152    0.146873
     18          1           0       -4.453953   -1.147740    1.212006
     19          1           0       -4.744129   -1.581193   -0.469968
     20          1           0       -2.304721   -0.048793    0.556684
     21          1           0       -2.595284   -0.482779   -1.124039
     22          1           0       -2.545222   -2.922958   -0.507841
     23          1           0       -2.253009   -2.486505    1.182431
     24          1           0       -1.031951   -2.123659   -0.049101
     25          6           0       -4.951638    0.523805   -0.055079
     26          6           0       -6.457210    0.501719    0.210907
     27          6           0       -7.119221    1.859571   -0.025260
     28          1           0       -4.483135    1.278611    0.591581
     29          1           0       -4.773312    0.845158   -1.090393
     30          1           0       -6.631981    0.180198    1.245651
     31          1           0       -6.922544   -0.253788   -0.435072
     32          1           0       -6.974256    2.183924   -1.060819
     33          1           0       -6.682042    2.620376    0.629453
     34          1           0       -8.195313    1.821078    0.170713
 ---------------------------------------------------------------------

 SCF Done:  E(RHF) =  -669.536223376     A.U. after   15 cycles
 E2 =    -0.2090686426D+01 EUMP2 =    -0.67162690980116D+03

 The electronic state is 1-A.
 Alpha  occ. eigenvalues --  -20.60938 -20.60928 -15.85977 -11.31284 -11.27846
 Alpha  occ. eigenvalues --  -11.27841 -11.27584 -11.26853 -11.26843 -11.21322
 Alpha  occ. eigenvalues --  -11.21028 -11.20883 -11.20881 -11.20810 -11.19814
 Alpha  occ. eigenvalues --   -1.59997  -1.39554  -1.19452  -1.08858  -1.07946
 Alpha  occ. eigenvalues --   -1.04847  -1.02955  -0.95705  -0.95372  -0.86388
 Alpha  occ. eigenvalues --   -0.86247  -0.82537  -0.79051  -0.77751  -0.77590
 Alpha  occ. eigenvalues --   -0.72205  -0.71311  -0.70561  -0.65109  -0.64850
 Alpha  occ. eigenvalues --   -0.64588  -0.62193  -0.60368  -0.58769  -0.56960
 Alpha  occ. eigenvalues --   -0.55352  -0.54686  -0.53180  -0.52939  -0.52001
 Alpha  occ. eigenvalues --   -0.51795  -0.49347  -0.48956  -0.48940  -0.47339
 Alpha  occ. eigenvalues --   -0.46120  -0.45284  -0.45219  -0.44966  -0.43169
 Alpha  occ. eigenvalues --   -0.37431  -0.36448
 Alpha virt. eigenvalues --    0.04926   0.11207   0.16411   0.21287   0.23294
 Alpha virt. eigenvalues --    0.24868   0.27057   0.27213   0.27740   0.28188
 Alpha virt. eigenvalues --    0.28858   0.30850   0.31907   0.32033   0.32390

 Mulliken charges:
               1
     1  C   -0.170597
     2  C   -0.218604
     3  C   -0.170803
     4  C    0.157558
     5  C   -0.170591
     6  C   -0.218615
     7  H    0.225971
     8  H    0.223962
     9  H    0.276173
    10  H    0.275846
    11  H    0.223771
    12  N    0.493855
    13  O   -0.458654
    14  O   -0.465794
    15  C   -0.297282
    16  C   -0.298001
    17  C   -0.488085
    18  H    0.148738
    19  H    0.149308
    20  H    0.146246
    21  H    0.149281
    22  H    0.151529
    23  H    0.150142
    24  H    0.190101
    25  C   -0.297422
    26  C   -0.299181
    27  C   -0.475331
    28  H    0.146891
    29  H    0.148054
    30  H    0.151701
    31  H    0.152081
    32  H    0.154359
    33  H    0.153852
    34  H    0.159539
 Sum of Mulliken charges =  -0.00000

 Dipole moment (field-independent basis, Debye):
    X=              2.4575    Y=              4.6693    Z=              0.3469  Tot=              5.2879
 Quadrupole moment (field-independent basis, Debye-Ang):
   XX=            -77.1430   YY=            -96.0721   ZZ=            -94.3212
   XY=             15.2228   XZ=              2.8787   YZ=             -0.6666

 Normal termination of Gaussian 16 at Thu May  6 19:19:15 2021.
