 Gaussian 16, Revision A.03,
 Gaussian 16:  EM64L-G16RevA.03 25-Dec-2016

 -------------
 #p 6-31g* mp2
 -------------

 ------------------------------------------------------
 Input file generated by CHIRIPA (05-May-2021 14:53:12)
 ------------------------------------------------------
 Symbolic Z-matrix:
 Charge =  0 Multiplicity = 1

                         Standard orientation:
 ---------------------------------------------------------------------
 Center     Atomic      Atomic             Coordinates (Angstroms)
 Number     Number       Type             X           Y           Z
 ---------------------------------------------------------------------
      1          6           0        2.627338    0.413438   -0.656734
      2          6           0        3.650117   -0.479923    0.045984
      3          6           0        4.260255   -1.526750   -0.886583
      4          1           0        1.829814   -0.214016   -1.077688
      5          1           0        3.111383    0.915248   -1.506018
      6          1           0        3.164643   -0.978835    0.894522
      7          1           0        4.445200    0.149746    0.465479
      8          1           0        4.769581   -1.043974   -1.726890
      9          1           0        3.481748   -2.178968   -1.295409
     10          1           0        4.988612   -2.154410   -0.363708
     11          6           0        2.008564    1.465007    0.262531
     12          6           0        0.985784    2.358368   -0.440187
     13          6           0        0.375646    3.405194    0.492380
     14          1           0        1.524519    0.963197    1.111815
     15          1           0        2.806088    2.092461    0.683485
     16          1           0        0.190702    1.728698   -0.859682
     17          1           0        1.471259    2.857279   -1.288725
     18          1           0        1.154153    4.057412    0.901206
     19          1           0       -0.133680    2.922419    1.332687
     20          1           0       -0.352711    4.032855   -0.030495
     21          6           0        0.138680   -1.702951    1.429035
     22          6           0       -0.794482   -0.893900    2.085667
     23          6           0       -1.878602   -0.351537    1.389193
     24          6           0       -1.999377   -0.640070    0.030719
     25          6           0       -1.086281   -1.442566   -0.651592
     26          6           0       -0.009935   -1.974223    0.064907
     27          1           0        0.977831   -2.120113    1.977850
     28          1           0       -0.681590   -0.681537    3.145006
     29          1           0       -2.615706    0.277963    1.872749
     30          1           0       -1.225418   -1.636466   -1.708218
     31          1           0        0.713232   -2.602211   -0.447641
     32          7           0       -3.142971   -0.071562   -0.717206
     33          8           0       -3.226916   -0.340782   -1.913496
     34          8           0       -3.933721    0.632490   -0.092977
 ---------------------------------------------------------------------

 SCF Done:  E(RHF) =  -669.533732848     A.U. after   15 cycles
 E2 =    -0.2097420377D+01 EUMP2 =    -0.67163115322515D+03

 The electronic state is 1-A.
 Alpha  occ. eigenvalues --  -20.60896 -20.60891 -15.85954 -11.31392 -11.27948
 Alpha  occ. eigenvalues --  -11.27944 -11.27673 -11.26979 -11.26960 -11.22281
 Alpha  occ. eigenvalues --  -11.21857 -11.21663 -11.21621 -11.21488 -11.21079
 Alpha  occ. eigenvalues --   -1.59972  -1.39522  -1.19577  -1.09004  -1.08697
 Alpha  occ. eigenvalues --   -1.04986  -1.03883  -0.96319  -0.95770  -0.87349
 Alpha  occ. eigenvalues --   -0.86366  -0.82607  -0.79972  -0.78525  -0.77635
 Alpha  occ. eigenvalues --   -0.72168  -0.71301  -0.70666  -0.65582  -0.65213
 Alpha  occ. eigenvalues --   -0.64881  -0.62333  -0.61274  -0.59715  -0.57916
 Alpha  occ. eigenvalues --   -0.55702  -0.55470  -0.53222  -0.53063  -0.53023
 Alpha  occ. eigenvalues --   -0.52727  -0.50306  -0.48935  -0.48919  -0.48287
 Alpha  occ. eigenvalues --   -0.47032  -0.46059  -0.46014  -0.44908  -0.44083
 Alpha  occ. eigenvalues --   -0.37436  -0.36464
 Alpha virt. eigenvalues --    0.04836   0.10946   0.16180   0.19338   0.23112
 Alpha virt. eigenvalues --    0.23538   0.25316   0.26072   0.27505   0.28223
 Alpha virt. eigenvalues --    0.28665   0.29474   0.31304   0.31672   0.32192

 Mulliken charges:
               1
     1  C   -0.299988
     2  C   -0.301073
     3  C   -0.475601
     4  H    0.150882
     5  H    0.151005
     6  H    0.140873
     7  H    0.155531
     8  H    0.160584
     9  H    0.146879
    10  H    0.160913
    11  C   -0.300954
    12  C   -0.300799
    13  C   -0.475814
    14  H    0.150684
    15  H    0.147827
    16  H    0.153808
    17  H    0.152424
    18  H    0.153761
    19  H    0.151166
    20  H    0.165170
    21  C   -0.170221
    22  C   -0.219239
    23  C   -0.170967
    24  C    0.161067
    25  C   -0.172616
    26  C   -0.218121
    27  H    0.227852
    28  H    0.225040
    29  H    0.276809
    30  H    0.276937
    31  H    0.227913
    32  N    0.487597
    33  O   -0.459772
    34  O   -0.459557
 Sum of Mulliken charges =  -0.00000

 Dipole moment (field-independent basis, Debye):
    X=              3.8944    Y=             -2.0117    Z=              2.6228  Tot=              5.1081
 Quadrupole moment (field-independent basis, Debye-Ang):
   XX=           -110.8161   YY=            -92.0439   ZZ=            -91.5038
   XY=              1.5890   XZ=             -6.7615   YZ=             -0.3954

 Normal termination of Gaussian 16 at Thu May  6 15:21:49 2021.
