 Gaussian 16, Revision A.03,
 Gaussian 16:  EM64L-G16RevA.03 25-Dec-2016

 -------------
 #p 6-31g* mp2
 -------------

 ------------------------------------------------------
 Input file generated by CHIRIPA (05-May-2021 14:51:13)
 ------------------------------------------------------
 Symbolic Z-matrix:
 Charge =  0 Multiplicity = 1

                         Standard orientation:
 ---------------------------------------------------------------------
 Center     Atomic      Atomic             Coordinates (Angstroms)
 Number     Number       Type             X           Y           Z
 ---------------------------------------------------------------------
      1          6           0       -2.991137    0.773650   -0.306983
      2          6           0       -3.731038    1.371534    0.890124
      3          6           0       -3.936599    2.881384    0.764061
      4          1           0       -2.016897    1.270187   -0.413064
      5          1           0       -3.555048    0.992534   -1.224310
      6          1           0       -3.166611    1.150396    1.805075
      7          1           0       -4.703550    0.873384    0.993482
      8          1           0       -4.519241    3.117338   -0.132296
      9          1           0       -2.973569    3.395923    0.683908
     10          1           0       -4.467425    3.288011    1.630513
     11          6           0       -2.778043   -0.734963   -0.195608
     12          6           0       -2.038141   -1.332847   -1.392715
     13          6           0       -1.832581   -2.842697   -1.266652
     14          1           0       -2.214132   -0.953846    0.721719
     15          1           0       -3.752283   -1.231500   -0.089527
     16          1           0       -1.065630   -0.834697   -1.496073
     17          1           0       -2.602569   -1.111708   -2.307666
     18          1           0       -2.795610   -3.357236   -1.186499
     19          1           0       -1.249938   -3.078651   -0.370295
     20          1           0       -1.301755   -3.249324   -2.133104
     21          6           0        3.080507    0.714553    0.331569
     22          6           0        3.675958    1.325485   -0.937362
     23          6           0        4.062939    2.794138   -0.761012
     24          1           0        2.196751    1.294746    0.630392
     25          1           0        3.807022    0.807457    1.150679
     26          1           0        2.949079    1.230214   -1.754177
     27          1           0        4.558289    0.743654   -1.233306
     28          1           0        4.806261    2.903724    0.035269
     29          1           0        3.187909    3.393049   -0.488562
     30          1           0        4.486453    3.210868   -1.680159
     31          6           0        2.688673   -0.753240    0.171022
     32          6           0        2.093221   -1.364172    1.439953
     33          6           0        1.706241   -2.832824    1.263603
     34          1           0        1.962158   -0.846144   -0.648089
     35          1           0        3.572429   -1.333434   -0.127801
     36          1           0        1.210891   -0.782341    1.735897
     37          1           0        2.820100   -1.268902    2.256769
     38          1           0        2.581270   -3.431736    0.991153
     39          1           0        0.962918   -2.942412    0.467323
     40          1           0        1.282727   -3.249556    2.182751
 ---------------------------------------------------------------------

 SCF Done:  E(RHF) =  -470.733338888     A.U. after   11 cycles
 E2 =    -0.1583072304D+01 EUMP2 =    -0.47231641119210D+03

 The electronic state is 1-A.
 Alpha  occ. eigenvalues --  -11.21666 -11.21651 -11.21639 -11.21633 -11.21455
 Alpha  occ. eigenvalues --  -11.21450 -11.21396 -11.21391 -11.21103 -11.21096
 Alpha  occ. eigenvalues --  -11.21096 -11.21080  -1.08488  -1.08463  -1.03595
 Alpha  occ. eigenvalues --   -1.03546  -0.96051  -0.95988  -0.87081  -0.86991
 Alpha  occ. eigenvalues --   -0.79666  -0.79601  -0.78293  -0.78282  -0.65233
 Alpha  occ. eigenvalues --   -0.64995  -0.61172  -0.60784  -0.59395  -0.59374
 Alpha  occ. eigenvalues --   -0.57669  -0.57595  -0.55528  -0.55114  -0.52719
 Alpha  occ. eigenvalues --   -0.52705  -0.52508  -0.52378  -0.50207  -0.49717
 Alpha  occ. eigenvalues --   -0.48025  -0.47875  -0.46745  -0.46544  -0.45903
 Alpha  occ. eigenvalues --   -0.45801  -0.45742  -0.45692  -0.43830  -0.43822
 Alpha virt. eigenvalues --    0.19520   0.23397   0.23500   0.25168   0.25713
 Alpha virt. eigenvalues --    0.26332   0.26612   0.28046   0.28565   0.28905
 Alpha virt. eigenvalues --    0.30682   0.31330   0.31643   0.31736   0.31815

 Mulliken charges:
               1
     1  C   -0.298218
     2  C   -0.299715
     3  C   -0.475699
     4  H    0.149019
     5  H    0.149751
     6  H    0.151931
     7  H    0.152154
     8  H    0.155286
     9  H    0.155045
    10  H    0.160455
    11  C   -0.298762
    12  C   -0.301239
    13  C   -0.481493
    14  H    0.149908
    15  H    0.150081
    16  H    0.152090
    17  H    0.152449
    18  H    0.155788
    19  H    0.160853
    20  H    0.160345
    21  C   -0.298171
    22  C   -0.299722
    23  C   -0.475699
    24  H    0.149089
    25  H    0.149780
    26  H    0.151915
    27  H    0.152133
    28  H    0.155264
    29  H    0.155093
    30  H    0.160444
    31  C   -0.300151
    32  C   -0.299384
    33  C   -0.482944
    34  H    0.150787
    35  H    0.150099
    36  H    0.151131
    37  H    0.152277
    38  H    0.155680
    39  H    0.162293
    40  H    0.160056
 Sum of Mulliken charges =  -0.00000

 Dipole moment (field-independent basis, Debye):
    X=             -0.0054    Y=             -0.0130    Z=             -0.0048  Tot=              0.0148
 Quadrupole moment (field-independent basis, Debye-Ang):
   XX=            -83.1065   YY=            -86.9543   ZZ=            -84.5074
   XY=             -0.2225   XZ=              0.7241   YZ=             -0.0287

 Normal termination of Gaussian 16 at Wed May  5 18:23:04 2021.
