 Gaussian 16, Revision A.03,
 Gaussian 16:  EM64L-G16RevA.03 25-Dec-2016

 -------------
 #p 6-31g* mp2
 -------------

 ------------------------------------------------------
 Input file generated by CHIRIPA (05-May-2021 14:51:14)
 ------------------------------------------------------
 Symbolic Z-matrix:
 Charge =  0 Multiplicity = 1

                         Standard orientation:
 ---------------------------------------------------------------------
 Center     Atomic      Atomic             Coordinates (Angstroms)
 Number     Number       Type             X           Y           Z
 ---------------------------------------------------------------------
      1          6           0       -2.883906   -0.655310    0.808782
      2          6           0       -1.416050   -0.979855    1.088164
      3          6           0       -1.242757   -2.184672    2.013463
      4          1           0       -3.398442   -0.465381    1.760688
      5          1           0       -3.367987   -1.534685    0.361837
      6          1           0       -0.934538   -0.099669    1.533175
      7          1           0       -0.904905   -1.168845    0.135468
      8          1           0       -1.697481   -3.077629    1.572493
      9          1           0       -1.727283   -2.002378    2.978141
     10          1           0       -0.185784   -2.399002    2.199824
     11          6           0       -3.073422    0.546737   -0.114742
     12          6           0       -4.541278    0.871282   -0.394124
     13          6           0       -4.714571    2.076099   -1.319423
     14          1           0       -2.589341    1.426112    0.332203
     15          1           0       -2.558886    0.356808   -1.066648
     16          1           0       -5.052424    1.060272    0.558572
     17          1           0       -5.022790   -0.008904   -0.839135
     18          1           0       -4.230045    1.893805   -2.284101
     19          1           0       -4.259847    2.969056   -0.878453
     20          1           0       -5.771545    2.290428   -1.505784
     21          6           0        2.877367    0.704704    0.040443
     22          6           0        4.153741    1.535962    0.174100
     23          6           0        3.935027    2.834151    0.951701
     24          1           0        2.105699    1.306971   -0.458305
     25          1           0        2.492832    0.472232    1.043182
     26          1           0        4.536514    1.765625   -0.828574
     27          1           0        4.922520    0.931581    0.672416
     28          1           0        3.575357    2.621179    1.963572
     29          1           0        3.187157    3.459962    0.454053
     30          1           0        4.860252    3.412796    1.035295
     31          6           0        3.079962   -0.596131   -0.734483
     32          6           0        1.803587   -1.427389   -0.868140
     33          6           0        2.022302   -2.725577   -1.645741
     34          1           0        3.464497   -0.363658   -1.737221
     35          1           0        3.851629   -1.198397   -0.235736
     36          1           0        1.034807   -0.823008   -1.366456
     37          1           0        1.420813   -1.657052    0.134534
     38          1           0        2.770170   -3.351389   -1.148094
     39          1           0        2.381971   -2.512606   -2.657612
     40          1           0        1.097077   -3.304223   -1.729335
 ---------------------------------------------------------------------

 SCF Done:  E(RHF) =  -470.732191045     A.U. after   11 cycles
 E2 =    -0.1583892383D+01 EUMP2 =    -0.47231608342812D+03

 The electronic state is 1-A.
 Alpha  occ. eigenvalues --  -11.21601 -11.21584 -11.21567 -11.21439 -11.21399
 Alpha  occ. eigenvalues --  -11.21366 -11.21340 -11.21294 -11.21090 -11.21074
 Alpha  occ. eigenvalues --  -11.21064 -11.21059  -1.08454  -1.08366  -1.03587
 Alpha  occ. eigenvalues --   -1.03448  -0.95997  -0.95946  -0.87006  -0.86965
 Alpha  occ. eigenvalues --   -0.79796  -0.79428  -0.78395  -0.78020  -0.65068
 Alpha  occ. eigenvalues --   -0.65023  -0.60983  -0.60890  -0.59510  -0.59183
 Alpha  occ. eigenvalues --   -0.57693  -0.57461  -0.55283  -0.55227  -0.52695
 Alpha  occ. eigenvalues --   -0.52639  -0.52411  -0.52383  -0.49923  -0.49903
 Alpha  occ. eigenvalues --   -0.48219  -0.47713  -0.46630  -0.46566  -0.46045
 Alpha  occ. eigenvalues --   -0.45721  -0.45664  -0.45246  -0.43786  -0.43735
 Alpha virt. eigenvalues --    0.21462   0.23084   0.23556   0.24479   0.25476
 Alpha virt. eigenvalues --    0.26304   0.26709   0.27879   0.28086   0.29285
 Alpha virt. eigenvalues --    0.30604   0.30952   0.31683   0.31753   0.32326

 Mulliken charges:
               1
     1  C   -0.297699
     2  C   -0.307004
     3  C   -0.477613
     4  H    0.148958
     5  H    0.148897
     6  H    0.151426
     7  H    0.162711
     8  H    0.155040
     9  H    0.155287
    10  H    0.159665
    11  C   -0.298147
    12  C   -0.299554
    13  C   -0.475680
    14  H    0.149545
    15  H    0.148810
    16  H    0.152018
    17  H    0.151847
    18  H    0.154950
    19  H    0.155131
    20  H    0.160220
    21  C   -0.298594
    22  C   -0.299621
    23  C   -0.475690
    24  H    0.150038
    25  H    0.149574
    26  H    0.151960
    27  H    0.151873
    28  H    0.155054
    29  H    0.155199
    30  H    0.160262
    31  C   -0.297428
    32  C   -0.306772
    33  C   -0.476125
    34  H    0.149262
    35  H    0.149347
    36  H    0.152081
    37  H    0.160328
    38  H    0.155336
    39  H    0.155199
    40  H    0.159907
 Sum of Mulliken charges =  -0.00000

 Dipole moment (field-independent basis, Debye):
    X=              0.0270    Y=             -0.0021    Z=             -0.0127  Tot=              0.0299
 Quadrupole moment (field-independent basis, Debye-Ang):
   XX=            -84.9855   YY=            -85.8843   ZZ=            -84.1532
   XY=              0.1120   XZ=              0.0405   YZ=              0.1338

 Normal termination of Gaussian 16 at Wed May  5 23:16:57 2021.
