 Gaussian 16, Revision A.03,
 Gaussian 16:  EM64L-G16RevA.03 25-Dec-2016

 -------------
 #p 6-31g* mp2
 -------------

 ------------------------------------------------------
 Input file generated by CHIRIPA (05-May-2021 14:57:27)
 ------------------------------------------------------
 Symbolic Z-matrix:
 Charge =  0 Multiplicity = 1

                         Standard orientation:
 ---------------------------------------------------------------------
 Center     Atomic      Atomic             Coordinates (Angstroms)
 Number     Number       Type             X           Y           Z
 ---------------------------------------------------------------------
      1          6           0       -5.803489    0.943481    0.442706
      2          6           0       -5.649528    0.108114   -0.668590
      3          6           0       -4.444229   -0.565013   -0.889283
      4          6           0       -3.409035   -0.378986    0.025625
      5          6           0       -3.531693    0.446527    1.142215
      6          6           0       -4.745945    1.109728    1.342974
      7          1           0       -6.743272    1.462526    0.606403
      8          1           0       -6.469123   -0.022882   -1.369410
      9          1           0       -4.297916   -1.217711   -1.741336
     10          1           0       -2.696687    0.557239    1.823336
     11          1           0       -4.862671    1.757858    2.206889
     12          7           0       -2.128300   -1.086341   -0.197461
     13          8           0       -1.231483   -0.905675    0.623341
     14          8           0       -2.045528   -1.808038   -1.188894
     15          6           0        4.647095   -1.958992    0.551308
     16          6           0        5.411130   -0.789787    0.627019
     17          6           0        4.852491    0.446534    0.289415
     18          6           0        3.520830    0.477162   -0.121722
     19          6           0        2.733782   -0.670228   -0.207412
     20          6           0        3.313211   -1.895592    0.135068
     21          1           0        5.089135   -2.915140    0.815461
     22          1           0        6.447290   -0.836016    0.949945
     23          1           0        5.421198    1.367150    0.338978
     24          1           0        1.703497   -0.592434   -0.532803
     25          1           0        2.717463   -2.801991    0.075322
     26          7           0        2.918420    1.780201   -0.481710
     27          8           0        1.743021    1.780411   -0.840982
     28          8           0        3.633055    2.776640   -0.397780
 ---------------------------------------------------------------------

 SCF Done:  E(RHF) =  -868.340265577     A.U. after   16 cycles
 E2 =    -0.2598390168D+01 EUMP2 =    -0.87093865574487D+03

 The electronic state is 1-A.
 Alpha  occ. eigenvalues --  -20.61025 -20.60998 -20.59904 -20.59879 -15.86024
 Alpha  occ. eigenvalues --  -15.84940 -11.31157 -11.30124 -11.27717 -11.27686
 Alpha  occ. eigenvalues --  -11.27430 -11.26799 -11.26690 -11.26664 -11.26507
 Alpha  occ. eigenvalues --  -11.26500 -11.25799 -11.25593  -1.60066  -1.58975
 Alpha  occ. eigenvalues --   -1.39623  -1.38528  -1.19313  -1.18314  -1.08758
 Alpha  occ. eigenvalues --   -1.07766  -1.04686  -1.03670  -0.95632  -0.94611
 Alpha  occ. eigenvalues --   -0.86097  -0.85092  -0.82473  -0.81434  -0.77539
 Alpha  occ. eigenvalues --   -0.76479  -0.72267  -0.71346  -0.71168  -0.70433
 Alpha  occ. eigenvalues --   -0.70295  -0.69432  -0.64977  -0.64698  -0.63968
 Alpha  occ. eigenvalues --   -0.63678  -0.62037  -0.60985  -0.55214  -0.54245
 Alpha  occ. eigenvalues --   -0.53020  -0.52783  -0.52051  -0.51753  -0.49027
 Alpha  occ. eigenvalues --   -0.49016  -0.47930  -0.47906  -0.45069  -0.43972
 Alpha  occ. eigenvalues --   -0.37283  -0.36347  -0.36273  -0.35269
 Alpha virt. eigenvalues --    0.04975   0.06017   0.11386   0.12369   0.16503
 Alpha virt. eigenvalues --    0.17514   0.21503   0.22515   0.27432   0.28325
 Alpha virt. eigenvalues --    0.28522   0.29449   0.31074   0.32005   0.32618

 Mulliken charges:
               1
     1  C   -0.169865
     2  C   -0.218647
     3  C   -0.170082
     4  C    0.159127
     5  C   -0.168244
     6  C   -0.218480
     7  H    0.226011
     8  H    0.223467
     9  H    0.275017
    10  H    0.277081
    11  H    0.224406
    12  N    0.490372
    13  O   -0.464287
    14  O   -0.462597
    15  C   -0.171328
    16  C   -0.219984
    17  C   -0.172206
    18  C    0.155205
    19  C   -0.171294
    20  C   -0.221386
    21  H    0.222158
    22  H    0.219011
    23  H    0.271602
    24  H    0.293515
    25  H    0.228603
    26  N    0.487769
    27  O   -0.458843
    28  O   -0.466100
 Sum of Mulliken charges =  -0.00000

 Dipole moment (field-independent basis, Debye):
    X=             -2.8344    Y=             -2.1615    Z=              2.0429  Tot=              4.1085
 Quadrupole moment (field-independent basis, Debye-Ang):
   XX=            -56.6068   YY=           -110.6515   ZZ=           -102.5186
   XY=            -19.6344   XZ=              4.0585   YZ=              3.6113

 Normal termination of Gaussian 16 at Thu May  6 05:13:41 2021.
