 Gaussian 16, Revision A.03,
 Gaussian 16:  EM64L-G16RevA.03 25-Dec-2016

 -------------
 #p 6-31g* mp2
 -------------

 ------------------------------------------------------
 Input file generated by CHIRIPA (05-May-2021 14:51:12)
 ------------------------------------------------------
 Symbolic Z-matrix:
 Charge =  0 Multiplicity = 1

                         Standard orientation:
 ---------------------------------------------------------------------
 Center     Atomic      Atomic             Coordinates (Angstroms)
 Number     Number       Type             X           Y           Z
 ---------------------------------------------------------------------
      1          6           0        2.700630    0.718339    0.368596
      2          6           0        2.860052    2.175519   -0.066371
      3          6           0        3.052552    3.127304    1.114665
      4          1           0        1.842737    0.637522    1.050090
      5          1           0        3.586487    0.415710    0.943981
      6          1           0        1.974778    2.474889   -0.641943
      7          1           0        3.717548    2.252845   -0.747060
      8          1           0        3.946248    2.856372    1.686071
      9          1           0        2.193576    3.079678    1.791785
     10          1           0        3.164465    4.163642    0.780991
     11          6           0        2.507314   -0.245300   -0.800915
     12          6           0        2.347892   -1.702480   -0.365948
     13          6           0        2.155391   -2.654264   -1.546984
     14          1           0        1.621457    0.057329   -1.376300
     15          1           0        3.365206   -0.164482   -1.482409
     16          1           0        1.490396   -1.779805    0.314740
     17          1           0        3.233166   -2.001850    0.209624
     18          1           0        3.014368   -2.606639   -2.224104
     19          1           0        1.261696   -2.383333   -2.118390
     20          1           0        2.043478   -3.690603   -1.213310
     21          6           0       -2.349869   -0.634186    0.816763
     22          6           0       -1.654189   -1.939520    0.429313
     23          6           0       -1.151378   -2.723862    1.641659
     24          1           0       -1.652631   -0.011955    1.394375
     25          1           0       -3.193229   -0.860291    1.483857
     26          1           0       -0.813234   -1.711140   -0.237960
     27          1           0       -2.353101   -2.558633   -0.147607
     28          1           0       -1.982671   -2.980465    2.306270
     29          1           0       -0.434054   -2.128157    2.215405
     30          1           0       -0.657418   -3.653342    1.341775
     31          6           0       -2.858075    0.161147   -0.384444
     32          6           0       -3.553755    1.466481    0.003006
     33          6           0       -4.056565    2.250822   -1.209340
     34          1           0       -2.014714    0.387251   -1.051538
     35          1           0       -3.555313   -0.461083   -0.962056
     36          1           0       -2.854842    2.085594    0.579927
     37          1           0       -4.394710    1.238101    0.670278
     38          1           0       -4.773890    1.655118   -1.783085
     39          1           0       -3.225272    2.507426   -1.873950
     40          1           0       -4.550525    3.180303   -0.909455
 ---------------------------------------------------------------------

 SCF Done:  E(RHF) =  -470.732958097     A.U. after   11 cycles
 E2 =    -0.1584088036D+01 EUMP2 =    -0.47231704613301D+03

 The electronic state is 1-A.
 Alpha  occ. eigenvalues --  -11.21649 -11.21648 -11.21630 -11.21563 -11.21466
 Alpha  occ. eigenvalues --  -11.21452 -11.21407 -11.21392 -11.21123 -11.21110
 Alpha  occ. eigenvalues --  -11.21108 -11.21081  -1.08518  -1.08440  -1.03636
 Alpha  occ. eigenvalues --   -1.03507  -0.96055  -0.95989  -0.87050  -0.87022
 Alpha  occ. eigenvalues --   -0.79654  -0.79610  -0.78307  -0.78278  -0.65413
 Alpha  occ. eigenvalues --   -0.64869  -0.61338  -0.60633  -0.59431  -0.59326
 Alpha  occ. eigenvalues --   -0.57680  -0.57571  -0.55431  -0.55190  -0.52725
 Alpha  occ. eigenvalues --   -0.52690  -0.52471  -0.52413  -0.50006  -0.49924
 Alpha  occ. eigenvalues --   -0.48039  -0.47861  -0.46753  -0.46568  -0.45956
 Alpha  occ. eigenvalues --   -0.45809  -0.45723  -0.45624  -0.43837  -0.43810
 Alpha virt. eigenvalues --    0.19365   0.23142   0.23740   0.23908   0.25668
 Alpha virt. eigenvalues --    0.26430   0.27077   0.28265   0.28721   0.29537
 Alpha virt. eigenvalues --    0.30418   0.31484   0.31665   0.31981   0.32222

 Mulliken charges:
               1
     1  C   -0.298374
     2  C   -0.299610
     3  C   -0.475702
     4  H    0.148704
     5  H    0.150004
     6  H    0.151579
     7  H    0.152272
     8  H    0.155387
     9  H    0.154959
    10  H    0.160456
    11  C   -0.298846
    12  C   -0.308581
    13  C   -0.476526
    14  H    0.148679
    15  H    0.150103
    16  H    0.161681
    17  H    0.152452
    18  H    0.155353
    19  H    0.155656
    20  H    0.160353
    21  C   -0.298141
    22  C   -0.307013
    23  C   -0.477313
    24  H    0.148964
    25  H    0.150016
    26  H    0.158430
    27  H    0.152630
    28  H    0.156110
    29  H    0.155100
    30  H    0.161216
    31  C   -0.298400
    32  C   -0.299679
    33  C   -0.475735
    34  H    0.148825
    35  H    0.150048
    36  H    0.151828
    37  H    0.152195
    38  H    0.155327
    39  H    0.155115
    40  H    0.160478
 Sum of Mulliken charges =  -0.00000

 Dipole moment (field-independent basis, Debye):
    X=             -0.0087    Y=             -0.0194    Z=              0.0071  Tot=              0.0224
 Quadrupole moment (field-independent basis, Debye-Ang):
   XX=            -83.0494   YY=            -85.5888   ZZ=            -85.9609
   XY=              0.5079   XZ=             -0.5412   YZ=             -0.1189

 Normal termination of Gaussian 16 at Wed May  5 21:31:08 2021.
