 Gaussian 16, Revision A.03,
 Gaussian 16:  EM64L-G16RevA.03 25-Dec-2016

 -------------
 #p 6-31g* mp2
 -------------

 ------------------------------------------------------
 Input file generated by CHIRIPA (05-May-2021 14:53:15)
 ------------------------------------------------------
 Symbolic Z-matrix:
 Charge =  0 Multiplicity = 1

                         Standard orientation:
 ---------------------------------------------------------------------
 Center     Atomic      Atomic             Coordinates (Angstroms)
 Number     Number       Type             X           Y           Z
 ---------------------------------------------------------------------
      1          6           0        3.575154   -0.269440   -0.447607
      2          6           0        3.216969   -1.656761    0.086274
      3          6           0        4.352778   -2.666388   -0.082207
      4          1           0        3.841367   -0.350035   -1.510424
      5          1           0        4.471664    0.095664    0.072358
      6          1           0        2.320594   -2.018554   -0.433565
      7          1           0        2.951393   -1.572824    1.147895
      8          1           0        5.248297   -2.331344    0.451078
      9          1           0        4.613914   -2.779606   -1.139369
     10          1           0        4.075295   -3.651325    0.306074
     11          6           0        2.449725    0.750910   -0.286288
     12          6           0        2.807910    2.138231   -0.820170
     13          6           0        1.672102    3.147858   -0.651688
     14          1           0        1.553215    0.385806   -0.806254
     15          1           0        2.183512    0.831505    0.776529
     16          1           0        3.073486    2.054294   -1.881791
     17          1           0        3.704285    2.500023   -0.300330
     18          1           0        1.410966    3.261076    0.405473
     19          1           0        0.776583    2.812814   -1.184973
     20          1           0        1.949584    4.132795   -1.039970
     21          6           0       -4.310804   -0.849473   -1.161532
     22          6           0       -3.324063   -1.789430   -0.846344
     23          6           0       -2.235136   -1.434092   -0.044770
     24          6           0       -2.164240   -0.124133    0.426686
     25          6           0       -3.131328    0.835084    0.130148
     26          6           0       -4.211462    0.457481   -0.673142
     27          1           0       -5.153293   -1.134155   -1.784881
     28          1           0       -3.398616   -2.805150   -1.224234
     29          1           0       -1.457095   -2.141734    0.214674
     30          1           0       -3.029644    1.839992    0.521604
     31          1           0       -4.976295    1.189565   -0.916303
     32          7           0       -1.016097    0.263834    1.276184
     33          8           0       -0.976742    1.424335    1.679080
     34          8           0       -0.177277   -0.599926    1.523040
 ---------------------------------------------------------------------

 SCF Done:  E(RHF) =  -669.536192823     A.U. after   15 cycles
 E2 =    -0.2093204470D+01 EUMP2 =    -0.67162939729295D+03

 The electronic state is 1-A.
 Alpha  occ. eigenvalues --  -20.60979 -20.60973 -15.85959 -11.31299 -11.27856
 Alpha  occ. eigenvalues --  -11.27850 -11.27593 -11.26863 -11.26853 -11.20540
 Alpha  occ. eigenvalues --  -11.20518 -11.20342 -11.20298 -11.20014 -11.19995
 Alpha  occ. eigenvalues --   -1.60008  -1.39568  -1.19462  -1.08867  -1.07313
 Alpha  occ. eigenvalues --   -1.04856  -1.02508  -0.95710  -0.94964  -0.86257
 Alpha  occ. eigenvalues --   -0.85982  -0.82548  -0.78553  -0.77605  -0.77107
 Alpha  occ. eigenvalues --   -0.72197  -0.71285  -0.70569  -0.65117  -0.64861
 Alpha  occ. eigenvalues --   -0.63957  -0.62202  -0.59916  -0.58341  -0.56571
 Alpha  occ. eigenvalues --   -0.55363  -0.54259  -0.53190  -0.52947  -0.51702
 Alpha  occ. eigenvalues --   -0.51392  -0.49044  -0.48985  -0.48861  -0.46865
 Alpha  occ. eigenvalues --   -0.45587  -0.45171  -0.44539  -0.44315  -0.42732
 Alpha  occ. eigenvalues --   -0.37435  -0.36457
 Alpha virt. eigenvalues --    0.04898   0.11185   0.16369   0.21262   0.23847
 Alpha virt. eigenvalues --    0.25134   0.26863   0.27501   0.28079   0.28869
 Alpha virt. eigenvalues --    0.29061   0.31089   0.31835   0.32580   0.32686

 Mulliken charges:
               1
     1  C   -0.298799
     2  C   -0.296883
     3  C   -0.475511
     4  H    0.142947
     5  H    0.147000
     6  H    0.146040
     7  H    0.164860
     8  H    0.153851
     9  H    0.150791
    10  H    0.156664
    11  C   -0.299341
    12  C   -0.299267
    13  C   -0.476329
    14  H    0.138119
    15  H    0.174262
    16  H    0.145100
    17  H    0.149457
    18  H    0.169995
    19  H    0.146937
    20  H    0.153422
    21  C   -0.170573
    22  C   -0.218592
    23  C   -0.171366
    24  C    0.158541
    25  C   -0.170853
    26  C   -0.218607
    27  H    0.226023
    28  H    0.223869
    29  H    0.276187
    30  H    0.276220
    31  H    0.223927
    32  N    0.489853
    33  O   -0.459706
    34  O   -0.458239
 Sum of Mulliken charges =  -0.00000

 Dipole moment (field-independent basis, Debye):
    X=             -4.3004    Y=             -1.3645    Z=             -2.6736  Tot=              5.2444
 Quadrupole moment (field-independent basis, Debye-Ang):
   XX=            -78.3082   YY=            -91.4336   ZZ=            -97.4243
   XY=              2.4225   XZ=              5.9990   YZ=              0.7316

 Normal termination of Gaussian 16 at Thu May  6 20:25:17 2021.
