 Gaussian 16, Revision A.03,
 Gaussian 16:  EM64L-G16RevA.03 25-Dec-2016

 -------------
 #p 6-31g* mp2
 -------------

 ------------------------------------------------------
 Input file generated by CHIRIPA (05-May-2021 14:51:13)
 ------------------------------------------------------
 Symbolic Z-matrix:
 Charge =  0 Multiplicity = 1

                         Standard orientation:
 ---------------------------------------------------------------------
 Center     Atomic      Atomic             Coordinates (Angstroms)
 Number     Number       Type             X           Y           Z
 ---------------------------------------------------------------------
      1          6           0        5.392645    0.012301   -0.029717
      2          6           0        5.940498   -1.411595    0.072082
      3          6           0        7.434640   -1.448469    0.394530
      4          1           0        5.949747    0.558278   -0.803340
      5          1           0        5.577306    0.537372    0.917698
      6          1           0        5.753623   -1.934264   -0.874760
      7          1           0        5.381900   -1.954304    0.845420
      8          1           0        7.635118   -0.951330    1.349131
      9          1           0        8.008953   -0.931176   -0.380823
     10          1           0        7.805402   -2.475967    0.462680
     11          6           0        3.900239    0.065627   -0.351599
     12          6           0        3.352387    1.489523   -0.453398
     13          6           0        1.858244    1.526397   -0.775846
     14          1           0        3.715578   -0.459444   -1.299014
     15          1           0        3.343138   -0.480350    0.422024
     16          1           0        3.910985    2.032232   -1.226736
     17          1           0        3.539262    2.012192    0.493445
     18          1           0        1.283931    1.009104   -0.000493
     19          1           0        1.657767    1.029258   -1.730447
     20          1           0        1.487482    2.553895   -0.843996
     21          6           0       -4.141461    0.201958    0.710640
     22          6           0       -2.839052    0.717616    0.097605
     23          6           0       -1.838870    1.196038    1.150478
     24          1           0       -4.595894    0.999261    1.314581
     25          1           0       -3.912675   -0.621483    1.401289
     26          1           0       -3.070359    1.538925   -0.592730
     27          1           0       -2.387763   -0.080945   -0.505101
     28          1           0       -1.579151    0.380877    1.833604
     29          1           0       -2.265624    2.009953    1.745477
     30          1           0       -0.915086    1.560419    0.690360
     31          6           0       -5.151424   -0.279886   -0.329325
     32          6           0       -6.453833   -0.795544    0.283711
     33          6           0       -7.454015   -1.273966   -0.769162
     34          1           0       -5.380209    0.543555   -1.019973
     35          1           0       -4.696990   -1.077190   -0.933264
     36          1           0       -6.905121    0.003018    0.886417
     37          1           0       -6.222525   -1.616854    0.974046
     38          1           0       -7.027260   -2.087882   -1.364161
     39          1           0       -7.713733   -0.458806   -1.452287
     40          1           0       -8.377799   -1.638347   -0.309044
 ---------------------------------------------------------------------

 SCF Done:  E(RHF) =  -470.733170289     A.U. after   11 cycles
 E2 =    -0.1582231594D+01 EUMP2 =    -0.47231540188385D+03

 The electronic state is 1-A.
 Alpha  occ. eigenvalues --  -11.21611 -11.21606 -11.21576 -11.21538 -11.21411
 Alpha  occ. eigenvalues --  -11.21365 -11.21352 -11.21304 -11.21079 -11.21074
 Alpha  occ. eigenvalues --  -11.21051 -11.20961  -1.08438  -1.08386  -1.03547
 Alpha  occ. eigenvalues --   -1.03476  -0.96020  -0.95909  -0.87061  -0.86906
 Alpha  occ. eigenvalues --   -0.79631  -0.79523  -0.78249  -0.78200  -0.65071
 Alpha  occ. eigenvalues --   -0.65017  -0.60970  -0.60873  -0.59393  -0.59286
 Alpha  occ. eigenvalues --   -0.57652  -0.57510  -0.55309  -0.55201  -0.52856
 Alpha  occ. eigenvalues --   -0.52584  -0.52425  -0.52230  -0.49936  -0.49846
 Alpha  occ. eigenvalues --   -0.47962  -0.47813  -0.46631  -0.46572  -0.45791
 Alpha  occ. eigenvalues --   -0.45742  -0.45712  -0.45669  -0.43835  -0.43664
 Alpha virt. eigenvalues --    0.22399   0.22980   0.23594   0.24756   0.26564
 Alpha virt. eigenvalues --    0.26693   0.26961   0.27535   0.27597   0.28872
 Alpha virt. eigenvalues --    0.30836   0.31451   0.31518   0.31740   0.31992

 Mulliken charges:
               1
     1  C   -0.298328
     2  C   -0.299660
     3  C   -0.475713
     4  H    0.149673
     5  H    0.149622
     6  H    0.151903
     7  H    0.151952
     8  H    0.155222
     9  H    0.155187
    10  H    0.160256
    11  C   -0.298634
    12  C   -0.299533
    13  C   -0.480610
    14  H    0.149481
    15  H    0.149959
    16  H    0.151940
    17  H    0.152207
    18  H    0.160086
    19  H    0.155502
    20  H    0.160159
    21  C   -0.298247
    22  C   -0.298939
    23  C   -0.483708
    24  H    0.149499
    25  H    0.149268
    26  H    0.151813
    27  H    0.152050
    28  H    0.153719
    29  H    0.154539
    30  H    0.169630
    31  C   -0.298215
    32  C   -0.299602
    33  C   -0.475675
    34  H    0.149465
    35  H    0.149580
    36  H    0.151877
    37  H    0.151842
    38  H    0.155134
    39  H    0.155148
    40  H    0.160151
 Sum of Mulliken charges =  -0.00000

 Dipole moment (field-independent basis, Debye):
    X=              0.0343    Y=              0.0067    Z=             -0.0122  Tot=              0.0371
 Quadrupole moment (field-independent basis, Debye-Ang):
   XX=            -86.5512   YY=            -84.0759   ZZ=            -84.2741
   XY=             -0.4991   XZ=             -0.9274   YZ=             -0.2692

 Normal termination of Gaussian 16 at Wed May  5 16:52:00 2021.
