 Gaussian 16, Revision A.03,
 Gaussian 16:  EM64L-G16RevA.03 25-Dec-2016

 -------------
 #p 6-31g* mp2
 -------------

 ------------------------------------------------------
 Input file generated by CHIRIPA (05-May-2021 14:51:09)
 ------------------------------------------------------
 Symbolic Z-matrix:
 Charge =  0 Multiplicity = 1

                         Standard orientation:
 ---------------------------------------------------------------------
 Center     Atomic      Atomic             Coordinates (Angstroms)
 Number     Number       Type             X           Y           Z
 ---------------------------------------------------------------------
      1          6           0       -2.742042    0.245838   -0.004869
      2          6           0       -3.071992   -0.478236    1.300824
      3          6           0       -3.930718   -1.724727    1.084855
      4          1           0       -3.677674    0.526050   -0.507879
      5          1           0       -2.220365   -0.447669   -0.678883
      6          1           0       -3.591666    0.216837    1.972709
      7          1           0       -2.135466   -0.756587    1.800879
      8          1           0       -3.415601   -2.439549    0.435021
      9          1           0       -4.880075   -1.460594    0.607827
     10          1           0       -4.154696   -2.226840    2.031204
     11          6           0       -1.884138    1.494005    0.194653
     12          6           0       -1.554188    2.218078   -1.111041
     13          6           0       -0.695463    3.464570   -0.895072
     14          1           0       -2.405815    2.187512    0.868667
     15          1           0       -0.948506    1.213792    0.697663
     16          1           0       -2.490714    2.496430   -1.611095
     17          1           0       -1.034514    1.523005   -1.782926
     18          1           0        0.253894    3.200437   -0.418044
     19          1           0       -1.210580    4.179392   -0.245237
     20          1           0       -0.471484    3.966683   -1.841420
     21          6           0        2.499232   -0.274504    0.345860
     22          6           0        4.001561    0.007948    0.380652
     23          6           0        4.358219    1.201986    1.266577
     24          1           0        1.972558    0.620378   -0.012950
     25          1           0        2.143729   -0.457054    1.369426
     26          1           0        4.354385    0.188545   -0.642831
     27          1           0        4.524737   -0.887775    0.739238
     28          1           0        4.033799    1.027280    2.297513
     29          1           0        3.862479    2.109715    0.907591
     30          1           0        5.437040    1.386102    1.276988
     31          6           0        2.126949   -1.465338   -0.535644
     32          6           0        0.624619   -1.747791   -0.570435
     33          6           0        0.267961   -2.941829   -1.456360
     34          1           0        2.482451   -1.282790   -1.559210
     35          1           0        2.653622   -2.360220   -0.176833
     36          1           0        0.101443   -0.852068   -0.929021
     37          1           0        0.271795   -1.928388    0.453048
     38          1           0        0.763701   -3.849558   -1.097375
     39          1           0        0.592381   -2.767123   -2.487297
     40          1           0       -0.810860   -3.125945   -1.466771
 ---------------------------------------------------------------------

 SCF Done:  E(RHF) =  -470.732895980     A.U. after   11 cycles
 E2 =    -0.1585053867D+01 EUMP2 =    -0.47231794984701D+03

 The electronic state is 1-A.
 Alpha  occ. eigenvalues --  -11.21681 -11.21665 -11.21627 -11.21556 -11.21496
 Alpha  occ. eigenvalues --  -11.21434 -11.21341 -11.21270 -11.21174 -11.21116
 Alpha  occ. eigenvalues --  -11.21107 -11.21054  -1.08546  -1.08376  -1.03617
 Alpha  occ. eigenvalues --   -1.03517  -0.96063  -0.95963  -0.87074  -0.86983
 Alpha  occ. eigenvalues --   -0.79692  -0.79583  -0.78351  -0.78207  -0.65326
 Alpha  occ. eigenvalues --   -0.64900  -0.61046  -0.60902  -0.59416  -0.59332
 Alpha  occ. eigenvalues --   -0.57685  -0.57562  -0.55399  -0.55206  -0.52751
 Alpha  occ. eigenvalues --   -0.52669  -0.52482  -0.52393  -0.50007  -0.49907
 Alpha  occ. eigenvalues --   -0.48010  -0.47893  -0.46813  -0.46626  -0.46125
 Alpha  occ. eigenvalues --   -0.45859  -0.45549  -0.45352  -0.43865  -0.43758
 Alpha virt. eigenvalues --    0.19311   0.21180   0.23583   0.24357   0.25410
 Alpha virt. eigenvalues --    0.25752   0.26902   0.27364   0.28843   0.29682
 Alpha virt. eigenvalues --    0.30193   0.31084   0.31687   0.31939   0.32331

 Mulliken charges:
               1
     1  C   -0.302325
     2  C   -0.300362
     3  C   -0.476525
     4  H    0.149105
     5  H    0.155157
     6  H    0.151672
     7  H    0.152985
     8  H    0.155305
     9  H    0.155190
    10  H    0.160069
    11  C   -0.302045
    12  C   -0.301623
    13  C   -0.477035
    14  H    0.149878
    15  H    0.153408
    16  H    0.152425
    17  H    0.151907
    18  H    0.155582
    19  H    0.155764
    20  H    0.160193
    21  C   -0.301617
    22  C   -0.299698
    23  C   -0.475835
    24  H    0.151713
    25  H    0.149552
    26  H    0.152258
    27  H    0.152330
    28  H    0.155348
    29  H    0.155189
    30  H    0.160616
    31  C   -0.297589
    32  C   -0.308431
    33  C   -0.477640
    34  H    0.149738
    35  H    0.150027
    36  H    0.159474
    37  H    0.153250
    38  H    0.156031
    39  H    0.155669
    40  H    0.160891
 Sum of Mulliken charges =  -0.00000

 Dipole moment (field-independent basis, Debye):
    X=              0.0370    Y=             -0.0145    Z=             -0.0004  Tot=              0.0398
 Quadrupole moment (field-independent basis, Debye-Ang):
   XX=            -84.6225   YY=            -85.6250   ZZ=            -84.4877
   XY=             -1.5082   XZ=             -0.2372   YZ=             -0.9218

 Normal termination of Gaussian 16 at Wed May  5 19:43:10 2021.
