 Gaussian 16, Revision A.03,
 Gaussian 16:  EM64L-G16RevA.03 25-Dec-2016

 -------------
 #p 6-31g* mp2
 -------------

 ------------------------------------------------------
 Input file generated by CHIRIPA (05-May-2021 14:53:15)
 ------------------------------------------------------
 Symbolic Z-matrix:
 Charge =  0 Multiplicity = 1

                         Standard orientation:
 ---------------------------------------------------------------------
 Center     Atomic      Atomic             Coordinates (Angstroms)
 Number     Number       Type             X           Y           Z
 ---------------------------------------------------------------------
      1          6           0       -2.918757   -0.076932    0.370030
      2          6           0       -3.563685   -0.699103   -0.868904
      3          6           0       -4.208908   -2.055180   -0.581613
      4          1           0       -2.162565   -0.767467    0.767873
      5          1           0       -3.680816    0.037153    1.153385
      6          1           0       -2.800939   -0.810705   -1.650172
      7          1           0       -4.318296   -0.006923   -1.263955
      8          1           0       -4.989565   -1.956824    0.179637
      9          1           0       -3.463587   -2.765173   -0.208774
     10          1           0       -4.663858   -2.481896   -1.480943
     11          6           0       -2.269508    1.279031    0.098794
     12          6           0       -1.624581    1.901201    1.337727
     13          6           0       -0.979358    3.257279    1.050436
     14          1           0       -1.507449    1.164945   -0.684562
     15          1           0       -3.025701    1.969566   -0.299049
     16          1           0       -0.869970    1.209022    1.732779
     17          1           0       -2.387327    2.012803    2.118995
     18          1           0       -1.724678    3.967271    0.677597
     19          1           0       -0.198700    3.158923    0.289187
     20          1           0       -0.524407    3.683994    1.949766
     21          6           0        2.507744    1.806704   -1.159384
     22          6           0        3.460771    1.174931   -0.353704
     23          6           0        3.204980   -0.086321    0.192522
     24          6           0        1.980157   -0.689631   -0.088754
     25          6           0        1.010453   -0.085823   -0.887739
     26          6           0        1.287777    1.175424   -1.423365
     27          1           0        2.714812    2.786473   -1.579587
     28          1           0        4.409078    1.662819   -0.147002
     29          1           0        3.924977   -0.598046    0.819547
     30          1           0        0.074235   -0.597173   -1.075989
     31          1           0        0.545777    1.663696   -2.048723
     32          7           0        1.697965   -2.024860    0.483900
     33          8           0        0.611210   -2.535273    0.221067
     34          8           0        2.568879   -2.535716    1.184735
 ---------------------------------------------------------------------

 SCF Done:  E(RHF) =  -669.534131541     A.U. after   15 cycles
 E2 =    -0.2095803451D+01 EUMP2 =    -0.67162993499168D+03

 The electronic state is 1-A.
 Alpha  occ. eigenvalues --  -20.60939 -20.60930 -15.85977 -11.31318 -11.27872
 Alpha  occ. eigenvalues --  -11.27865 -11.27615 -11.26880 -11.26870 -11.21781
 Alpha  occ. eigenvalues --  -11.21657 -11.21645 -11.21329 -11.21325 -11.20799
 Alpha  occ. eigenvalues --   -1.60001  -1.39556  -1.19497  -1.08893  -1.08566
 Alpha  occ. eigenvalues --   -1.04905  -1.03592  -0.96060  -0.95719  -0.87063
 Alpha  occ. eigenvalues --   -0.86291  -0.82580  -0.79693  -0.78404  -0.77598
 Alpha  occ. eigenvalues --   -0.72199  -0.71320  -0.70613  -0.65379  -0.65095
 Alpha  occ. eigenvalues --   -0.64878  -0.62182  -0.61007  -0.59424  -0.57663
 Alpha  occ. eigenvalues --   -0.55462  -0.55261  -0.53201  -0.52971  -0.52726
 Alpha  occ. eigenvalues --   -0.52466  -0.49994  -0.48956  -0.48948  -0.47985
 Alpha  occ. eigenvalues --   -0.46732  -0.45930  -0.45811  -0.44930  -0.43866
 Alpha  occ. eigenvalues --   -0.37441  -0.36400
 Alpha virt. eigenvalues --    0.04872   0.11014   0.16285   0.19730   0.22894
 Alpha virt. eigenvalues --    0.23967   0.25380   0.26934   0.27288   0.28437
 Alpha virt. eigenvalues --    0.29735   0.30798   0.31234   0.31679   0.32192

 Mulliken charges:
               1
     1  C   -0.307706
     2  C   -0.298411
     3  C   -0.478145
     4  H    0.163980
     5  H    0.152003
     6  H    0.144386
     7  H    0.150371
     8  H    0.154687
     9  H    0.166948
    10  H    0.159137
    11  C   -0.299913
    12  C   -0.298457
    13  C   -0.478772
    14  H    0.136729
    15  H    0.149539
    16  H    0.155076
    17  H    0.154451
    18  H    0.153422
    19  H    0.151756
    20  H    0.160976
    21  C   -0.171017
    22  C   -0.218443
    23  C   -0.170513
    24  C    0.155374
    25  C   -0.172026
    26  C   -0.218601
    27  H    0.226897
    28  H    0.224194
    29  H    0.275984
    30  H    0.282310
    31  H    0.226207
    32  N    0.488307
    33  O   -0.461845
    34  O   -0.458883
 Sum of Mulliken charges =  -0.00000

 Dipole moment (field-independent basis, Debye):
    X=              1.0743    Y=              4.5358    Z=             -1.9089  Tot=              5.0370
 Quadrupole moment (field-independent basis, Debye-Ang):
   XX=            -86.1535   YY=           -102.7738   ZZ=            -94.0094
   XY=              8.2785   XZ=             -2.3674   YZ=              1.0090

 Normal termination of Gaussian 16 at Thu May  6 01:06:08 2021.
