 Gaussian 16, Revision A.03,
 Gaussian 16:  EM64L-G16RevA.03 25-Dec-2016

 -------------
 #p 6-31g* mp2
 -------------

 ------------------------------------------------------
 Input file generated by CHIRIPA (05-May-2021 14:51:08)
 ------------------------------------------------------
 Symbolic Z-matrix:
 Charge =  0 Multiplicity = 1

                         Standard orientation:
 ---------------------------------------------------------------------
 Center     Atomic      Atomic             Coordinates (Angstroms)
 Number     Number       Type             X           Y           Z
 ---------------------------------------------------------------------
      1          6           0       -2.216793   -0.691219   -0.325736
      2          6           0       -2.531482   -2.184796   -0.235276
      3          6           0       -1.374973   -3.062680   -0.714442
      4          1           0       -1.968426   -0.437633   -1.365425
      5          1           0       -1.319879   -0.475765    0.271356
      6          1           0       -3.428340   -2.397131   -0.831243
      7          1           0       -2.779315   -2.434819    0.804284
      8          1           0       -0.478078   -2.879926   -0.113790
      9          1           0       -1.130790   -2.842024   -1.758610
     10          1           0       -1.621394   -4.126525   -0.641169
     11          6           0       -3.363319    0.199347    0.149760
     12          6           0       -3.048630    1.692924    0.059299
     13          6           0       -4.205140    2.570807    0.538465
     14          1           0       -4.260233   -0.016107   -0.447333
     15          1           0       -3.611686   -0.054239    1.189449
     16          1           0       -2.800797    1.942947   -0.980260
     17          1           0       -2.151773    1.905259    0.655267
     18          1           0       -4.449323    2.350152    1.582633
     19          1           0       -5.102035    2.388054   -0.062186
     20          1           0       -3.958719    3.634653    0.465193
     21          6           0        2.818239   -0.476313   -0.158984
     22          6           0        2.555103   -1.504303    0.941917
     23          6           0        2.614870   -2.944627    0.432321
     24          1           0        2.082271   -0.613102   -0.963087
     25          1           0        3.805038   -0.668701   -0.602388
     26          1           0        1.569679   -1.309176    1.384051
     27          1           0        3.291664   -1.364924    1.743582
     28          1           0        3.600697   -3.162943    0.009137
     29          1           0        1.868929   -3.106878   -0.352437
     30          1           0        2.423883   -3.662962    1.235676
     31          6           0        2.761874    0.968185    0.334959
     32          6           0        3.025010    1.996175   -0.765940
     33          6           0        2.965241    3.436499   -0.256345
     34          1           0        1.775074    1.160575    0.778365
     35          1           0        3.497842    1.104975    1.139064
     36          1           0        2.288449    1.856797   -1.567606
     37          1           0        4.010433    1.801048   -1.208075
     38          1           0        3.711183    3.598751    0.528414
     39          1           0        1.979415    3.654816    0.166840
     40          1           0        3.156228    4.154834   -1.059699
 ---------------------------------------------------------------------

 SCF Done:  E(RHF) =  -470.733223683     A.U. after   11 cycles
 E2 =    -0.1583340370D+01 EUMP2 =    -0.47231656405278D+03

 The electronic state is 1-A.
 Alpha  occ. eigenvalues --  -11.21657 -11.21646 -11.21618 -11.21587 -11.21471
 Alpha  occ. eigenvalues --  -11.21408 -11.21395 -11.21334 -11.21109 -11.21082
 Alpha  occ. eigenvalues --  -11.21059 -11.21016  -1.08489  -1.08419  -1.03591
 Alpha  occ. eigenvalues --   -1.03508  -0.96054  -0.95941  -0.87079  -0.86949
 Alpha  occ. eigenvalues --   -0.79663  -0.79564  -0.78303  -0.78235  -0.65201
 Alpha  occ. eigenvalues --   -0.64982  -0.61147  -0.60781  -0.59388  -0.59333
 Alpha  occ. eigenvalues --   -0.57664  -0.57560  -0.55524  -0.55068  -0.52721
 Alpha  occ. eigenvalues --   -0.52656  -0.52515  -0.52318  -0.50121  -0.49735
 Alpha  occ. eigenvalues --   -0.48049  -0.47804  -0.46688  -0.46576  -0.45948
 Alpha  occ. eigenvalues --   -0.45822  -0.45678  -0.45600  -0.43834  -0.43773
 Alpha virt. eigenvalues --    0.19699   0.23010   0.23605   0.25059   0.25294
 Alpha virt. eigenvalues --    0.26380   0.26986   0.27733   0.28925   0.29642
 Alpha virt. eigenvalues --    0.30406   0.31145   0.31567   0.31812   0.32163

 Mulliken charges:
               1
     1  C   -0.299988
     2  C   -0.299492
     3  C   -0.482865
     4  H    0.149549
     5  H    0.149902
     6  H    0.152154
     7  H    0.152103
     8  H    0.163456
     9  H    0.154480
    10  H    0.160861
    11  C   -0.298293
    12  C   -0.299617
    13  C   -0.475751
    14  H    0.149929
    15  H    0.149900
    16  H    0.151996
    17  H    0.151325
    18  H    0.155342
    19  H    0.155353
    20  H    0.160451
    21  C   -0.298599
    22  C   -0.301838
    23  C   -0.480368
    24  H    0.150977
    25  H    0.149591
    26  H    0.151615
    27  H    0.152268
    28  H    0.155430
    29  H    0.160658
    30  H    0.159827
    31  C   -0.298496
    32  C   -0.299635
    33  C   -0.475726
    34  H    0.149246
    35  H    0.149515
    36  H    0.152364
    37  H    0.151848
    38  H    0.155040
    39  H    0.155267
    40  H    0.160218
 Sum of Mulliken charges =  -0.00000

 Dipole moment (field-independent basis, Debye):
    X=             -0.0149    Y=             -0.0135    Z=             -0.0146  Tot=              0.0248
 Quadrupole moment (field-independent basis, Debye-Ang):
   XX=            -84.1531   YY=            -86.5238   ZZ=            -83.9892
   XY=              0.5307   XZ=              0.7652   YZ=             -0.4967

 Normal termination of Gaussian 16 at Thu May  6 11:33:55 2021.
