 Gaussian 16, Revision A.03,
 Gaussian 16:  EM64L-G16RevA.03 25-Dec-2016

 -------------
 #p 6-31g* mp2
 -------------

 ------------------------------------------------------
 Input file generated by CHIRIPA (05-May-2021 14:51:09)
 ------------------------------------------------------
 Symbolic Z-matrix:
 Charge =  0 Multiplicity = 1

                         Standard orientation:
 ---------------------------------------------------------------------
 Center     Atomic      Atomic             Coordinates (Angstroms)
 Number     Number       Type             X           Y           Z
 ---------------------------------------------------------------------
      1          6           0        2.813633   -0.366824   -0.704693
      2          6           0        2.617948   -1.803903   -0.220446
      3          6           0        1.725412   -2.625081   -1.151488
      4          1           0        1.832620    0.118972   -0.797212
      5          1           0        3.250598   -0.383264   -1.712754
      6          1           0        2.182764   -1.784743    0.786959
      7          1           0        3.599554   -2.286275   -0.128886
      8          1           0        2.158207   -2.673948   -2.155929
      9          1           0        0.733367   -2.169567   -1.234880
     10          1           0        1.598939   -3.649075   -0.786382
     11          6           0        3.703594    0.466686    0.215611
     12          6           0        3.899279    1.903765   -0.268637
     13          6           0        4.791815    2.724943    0.662405
     14          1           0        3.266628    0.483126    1.223672
     15          1           0        4.684607   -0.019111    0.308129
     16          1           0        2.917672    2.386136   -0.360197
     17          1           0        4.334463    1.884605   -1.276041
     18          1           0        5.783860    2.269429    0.745798
     19          1           0        4.359020    2.773810    1.666846
     20          1           0        4.918287    3.748937    0.297300
     21          6           0       -3.870438    0.157604   -0.162929
     22          6           0       -4.265683    1.620801    0.039112
     23          6           0       -5.491390    2.020937   -0.782670
     24          1           0       -3.672157   -0.018162   -1.229108
     25          1           0       -4.719834   -0.485041    0.107126
     26          1           0       -3.415328    2.260436   -0.229927
     27          1           0       -4.462859    1.793150    1.104960
     28          1           0       -6.355780    1.407340   -0.508941
     29          1           0       -5.302297    1.877281   -1.851413
     30          1           0       -5.756419    3.070781   -0.623144
     31          6           0       -2.646788   -0.257465    0.652012
     32          6           0       -2.251544   -1.720663    0.449971
     33          6           0       -1.025837   -2.120799    1.271753
     34          1           0       -1.797392    0.385178    0.381956
     35          1           0       -2.845069   -0.081699    1.718190
     36          1           0       -2.054367   -1.893010   -0.615879
     37          1           0       -3.101898   -2.360297    0.719009
     38          1           0       -1.214929   -1.977143    2.340495
     39          1           0       -0.161447   -1.507202    0.998023
     40          1           0       -0.760806   -3.170642    1.112227
 ---------------------------------------------------------------------

 SCF Done:  E(RHF) =  -470.732255373     A.U. after   11 cycles
 E2 =    -0.1583887503D+01 EUMP2 =    -0.47231614287641D+03

 The electronic state is 1-A.
 Alpha  occ. eigenvalues --  -11.21629 -11.21625 -11.21613 -11.21558 -11.21440
 Alpha  occ. eigenvalues --  -11.21422 -11.21379 -11.21362 -11.21087 -11.21077
 Alpha  occ. eigenvalues --  -11.21024 -11.21008  -1.08479  -1.08421  -1.03621
 Alpha  occ. eigenvalues --   -1.03461  -0.96091  -0.95886  -0.87062  -0.86947
 Alpha  occ. eigenvalues --   -0.79640  -0.79567  -0.78284  -0.78241  -0.65284
 Alpha  occ. eigenvalues --   -0.64943  -0.61377  -0.60567  -0.59443  -0.59267
 Alpha  occ. eigenvalues --   -0.57610  -0.57582  -0.55639  -0.54875  -0.52752
 Alpha  occ. eigenvalues --   -0.52591  -0.52441  -0.52363  -0.49984  -0.49837
 Alpha  occ. eigenvalues --   -0.48039  -0.47787  -0.46759  -0.46516  -0.45876
 Alpha  occ. eigenvalues --   -0.45762  -0.45739  -0.45634  -0.43823  -0.43757
 Alpha virt. eigenvalues --    0.20337   0.23094   0.23604   0.25109   0.25875
 Alpha virt. eigenvalues --    0.26563   0.26810   0.27975   0.28115   0.29469
 Alpha virt. eigenvalues --    0.29731   0.31060   0.31086   0.32194   0.32502

 Mulliken charges:
               1
     1  C   -0.299387
     2  C   -0.304587
     3  C   -0.477115
     4  H    0.148420
     5  H    0.149972
     6  H    0.155654
     7  H    0.152845
     8  H    0.154417
     9  H    0.158749
    10  H    0.160061
    11  C   -0.298171
    12  C   -0.299605
    13  C   -0.475732
    14  H    0.149648
    15  H    0.149909
    16  H    0.151687
    17  H    0.151937
    18  H    0.155238
    19  H    0.155309
    20  H    0.160257
    21  C   -0.298334
    22  C   -0.299663
    23  C   -0.475734
    24  H    0.149765
    25  H    0.149750
    26  H    0.151811
    27  H    0.151968
    28  H    0.155252
    29  H    0.155275
    30  H    0.160318
    31  C   -0.298259
    32  C   -0.302367
    33  C   -0.480147
    34  H    0.148550
    35  H    0.149913
    36  H    0.153009
    37  H    0.152370
    38  H    0.154585
    39  H    0.160592
    40  H    0.161840
 Sum of Mulliken charges =  -0.00000

 Dipole moment (field-independent basis, Debye):
    X=             -0.0032    Y=             -0.0178    Z=              0.0115  Tot=              0.0215
 Quadrupole moment (field-independent basis, Debye-Ang):
   XX=            -84.8522   YY=            -85.3194   ZZ=            -84.5540
   XY=             -0.1376   XZ=             -1.6955   YZ=             -0.2633

 Normal termination of Gaussian 16 at Thu May  6 00:34:37 2021.
