 Gaussian 16, Revision A.03,
 Gaussian 16:  EM64L-G16RevA.03 25-Dec-2016

 -------------
 #p 6-31g* mp2
 -------------

 ------------------------------------------------------
 Input file generated by CHIRIPA (05-May-2021 14:57:23)
 ------------------------------------------------------
 Symbolic Z-matrix:
 Charge =  0 Multiplicity = 1

                         Standard orientation:
 ---------------------------------------------------------------------
 Center     Atomic      Atomic             Coordinates (Angstroms)
 Number     Number       Type             X           Y           Z
 ---------------------------------------------------------------------
      1          6           0       -2.216614    2.678757    0.679489
      2          6           0       -3.251310    2.497972   -0.244222
      3          6           0       -3.683791    1.212472   -0.583339
      4          6           0       -3.056479    0.125302    0.023150
      5          6           0       -2.023045    0.272870    0.947016
      6          6           0       -1.606859    1.567588    1.271117
      7          1           0       -1.886981    3.680945    0.937090
      8          1           0       -3.726685    3.359078   -0.705264
      9          1           0       -4.482576    1.043791   -1.295313
     10          1           0       -1.568462   -0.604931    1.390002
     11          1           0       -0.803065    1.704978    1.988811
     12          7           0       -3.505702   -1.240479   -0.327909
     13          8           0       -2.936749   -2.181893    0.220425
     14          8           0       -4.418249   -1.343703   -1.144757
     15          6           0        1.020878   -1.828158    0.497283
     16          6           0        1.953026   -1.484943    1.482080
     17          6           0        3.043742   -0.666801    1.173006
     18          6           0        3.172078   -0.207534   -0.136916
     19          6           0        2.260187   -0.531931   -1.140167
     20          6           0        1.177159   -1.351397   -0.808396
     21          1           0        0.176569   -2.464225    0.746195
     22          1           0        1.834188   -1.853747    2.496923
     23          1           0        3.780231   -0.385604    1.915927
     24          1           0        2.405326   -0.148947   -2.143001
     25          1           0        0.454798   -1.616318   -1.575244
     26          7           0        4.322702    0.659297   -0.476133
     27          8           0        4.413245    1.050959   -1.637615
     28          8           0        5.112230    0.930645    0.425894
 ---------------------------------------------------------------------

 SCF Done:  E(RHF) =  -868.339190057     A.U. after   16 cycles
 E2 =    -0.2600918410D+01 EUMP2 =    -0.87094010846653D+03

 The electronic state is 1-A.
 Alpha  occ. eigenvalues --  -20.61705 -20.61644 -20.60980 -20.60971 -15.86705
 Alpha  occ. eigenvalues --  -15.86030 -11.31797 -11.31374 -11.28358 -11.28314
 Alpha  occ. eigenvalues --  -11.27985 -11.27966 -11.27894 -11.27518 -11.27260
 Alpha  occ. eigenvalues --  -11.27250 -11.26953 -11.26828  -1.60740  -1.60056
 Alpha  occ. eigenvalues --   -1.40307  -1.39609  -1.19944  -1.19533  -1.09378
 Alpha  occ. eigenvalues --   -1.08916  -1.05300  -1.04923  -0.96267  -0.95748
 Alpha  occ. eigenvalues --   -0.86717  -0.86304  -0.83104  -0.82583  -0.78204
 Alpha  occ. eigenvalues --   -0.77651  -0.72936  -0.72244  -0.72061  -0.71384
 Alpha  occ. eigenvalues --   -0.71085  -0.70518  -0.65592  -0.65297  -0.65161
 Alpha  occ. eigenvalues --   -0.64886  -0.62674  -0.62259  -0.55813  -0.55307
 Alpha  occ. eigenvalues --   -0.53733  -0.53429  -0.53120  -0.52984  -0.49704
 Alpha  occ. eigenvalues --   -0.49643  -0.49004  -0.48999  -0.45765  -0.45020
 Alpha  occ. eigenvalues --   -0.37947  -0.37606  -0.36809  -0.36446
 Alpha virt. eigenvalues --    0.04249   0.04885   0.10563   0.11273   0.15841
 Alpha virt. eigenvalues --    0.16265   0.20499   0.21722   0.26350   0.27230
 Alpha virt. eigenvalues --    0.27331   0.28885   0.30439   0.31138   0.32341

 Mulliken charges:
               1
     1  C   -0.169671
     2  C   -0.218596
     3  C   -0.170876
     4  C    0.155181
     5  C   -0.167097
     6  C   -0.218213
     7  H    0.229331
     8  H    0.225973
     9  H    0.276388
    10  H    0.268184
    11  H    0.226198
    12  N    0.488997
    13  O   -0.471606
    14  O   -0.455207
    15  C   -0.185499
    16  C   -0.224508
    17  C   -0.172656
    18  C    0.157701
    19  C   -0.171487
    20  C   -0.218845
    21  H    0.244866
    22  H    0.223476
    23  H    0.274850
    24  H    0.276114
    25  H    0.230222
    26  N    0.487891
    27  O   -0.459919
    28  O   -0.461191
 Sum of Mulliken charges =  -0.00000

 Dipole moment (field-independent basis, Debye):
    X=             -2.6014    Y=              1.8746    Z=              2.3174  Tot=              3.9562
 Quadrupole moment (field-independent basis, Debye-Ang):
   XX=           -138.5540   YY=           -102.3254   ZZ=            -99.1979
   XY=            -25.5386   XZ=              4.8521   YZ=             -1.0378

 Normal termination of Gaussian 16 at Fri May  7 09:32:28 2021.
