 Gaussian 16, Revision A.03,
 Gaussian 16:  EM64L-G16RevA.03 25-Dec-2016

 -------------
 #p 6-31g* mp2
 -------------

 ------------------------------------------------------
 Input file generated by CHIRIPA (05-May-2021 14:55:19)
 ------------------------------------------------------
 Symbolic Z-matrix:
 Charge =  0 Multiplicity = 1

                         Standard orientation:
 ---------------------------------------------------------------------
 Center     Atomic      Atomic             Coordinates (Angstroms)
 Number     Number       Type             X           Y           Z
 ---------------------------------------------------------------------
      1          6           0       -4.365642    1.963771    0.264138
      2          6           0       -2.995457    2.119732    0.030062
      3          6           0       -2.202050    1.017757   -0.302662
      4          6           0       -2.814463   -0.231268   -0.393079
      5          6           0       -4.176958   -0.418869   -0.165695
      6          6           0       -4.950987    0.697201    0.165686
      7          1           0       -4.974453    2.825286    0.522084
      8          1           0       -2.538168    3.102174    0.105812
      9          1           0       -1.138957    1.110073   -0.489020
     10          1           0       -4.604331   -1.410778   -0.248684
     11          1           0       -6.014845    0.573101    0.346932
     12          7           0       -1.984775   -1.405341   -0.744608
     13          8           0       -2.548353   -2.495129   -0.817952
     14          8           0       -0.786599   -1.213559   -0.940136
     15          6           0        4.523653    0.068220    0.266636
     16          6           0        4.831359    0.689963   -1.095985
     17          6           0        6.328138    0.722625   -1.406434
     18          1           0        5.049355    0.634103    1.047892
     19          1           0        4.927401   -0.953326    0.295352
     20          1           0        4.425941    1.709543   -1.122618
     21          1           0        4.304711    0.122650   -1.874069
     22          1           0        6.743605   -0.290285   -1.407215
     23          1           0        6.865524    1.305623   -0.651495
     24          1           0        6.525462    1.171007   -2.385146
     25          6           0        3.031433    0.028464    0.591329
     26          6           0        2.723727   -0.593279    1.953951
     27          6           0        1.226947   -0.625942    2.264399
     28          1           0        2.627685    1.050012    0.562614
     29          1           0        2.505732   -0.537419   -0.189926
     30          1           0        3.250376   -0.025966    2.732034
     31          1           0        3.129146   -1.612859    1.980584
     32          1           0        0.689562   -1.208939    1.509461
     33          1           0        0.811481    0.386969    2.265181
     34          1           0        1.029624   -1.074322    3.243112
 ---------------------------------------------------------------------

 SCF Done:  E(RHF) =  -669.536502106     A.U. after   15 cycles
 E2 =    -0.2091402022D+01 EUMP2 =    -0.67162790412800D+03

 The electronic state is 1-A.
 Alpha  occ. eigenvalues --  -20.60949 -20.60944 -15.85968 -11.31247 -11.27814
 Alpha  occ. eigenvalues --  -11.27800 -11.27551 -11.26816 -11.26804 -11.21166
 Alpha  occ. eigenvalues --  -11.20971 -11.20869 -11.20715 -11.20700 -11.20318
 Alpha  occ. eigenvalues --   -1.60002  -1.39560  -1.19416  -1.08830  -1.07864
 Alpha  occ. eigenvalues --   -1.04808  -1.02979  -0.95680  -0.95426  -0.86448
 Alpha  occ. eigenvalues --   -0.86210  -0.82516  -0.79060  -0.77699  -0.77536
 Alpha  occ. eigenvalues --   -0.72197  -0.71309  -0.70529  -0.65077  -0.64815
 Alpha  occ. eigenvalues --   -0.64486  -0.62156  -0.60371  -0.58805  -0.57040
 Alpha  occ. eigenvalues --   -0.55320  -0.54705  -0.53139  -0.52902  -0.52143
 Alpha  occ. eigenvalues --   -0.51856  -0.49368  -0.48963  -0.48947  -0.47387
 Alpha  occ. eigenvalues --   -0.46115  -0.45288  -0.45181  -0.44735  -0.43235
 Alpha  occ. eigenvalues --   -0.37395  -0.36406
 Alpha virt. eigenvalues --    0.04926   0.11232   0.16393   0.21174   0.23366
 Alpha virt. eigenvalues --    0.24560   0.26860   0.27367   0.27646   0.28426
 Alpha virt. eigenvalues --    0.28966   0.31039   0.31813   0.32101   0.32546

 Mulliken charges:
               1
     1  C   -0.170426
     2  C   -0.218800
     3  C   -0.170368
     4  C    0.158422
     5  C   -0.170732
     6  C   -0.218652
     7  H    0.225836
     8  H    0.223702
     9  H    0.277176
    10  H    0.275608
    11  H    0.223626
    12  N    0.488699
    13  O   -0.458656
    14  O   -0.460600
    15  C   -0.297889
    16  C   -0.299536
    17  C   -0.475375
    18  H    0.146623
    19  H    0.150427
    20  H    0.148415
    21  H    0.155316
    22  H    0.155681
    23  H    0.153570
    24  H    0.158855
    25  C   -0.301751
    26  C   -0.297868
    27  C   -0.484383
    28  H    0.140596
    29  H    0.166044
    30  H    0.147124
    31  H    0.153216
    32  H    0.176099
    33  H    0.143917
    34  H    0.156085
 Sum of Mulliken charges =  -0.00000

 Dipole moment (field-independent basis, Debye):
    X=             -3.1095    Y=              3.9882    Z=              1.0979  Tot=              5.1749
 Quadrupole moment (field-independent basis, Debye-Ang):
   XX=            -76.7397   YY=            -94.4384   ZZ=            -97.0354
   XY=             -8.8609   XZ=             -2.5078   YZ=             -1.6655

 Normal termination of Gaussian 16 at Wed May  5 17:22:16 2021.
