 Gaussian 16, Revision A.03,
 Gaussian 16:  EM64L-G16RevA.03 25-Dec-2016

 -------------
 #p 6-31g* mp2
 -------------

 ------------------------------------------------------
 Input file generated by CHIRIPA (05-May-2021 14:57:22)
 ------------------------------------------------------
 Symbolic Z-matrix:
 Charge =  0 Multiplicity = 1

                         Standard orientation:
 ---------------------------------------------------------------------
 Center     Atomic      Atomic             Coordinates (Angstroms)
 Number     Number       Type             X           Y           Z
 ---------------------------------------------------------------------
      1          6           0        4.219755   -2.294967    0.037234
      2          6           0        4.138250   -1.523813   -1.126897
      3          6           0        3.574861   -0.244747   -1.093273
      4          6           0        3.100710    0.234057    0.127063
      5          6           0        3.167680   -0.510065    1.303960
      6          6           0        3.735065   -1.786528    1.246814
      7          1           0        4.658961   -3.287565    0.001977
      8          1           0        4.513858   -1.916105   -2.067679
      9          1           0        3.499202    0.373606   -1.979463
     10          1           0        2.784721   -0.091948    2.226965
     11          1           0        3.797046   -2.383177    2.152470
     12          7           0        2.502161    1.586769    0.175110
     13          8           0        2.091639    1.985749    1.262733
     14          8           0        2.454873    2.222431   -0.875764
     15          6           0       -1.584460    1.908744   -0.387795
     16          6           0       -2.845345    2.128371    0.176522
     17          6           0       -3.748191    1.072060    0.330232
     18          6           0       -3.355481   -0.196718   -0.093172
     19          6           0       -2.106383   -0.447387   -0.659042
     20          6           0       -1.219646    0.623832   -0.803044
     21          1           0       -0.889365    2.735102   -0.503430
     22          1           0       -3.131368    3.125194    0.499906
     23          1           0       -4.730637    1.213985    0.763908
     24          1           0       -1.849754   -1.452193   -0.971972
     25          1           0       -0.241088    0.450321   -1.241637
     26          7           0       -4.302756   -1.322878    0.064415
     27          8           0       -3.932723   -2.431283   -0.316568
     28          8           0       -5.397328   -1.075833    0.565932
 ---------------------------------------------------------------------

 SCF Done:  E(RHF) =  -868.340316910     A.U. after   16 cycles
 E2 =    -0.2599394163D+01 EUMP2 =    -0.87093971107255D+03

 The electronic state is 1-A.
 Alpha  occ. eigenvalues --  -20.61957 -20.61911 -20.60352 -20.60341 -15.86937
 Alpha  occ. eigenvalues --  -15.85400 -11.32020 -11.30562 -11.28563 -11.28506
 Alpha  occ. eigenvalues --  -11.28192 -11.27479 -11.27440 -11.27169 -11.27134
 Alpha  occ. eigenvalues --  -11.26633 -11.26040 -11.26003  -1.61007  -1.59431
 Alpha  occ. eigenvalues --   -1.40559  -1.38991  -1.20155  -1.18711  -1.09600
 Alpha  occ. eigenvalues --   -1.08094  -1.05499  -1.04106  -0.96480  -0.94967
 Alpha  occ. eigenvalues --   -0.86908  -0.85488  -0.83312  -0.81830  -0.78403
 Alpha  occ. eigenvalues --   -0.76950  -0.73152  -0.72347  -0.71617  -0.71231
 Alpha  occ. eigenvalues --   -0.70755  -0.69684  -0.65795  -0.65480  -0.64343
 Alpha  occ. eigenvalues --   -0.64086  -0.62842  -0.61475  -0.55990  -0.54436
 Alpha  occ. eigenvalues --   -0.53852  -0.53572  -0.52422  -0.52187  -0.49938
 Alpha  occ. eigenvalues --   -0.49901  -0.48388  -0.48358  -0.46010  -0.44443
 Alpha  occ. eigenvalues --   -0.38111  -0.37091  -0.36593  -0.35735
 Alpha virt. eigenvalues --    0.04069   0.05618   0.10530   0.11925   0.15620
 Alpha virt. eigenvalues --    0.17182   0.20782   0.22141   0.26705   0.27367
 Alpha virt. eigenvalues --    0.27861   0.29183   0.30508   0.31511   0.32140

 Mulliken charges:
               1
     1  C   -0.169419
     2  C   -0.218325
     3  C   -0.175273
     4  C    0.154522
     5  C   -0.169660
     6  C   -0.218197
     7  H    0.229534
     8  H    0.226325
     9  H    0.275327
    10  H    0.277956
    11  H    0.227549
    12  N    0.487076
    13  O   -0.456185
    14  O   -0.467103
    15  C   -0.168093
    16  C   -0.219946
    17  C   -0.171378
    18  C    0.156902
    19  C   -0.172168
    20  C   -0.224144
    21  H    0.244063
    22  H    0.223654
    23  H    0.273380
    24  H    0.270964
    25  H    0.220385
    26  N    0.488345
    27  O   -0.464118
    28  O   -0.461972
 Sum of Mulliken charges =  -0.00000

 Dipole moment (field-independent basis, Debye):
    X=              5.8380    Y=             -0.7323    Z=             -0.5904  Tot=              5.9133
 Quadrupole moment (field-independent basis, Debye-Ang):
   XX=           -112.8865   YY=           -107.0822   ZZ=            -99.7436
   XY=            -31.8688   XZ=             -0.9891   YZ=             -0.0964

 Normal termination of Gaussian 16 at Wed May  5 17:48:23 2021.
