 Gaussian 16, Revision A.03,
 Gaussian 16:  EM64L-G16RevA.03 25-Dec-2016

 -------------
 #p 6-31g* mp2
 -------------

 ------------------------------------------------------
 Input file generated by CHIRIPA (05-May-2021 14:53:17)
 ------------------------------------------------------
 Symbolic Z-matrix:
 Charge =  0 Multiplicity = 1

                         Standard orientation:
 ---------------------------------------------------------------------
 Center     Atomic      Atomic             Coordinates (Angstroms)
 Number     Number       Type             X           Y           Z
 ---------------------------------------------------------------------
      1          6           0       -3.315639    0.881988   -0.639377
      2          6           0       -2.378603    1.757487    0.193360
      3          6           0       -2.036681    3.079055   -0.495365
      4          1           0       -2.849119    0.679640   -1.613215
      5          1           0       -4.240081    1.439092   -0.845374
      6          1           0       -1.456769    1.198387    0.398896
      7          1           0       -2.847324    1.957615    1.165402
      8          1           0       -2.944660    3.660238   -0.686158
      9          1           0       -1.546204    2.896697   -1.457019
     10          1           0       -1.365781    3.689257    0.117340
     11          6           0       -3.666655   -0.442617    0.035855
     12          6           0       -4.603691   -1.318116   -0.796882
     13          6           0       -4.945613   -2.639685   -0.108158
     14          1           0       -2.742212   -0.999722    0.241852
     15          1           0       -4.133174   -0.240270    1.009693
     16          1           0       -4.134970   -1.518244   -1.768924
     17          1           0       -5.525525   -0.759016   -1.002418
     18          1           0       -5.436090   -2.457326    0.853496
     19          1           0       -4.037634   -3.220868    0.082636
     20          1           0       -5.616513   -3.249886   -0.720862
     21          6           0        0.843224    0.455049    1.792304
     22          6           0        1.340512   -0.852309    1.785974
     23          6           0        2.384286   -1.210774    0.927727
     24          6           0        2.909619   -0.232214    0.085269
     25          6           0        2.435734    1.078676    0.068258
     26          6           0        1.391456    1.414678    0.934938
     27          1           0        0.032199    0.724788    2.462286
     28          1           0        0.916680   -1.599646    2.450728
     29          1           0        2.788308   -2.215531    0.902251
     30          1           0        2.878584    1.801772   -0.605860
     31          1           0        1.007250    2.430760    0.937697
     32          7           0        4.014884   -0.599814   -0.827782
     33          8           0        4.460520    0.280777   -1.560314
     34          8           0        4.414624   -1.761570   -0.793609
 ---------------------------------------------------------------------

 SCF Done:  E(RHF) =  -669.534662213     A.U. after   15 cycles
 E2 =    -0.2093145716D+01 EUMP2 =    -0.67162780792880D+03

 The electronic state is 1-A.
 Alpha  occ. eigenvalues --  -20.60801 -20.60796 -15.85855 -11.31236 -11.27812
 Alpha  occ. eigenvalues --  -11.27796 -11.27522 -11.26819 -11.26791 -11.22294
 Alpha  occ. eigenvalues --  -11.22046 -11.21979 -11.21920 -11.21911 -11.21483
 Alpha  occ. eigenvalues --   -1.59877  -1.39430  -1.19418  -1.09037  -1.08800
 Alpha  occ. eigenvalues --   -1.04821  -1.04138  -0.96590  -0.95640  -0.87604
 Alpha  occ. eigenvalues --   -0.86217  -0.82467  -0.80224  -0.78844  -0.77508
 Alpha  occ. eigenvalues --   -0.72073  -0.71201  -0.70520  -0.65673  -0.65061
 Alpha  occ. eigenvalues --   -0.64816  -0.62191  -0.61510  -0.59977  -0.58205
 Alpha  occ. eigenvalues --   -0.55861  -0.55319  -0.53333  -0.53195  -0.53032
 Alpha  occ. eigenvalues --   -0.52824  -0.50509  -0.48834  -0.48827  -0.48526
 Alpha  occ. eigenvalues --   -0.47235  -0.46379  -0.46284  -0.44832  -0.44389
 Alpha  occ. eigenvalues --   -0.37303  -0.36407
 Alpha virt. eigenvalues --    0.04992   0.11129   0.16422   0.20171   0.22578
 Alpha virt. eigenvalues --    0.23735   0.25862   0.26150   0.26562   0.28426
 Alpha virt. eigenvalues --    0.28795   0.29901   0.30907   0.31549   0.32107

 Mulliken charges:
               1
     1  C   -0.297077
     2  C   -0.312414
     3  C   -0.476306
     4  H    0.153105
     5  H    0.150980
     6  H    0.159111
     7  H    0.147782
     8  H    0.159770
     9  H    0.159414
    10  H    0.151367
    11  C   -0.299198
    12  C   -0.300136
    13  C   -0.475996
    14  H    0.148339
    15  H    0.147778
    16  H    0.154324
    17  H    0.153075
    18  H    0.154559
    19  H    0.154635
    20  H    0.162412
    21  C   -0.172478
    22  C   -0.220275
    23  C   -0.171055
    24  C    0.158442
    25  C   -0.172217
    26  C   -0.218847
    27  H    0.229408
    28  H    0.223983
    29  H    0.275806
    30  H    0.276076
    31  H    0.228159
    32  N    0.488074
    33  O   -0.460230
    34  O   -0.460367
 Sum of Mulliken charges =  -0.00000

 Dipole moment (field-independent basis, Debye):
    X=             -3.9381    Y=              1.2438    Z=              3.1446  Tot=              5.1908
 Quadrupole moment (field-independent basis, Debye-Ang):
   XX=           -117.4583   YY=            -91.9561   ZZ=            -94.0911
   XY=              4.2433   XZ=              9.1042   YZ=             -2.0931

 Normal termination of Gaussian 16 at Wed May  5 21:59:29 2021.
