 Gaussian 16, Revision A.03,
 Gaussian 16:  EM64L-G16RevA.03 25-Dec-2016

 -------------
 #p 6-31g* mp2
 -------------

 ------------------------------------------------------
 Input file generated by CHIRIPA (05-May-2021 14:51:08)
 ------------------------------------------------------
 Symbolic Z-matrix:
 Charge =  0 Multiplicity = 1

                         Standard orientation:
 ---------------------------------------------------------------------
 Center     Atomic      Atomic             Coordinates (Angstroms)
 Number     Number       Type             X           Y           Z
 ---------------------------------------------------------------------
      1          6           0       -4.309197   -0.611635   -0.149365
      2          6           0       -5.810654   -0.328790   -0.089253
      3          6           0       -6.629305   -1.297238   -0.943485
      4          1           0       -3.973444   -0.555255   -1.193891
      5          1           0       -4.123699   -1.642297    0.183383
      6          1           0       -5.993126    0.701483   -0.420700
      7          1           0       -6.142835   -0.385661    0.955274
      8          1           0       -6.476678   -2.328743   -0.609864
      9          1           0       -6.326118   -1.235422   -1.993656
     10          1           0       -7.699823   -1.076932   -0.885899
     11          6           0       -3.477448    0.348227    0.699509
     12          6           0       -1.975992    0.065382    0.639398
     13          6           0       -1.157341    1.033830    1.493630
     14          1           0       -3.662946    1.378889    0.366761
     15          1           0       -3.813201    0.291847    1.744036
     16          1           0       -1.643811    0.122253   -0.405130
     17          1           0       -1.793520   -0.964891    0.970844
     18          1           0       -1.460527    0.972014    2.543800
     19          1           0       -1.309968    2.065335    1.160008
     20          1           0       -0.086823    0.813524    1.436043
     21          6           0        3.665380    0.860227   -0.248087
     22          6           0        2.256919    1.075842   -0.802821
     23          6           0        1.815099    2.538337   -0.742031
     24          1           0        3.700891    1.212551    0.791890
     25          1           0        4.373614    1.481972   -0.813095
     26          1           0        1.551749    0.452828   -0.237838
     27          1           0        2.224706    0.722787   -1.841538
     28          1           0        2.495652    3.170758   -1.321247
     29          1           0        1.818872    2.899265    0.291563
     30          1           0        0.805468    2.669736   -1.143581
     31          6           0        4.121266   -0.596819   -0.302058
     32          6           0        5.529727   -0.812433    0.252677
     33          6           0        5.971547   -2.274929    0.191886
     34          1           0        3.413032   -1.218563    0.262951
     35          1           0        4.085755   -0.949143   -1.342035
     36          1           0        5.561940   -0.459379    1.291392
     37          1           0        6.234896   -0.189419   -0.312307
     38          1           0        5.967774   -2.635856   -0.841708
     39          1           0        5.290993   -2.907350    0.771103
     40          1           0        6.981177   -2.406327    0.593436
 ---------------------------------------------------------------------

 SCF Done:  E(RHF) =  -470.733077641     A.U. after   11 cycles
 E2 =    -0.1582930015D+01 EUMP2 =    -0.47231600765622D+03

 The electronic state is 1-A.
 Alpha  occ. eigenvalues --  -11.21609 -11.21604 -11.21598 -11.21573 -11.21410
 Alpha  occ. eigenvalues --  -11.21400 -11.21351 -11.21341 -11.21073 -11.21069
 Alpha  occ. eigenvalues --  -11.21043 -11.21037  -1.08446  -1.08413  -1.03574
 Alpha  occ. eigenvalues --   -1.03479  -0.96032  -0.95917  -0.87016  -0.86965
 Alpha  occ. eigenvalues --   -0.79595  -0.79584  -0.78258  -0.78227  -0.65108
 Alpha  occ. eigenvalues --   -0.65035  -0.61077  -0.60868  -0.59439  -0.59214
 Alpha  occ. eigenvalues --   -0.57682  -0.57476  -0.55361  -0.55150  -0.52691
 Alpha  occ. eigenvalues --   -0.52627  -0.52421  -0.52379  -0.49978  -0.49841
 Alpha  occ. eigenvalues --   -0.47976  -0.47842  -0.46662  -0.46562  -0.45794
 Alpha  occ. eigenvalues --   -0.45772  -0.45727  -0.45675  -0.43797  -0.43746
 Alpha virt. eigenvalues --    0.20801   0.23013   0.23534   0.25370   0.26242
 Alpha virt. eigenvalues --    0.26492   0.27052   0.27568   0.27773   0.29278
 Alpha virt. eigenvalues --    0.29932   0.31076   0.31319   0.31973   0.32638

 Mulliken charges:
               1
     1  C   -0.298295
     2  C   -0.299669
     3  C   -0.475710
     4  H    0.149688
     5  H    0.149524
     6  H    0.151944
     7  H    0.151940
     8  H    0.155185
     9  H    0.155195
    10  H    0.160265
    11  C   -0.298263
    12  C   -0.300964
    13  C   -0.479832
    14  H    0.149565
    15  H    0.149736
    16  H    0.152943
    17  H    0.151562
    18  H    0.154564
    19  H    0.156366
    20  H    0.164376
    21  C   -0.298385
    22  C   -0.305736
    23  C   -0.475138
    24  H    0.149510
    25  H    0.149670
    26  H    0.157039
    27  H    0.151932
    28  H    0.154651
    29  H    0.156032
    30  H    0.160359
    31  C   -0.298221
    32  C   -0.299651
    33  C   -0.475707
    34  H    0.149298
    35  H    0.149710
    36  H    0.151961
    37  H    0.151955
    38  H    0.155178
    39  H    0.155169
    40  H    0.160252
 Sum of Mulliken charges =  -0.00000

 Dipole moment (field-independent basis, Debye):
    X=             -0.0043    Y=              0.0062    Z=              0.0000  Tot=              0.0076
 Quadrupole moment (field-independent basis, Debye-Ang):
   XX=            -85.4216   YY=            -85.7775   ZZ=            -83.6057
   XY=              0.1285   XZ=             -0.8425   YZ=             -0.9881

 Normal termination of Gaussian 16 at Thu May  6 03:42:08 2021.
