 Gaussian 16, Revision A.03,
 Gaussian 16:  EM64L-G16RevA.03 25-Dec-2016

 -------------
 #p 6-31g* mp2
 -------------

 ------------------------------------------------------
 Input file generated by CHIRIPA (05-May-2021 14:55:21)
 ------------------------------------------------------
 Symbolic Z-matrix:
 Charge =  0 Multiplicity = 1

                         Standard orientation:
 ---------------------------------------------------------------------
 Center     Atomic      Atomic             Coordinates (Angstroms)
 Number     Number       Type             X           Y           Z
 ---------------------------------------------------------------------
      1          6           0       -0.728933   -1.662412    0.650771
      2          6           0       -1.567225   -1.970464   -0.425747
      3          6           0       -2.667711   -1.161051   -0.722950
      4          6           0       -2.901414   -0.046317    0.080816
      5          6           0       -2.084600    0.286945    1.160187
      6          6           0       -0.989836   -0.536675    1.438913
      7          1           0        0.123729   -2.296702    0.874468
      8          1           0       -1.367031   -2.844091   -1.039541
      9          1           0       -3.332923   -1.376292   -1.550345
     10          1           0       -2.309737    1.164510    1.753998
     11          1           0       -0.340509   -0.295002    2.275580
     12          7           0       -4.063421    0.818093   -0.224039
     13          8           0       -4.247723    1.794527    0.499318
     14          8           0       -4.767897    0.502815   -1.180569
     15          6           0        3.220566   -0.419188   -0.459612
     16          6           0        3.708712   -1.644768    0.313467
     17          6           0        3.204036   -2.959257   -0.282535
     18          1           0        2.122088   -0.417888   -0.476619
     19          1           0        3.549264   -0.498937   -1.505075
     20          1           0        3.380373   -1.562057    1.357481
     21          1           0        4.806154   -1.643048    0.328799
     22          1           0        3.543461   -3.068334   -1.317664
     23          1           0        2.109579   -2.986883   -0.283137
     24          1           0        3.564878   -3.822348    0.285555
     25          6           0        3.716782    0.902469    0.124099
     26          6           0        3.228635    2.128050   -0.648979
     27          6           0        3.733312    3.442538   -0.052978
     28          1           0        3.388084    0.982218    1.169562
     29          1           0        4.815260    0.901169    0.141106
     30          1           0        2.131194    2.126329   -0.664312
     31          1           0        3.556975    2.045338   -1.692994
     32          1           0        4.827769    3.470164   -0.052376
     33          1           0        3.393887    3.551616    0.982152
     34          1           0        3.372470    4.305629   -0.621068
 ---------------------------------------------------------------------

 SCF Done:  E(RHF) =  -669.535517943     A.U. after   15 cycles
 E2 =    -0.2092054721D+01 EUMP2 =    -0.67162757266421D+03

 The electronic state is 1-A.
 Alpha  occ. eigenvalues --  -20.60805 -20.60800 -15.85860 -11.31249 -11.27816
 Alpha  occ. eigenvalues --  -11.27808 -11.27550 -11.26849 -11.26829 -11.22521
 Alpha  occ. eigenvalues --  -11.22176 -11.22072 -11.22022 -11.21948 -11.21409
 Alpha  occ. eigenvalues --   -1.59880  -1.39433  -1.19424  -1.09111  -1.08813
 Alpha  occ. eigenvalues --   -1.04826  -1.04221  -0.96672  -0.95646  -0.87691
 Alpha  occ. eigenvalues --   -0.86222  -0.82477  -0.80286  -0.78875  -0.77516
 Alpha  occ. eigenvalues --   -0.72077  -0.71203  -0.70563  -0.65757  -0.65075
 Alpha  occ. eigenvalues --   -0.64819  -0.62170  -0.61640  -0.60051  -0.58261
 Alpha  occ. eigenvalues --   -0.56088  -0.55229  -0.53364  -0.53160  -0.53077
 Alpha  occ. eigenvalues --   -0.52915  -0.50634  -0.48839  -0.48831  -0.48588
 Alpha  occ. eigenvalues --   -0.47326  -0.46420  -0.46331  -0.44833  -0.44446
 Alpha  occ. eigenvalues --   -0.37377  -0.36428
 Alpha virt. eigenvalues --    0.04977   0.11190   0.16335   0.19315   0.22772
 Alpha virt. eigenvalues --    0.23805   0.25740   0.25887   0.27084   0.27887
 Alpha virt. eigenvalues --    0.28797   0.30563   0.30917   0.31315   0.32172

 Mulliken charges:
               1
     1  C   -0.173976
     2  C   -0.220524
     3  C   -0.170742
     4  C    0.158706
     5  C   -0.170910
     6  C   -0.220258
     7  H    0.233129
     8  H    0.224123
     9  H    0.275984
    10  H    0.275801
    11  H    0.223918
    12  N    0.488024
    13  O   -0.460247
    14  O   -0.460139
    15  C   -0.303138
    16  C   -0.300484
    17  C   -0.477578
    18  H    0.151455
    19  H    0.152124
    20  H    0.146679
    21  H    0.156840
    22  H    0.160903
    23  H    0.143649
    24  H    0.163154
    25  C   -0.297558
    26  C   -0.300769
    27  C   -0.475930
    28  H    0.145964
    29  H    0.151262
    30  H    0.154042
    31  H    0.153435
    32  H    0.155653
    33  H    0.154316
    34  H    0.163092
 Sum of Mulliken charges =  -0.00000

 Dipole moment (field-independent basis, Debye):
    X=              4.1784    Y=             -2.9860    Z=              1.0001  Tot=              5.2321
 Quadrupole moment (field-independent basis, Debye-Ang):
   XX=           -117.7956   YY=            -94.1237   ZZ=            -91.6723
   XY=              9.2145   XZ=             -2.5522   YZ=              2.0899

 Normal termination of Gaussian 16 at Wed May  5 17:27:02 2021.
