 Gaussian 16, Revision A.03,
 Gaussian 16:  EM64L-G16RevA.03 25-Dec-2016

 -------------
 #p 6-31g* mp2
 -------------

 ------------------------------------------------------
 Input file generated by CHIRIPA (05-May-2021 14:57:24)
 ------------------------------------------------------
 Symbolic Z-matrix:
 Charge =  0 Multiplicity = 1

                         Standard orientation:
 ---------------------------------------------------------------------
 Center     Atomic      Atomic             Coordinates (Angstroms)
 Number     Number       Type             X           Y           Z
 ---------------------------------------------------------------------
      1          6           0       -3.238219    2.128491   -1.412471
      2          6           0       -2.055386    1.381954   -1.422928
      3          6           0       -1.980269    0.161168   -0.745738
      4          6           0       -3.112116   -0.285091   -0.065249
      5          6           0       -4.304941    0.435753   -0.036218
      6          6           0       -4.357249    1.653845   -0.720370
      7          1           0       -3.287712    3.075781   -1.941233
      8          1           0       -1.184767    1.748107   -1.959584
      9          1           0       -1.077211   -0.437026   -0.737410
     10          1           0       -5.156317    0.044788    0.507586
     11          1           0       -5.277179    2.231493   -0.710528
     12          7           0       -3.044666   -1.576056    0.655347
     13          8           0       -4.055755   -1.947289    1.247396
     14          8           0       -1.981988   -2.192237    0.614456
     15          6           0        2.067849    1.353691    2.084061
     16          6           0        3.390240    1.616665    1.711707
     17          6           0        3.985215    0.912807    0.660452
     18          6           0        3.225263   -0.051554    0.000322
     19          6           0        1.905636   -0.336399    0.347797
     20          6           0        1.331066    0.379715    1.402120
     21          1           0        1.613584    1.905226    2.901892
     22          1           0        3.964828    2.372509    2.239527
     23          1           0        5.007116    1.096240    0.351444
     24          1           0        1.358078   -1.095745   -0.197173
     25          1           0        0.303886    0.173374    1.689120
     26          7           0        3.844336   -0.803185   -1.114219
     27          8           0        3.153525   -1.647822   -1.679910
     28          8           0        5.008652   -0.533443   -1.400999
 ---------------------------------------------------------------------

 SCF Done:  E(RHF) =  -868.338201714     A.U. after   16 cycles
 E2 =    -0.2600734630D+01 EUMP2 =    -0.87093893634428D+03

 The electronic state is 1-A.
 Alpha  occ. eigenvalues --  -20.61478 -20.61448 -20.60846 -20.60838 -15.86499
 Alpha  occ. eigenvalues --  -15.85896 -11.31803 -11.31287 -11.28373 -11.28306
 Alpha  occ. eigenvalues --  -11.28011 -11.27839 -11.27818 -11.27551 -11.27311
 Alpha  occ. eigenvalues --  -11.27299 -11.26869 -11.26789  -1.60530  -1.59922
 Alpha  occ. eigenvalues --   -1.40089  -1.39474  -1.19949  -1.19446  -1.09344
 Alpha  occ. eigenvalues --   -1.08831  -1.05335  -1.04838  -0.96197  -0.95667
 Alpha  occ. eigenvalues --   -0.86734  -0.86231  -0.83021  -0.82493  -0.78122
 Alpha  occ. eigenvalues --   -0.77522  -0.72709  -0.72110  -0.71855  -0.71251
 Alpha  occ. eigenvalues --   -0.71061  -0.70527  -0.65587  -0.65337  -0.65071
 Alpha  occ. eigenvalues --   -0.64819  -0.62790  -0.62053  -0.55810  -0.55324
 Alpha  occ. eigenvalues --   -0.53687  -0.53422  -0.53149  -0.52898  -0.49487
 Alpha  occ. eigenvalues --   -0.49453  -0.48871  -0.48867  -0.45496  -0.44873
 Alpha  occ. eigenvalues --   -0.37913  -0.37432  -0.36984  -0.36380
 Alpha virt. eigenvalues --    0.04388   0.04962   0.10616   0.11193   0.15913
 Alpha virt. eigenvalues --    0.16450   0.19959   0.21779   0.25102   0.27275
 Alpha virt. eigenvalues --    0.27697   0.29021   0.30738   0.30943   0.31542

 Mulliken charges:
               1
     1  C   -0.170882
     2  C   -0.220051
     3  C   -0.177861
     4  C    0.156833
     5  C   -0.170591
     6  C   -0.218295
     7  H    0.228138
     8  H    0.228774
     9  H    0.276163
    10  H    0.276917
    11  H    0.225517
    12  N    0.487598
    13  O   -0.455936
    14  O   -0.465499
    15  C   -0.171869
    16  C   -0.218393
    17  C   -0.171750
    18  C    0.160304
    19  C   -0.184292
    20  C   -0.220175
    21  H    0.226336
    22  H    0.223504
    23  H    0.275578
    24  H    0.281701
    25  H    0.230336
    26  N    0.487731
    27  O   -0.459400
    28  O   -0.460436
 Sum of Mulliken charges =  -0.00000

 Dipole moment (field-independent basis, Debye):
    X=             -2.5842    Y=              7.2611    Z=              1.3819  Tot=              7.8301
 Quadrupole moment (field-independent basis, Debye-Ang):
   XX=           -108.7846   YY=           -107.3305   ZZ=           -105.1510
   XY=             -3.8641   XZ=             19.9983   YZ=              0.6316

 Normal termination of Gaussian 16 at Thu May  6 00:17:31 2021.
