 Gaussian 16, Revision A.03,
 Gaussian 16:  EM64L-G16RevA.03 25-Dec-2016

 -------------
 #p 6-31g* mp2
 -------------

 ------------------------------------------------------
 Input file generated by CHIRIPA (05-May-2021 14:53:16)
 ------------------------------------------------------
 Symbolic Z-matrix:
 Charge =  0 Multiplicity = 1

                         Standard orientation:
 ---------------------------------------------------------------------
 Center     Atomic      Atomic             Coordinates (Angstroms)
 Number     Number       Type             X           Y           Z
 ---------------------------------------------------------------------
      1          6           0        4.275965   -0.200410    0.401218
      2          6           0        3.294576   -1.317175    0.043872
      3          6           0        1.933445   -1.146508    0.719141
      4          1           0        4.407088   -0.171183    1.491584
      5          1           0        3.841133    0.766569    0.112657
      6          1           0        3.731720   -2.281873    0.331759
      7          1           0        3.165922   -1.343872   -1.045785
      8          1           0        1.472752   -0.198468    0.423195
      9          1           0        2.041765   -1.141799    1.808565
     10          1           0        1.247443   -1.955690    0.449911
     11          6           0        5.641156   -0.357087   -0.266192
     12          6           0        6.622545    0.759679    0.091154
     13          6           0        7.983676    0.589011   -0.584115
     14          1           0        6.075988   -1.324066    0.022369
     15          1           0        5.510033   -0.386314   -1.356558
     16          1           0        6.751199    0.786375    1.180811
     17          1           0        6.185401    1.724377   -0.196732
     18          1           0        7.875355    0.584303   -1.673539
     19          1           0        8.444369   -0.359029   -0.288169
     20          1           0        8.669677    1.398194   -0.314885
     21          6           0       -6.195812   -0.756534   -0.211677
     22          6           0       -6.024271    0.624652   -0.072321
     23          6           0       -4.742403    1.175508    0.016685
     24          6           0       -3.649399    0.311965   -0.037380
     25          6           0       -3.787728   -1.068259   -0.175727
     26          6           0       -5.078962   -1.597099   -0.262845
     27          1           0       -7.195236   -1.175901   -0.280086
     28          1           0       -6.889805    1.279856   -0.032298
     29          1           0       -4.580853    2.241147    0.125008
     30          1           0       -2.905682   -1.695994   -0.212618
     31          1           0       -5.209170   -2.670127   -0.371025
     32          7           0       -2.287385    0.883478    0.055848
     33          8           0       -1.340689    0.101246    0.005679
     34          8           0       -2.192325    2.102840    0.177323
 ---------------------------------------------------------------------

 SCF Done:  E(RHF) =  -669.535812921     A.U. after   15 cycles
 E2 =    -0.2090778880D+01 EUMP2 =    -0.67162659180090D+03

 The electronic state is 1-A.
 Alpha  occ. eigenvalues --  -20.60894 -20.60877 -15.85921 -11.31262 -11.27828
 Alpha  occ. eigenvalues --  -11.27824 -11.27569 -11.26839 -11.26830 -11.20962
 Alpha  occ. eigenvalues --  -11.20633 -11.20547 -11.20483 -11.20404 -11.19459
 Alpha  occ. eigenvalues --   -1.59954  -1.39509  -1.19432  -1.08834  -1.07558
 Alpha  occ. eigenvalues --   -1.04831  -1.02588  -0.95677  -0.95007  -0.86232
 Alpha  occ. eigenvalues --   -0.86017  -0.82505  -0.78677  -0.77557  -0.77342
 Alpha  occ. eigenvalues --   -0.72145  -0.71269  -0.70541  -0.65088  -0.64835
 Alpha  occ. eigenvalues --   -0.64193  -0.62178  -0.59981  -0.58442  -0.56629
 Alpha  occ. eigenvalues --   -0.55337  -0.54285  -0.53162  -0.52924  -0.51698
 Alpha  occ. eigenvalues --   -0.51436  -0.49151  -0.48900  -0.48686  -0.46962
 Alpha  occ. eigenvalues --   -0.45705  -0.44937  -0.44870  -0.44772  -0.42850
 Alpha  occ. eigenvalues --   -0.37413  -0.36433
 Alpha virt. eigenvalues --    0.04976   0.11221   0.16472   0.21334   0.23693
 Alpha virt. eigenvalues --    0.25260   0.27238   0.27504   0.28065   0.28340
 Alpha virt. eigenvalues --    0.29118   0.30872   0.32142   0.32420   0.32639

 Mulliken charges:
               1
     1  C   -0.298084
     2  C   -0.300044
     3  C   -0.476836
     4  H    0.147679
     5  H    0.152739
     6  H    0.145217
     7  H    0.149581
     8  H    0.180614
     9  H    0.147319
    10  H    0.154347
    11  C   -0.297465
    12  C   -0.299172
    13  C   -0.475221
    14  H    0.147124
    15  H    0.148503
    16  H    0.151006
    17  H    0.152504
    18  H    0.154415
    19  H    0.153853
    20  H    0.158642
    21  C   -0.170660
    22  C   -0.218603
    23  C   -0.170602
    24  C    0.157795
    25  C   -0.170819
    26  C   -0.218553
    27  H    0.225859
    28  H    0.223674
    29  H    0.275764
    30  H    0.275874
    31  H    0.223731
    32  N    0.491340
    33  O   -0.461472
    34  O   -0.460051
 Sum of Mulliken charges =  -0.00000

 Dipole moment (field-independent basis, Debye):
    X=             -5.1233    Y=             -1.9003    Z=             -0.3487  Tot=              5.4755
 Quadrupole moment (field-independent basis, Debye-Ang):
   XX=            -61.7344   YY=            -91.8665   ZZ=            -95.2975
   XY=              4.0928   XZ=              1.8811   YZ=              0.0468

 Normal termination of Gaussian 16 at Wed May  5 20:21:37 2021.
