 Gaussian 16, Revision A.03,
 Gaussian 16:  EM64L-G16RevA.03 25-Dec-2016

 -------------
 #p 6-31g* mp2
 -------------

 ------------------------------------------------------
 Input file generated by CHIRIPA (05-May-2021 14:51:14)
 ------------------------------------------------------
 Symbolic Z-matrix:
 Charge =  0 Multiplicity = 1

                         Standard orientation:
 ---------------------------------------------------------------------
 Center     Atomic      Atomic             Coordinates (Angstroms)
 Number     Number       Type             X           Y           Z
 ---------------------------------------------------------------------
      1          6           0       -2.998786    0.163331   -0.142289
      2          6           0       -2.534888    0.875747   -1.413213
      3          6           0       -3.694991    1.456516   -2.222325
      4          1           0       -3.696729   -0.640386   -0.414057
      5          1           0       -3.563729    0.870522    0.480699
      6          1           0       -1.969805    0.167798   -2.032975
      7          1           0       -1.837819    1.677739   -1.138403
      8          1           0       -4.255248    2.183345   -1.625305
      9          1           0       -4.387984    0.664825   -2.524960
     10          1           0       -3.340776    1.961266   -3.126548
     11          6           0       -1.850431   -0.422604    0.677277
     12          6           0       -2.314329   -1.135020    1.948201
     13          6           0       -1.154225   -1.715789    2.757312
     14          1           0       -1.285487   -1.129795    0.054288
     15          1           0       -1.152487    0.381113    0.949044
     16          1           0       -3.011397   -1.937012    1.673391
     17          1           0       -2.879412   -0.427072    2.567963
     18          1           0       -0.461233   -0.924098    3.059948
     19          1           0       -0.593968   -2.442618    2.160293
     20          1           0       -1.508441   -2.220539    3.661535
     21          6           0        2.227840    0.569556    0.325115
     22          6           0        2.817971    1.978474    0.256718
     23          6           0        2.415340    2.846566    1.449235
     24          1           0        1.132664    0.639704    0.376230
     25          1           0        2.554036    0.087786    1.257258
     26          1           0        2.491886    2.456938   -0.675675
     27          1           0        3.911861    1.904958    0.205567
     28          1           0        2.754643    2.394468    2.386828
     29          1           0        1.326600    2.949586    1.500579
     30          1           0        2.848123    3.849447    1.380048
     31          6           0        2.621377   -0.310283   -0.860103
     32          6           0        2.031245   -1.719201   -0.791705
     33          6           0        2.433877   -2.587293   -1.984222
     34          1           0        2.295181    0.171487   -1.792246
     35          1           0        3.716552   -0.380431   -0.911218
     36          1           0        0.937356   -1.645685   -0.740555
     37          1           0        2.357330   -2.197665    0.140688
     38          1           0        3.522615   -2.690313   -2.035567
     39          1           0        2.094573   -2.135195   -2.921817
     40          1           0        2.001093   -3.590174   -1.915036
 ---------------------------------------------------------------------

 SCF Done:  E(RHF) =  -470.732694391     A.U. after   11 cycles
 E2 =    -0.1584636059D+01 EUMP2 =    -0.47231733044997D+03

 The electronic state is 1-A.
 Alpha  occ. eigenvalues --  -11.21689 -11.21627 -11.21567 -11.21544 -11.21459
 Alpha  occ. eigenvalues --  -11.21397 -11.21336 -11.21251 -11.21132 -11.21085
 Alpha  occ. eigenvalues --  -11.21056 -11.21050  -1.08509  -1.08366  -1.03572
 Alpha  occ. eigenvalues --   -1.03504  -0.96022  -0.95950  -0.87036  -0.86970
 Alpha  occ. eigenvalues --   -0.79652  -0.79564  -0.78533  -0.77990  -0.65138
 Alpha  occ. eigenvalues --   -0.65019  -0.60997  -0.60882  -0.59395  -0.59315
 Alpha  occ. eigenvalues --   -0.57648  -0.57553  -0.55357  -0.55199  -0.52717
 Alpha  occ. eigenvalues --   -0.52654  -0.52460  -0.52375  -0.50040  -0.49837
 Alpha  occ. eigenvalues --   -0.48014  -0.47915  -0.46780  -0.46593  -0.46499
 Alpha  occ. eigenvalues --   -0.45687  -0.45591  -0.44954  -0.43830  -0.43739
 Alpha virt. eigenvalues --    0.20748   0.22858   0.23627   0.23875   0.25147
 Alpha virt. eigenvalues --    0.26417   0.26724   0.27880   0.28405   0.30576
 Alpha virt. eigenvalues --    0.30977   0.31039   0.31695   0.31922   0.32231

 Mulliken charges:
               1
     1  C   -0.297106
     2  C   -0.300263
     3  C   -0.475618
     4  H    0.149863
     5  H    0.149714
     6  H    0.151459
     7  H    0.151277
     8  H    0.155488
     9  H    0.155516
    10  H    0.160404
    11  C   -0.309765
    12  C   -0.298734
    13  C   -0.476964
    14  H    0.155871
    15  H    0.154220
    16  H    0.151813
    17  H    0.151874
    18  H    0.156216
    19  H    0.156351
    20  H    0.160026
    21  C   -0.307252
    22  C   -0.299166
    23  C   -0.475620
    24  H    0.159617
    25  H    0.149035
    26  H    0.151646
    27  H    0.151807
    28  H    0.155225
    29  H    0.153624
    30  H    0.160388
    31  C   -0.297249
    32  C   -0.307234
    33  C   -0.475267
    34  H    0.149208
    35  H    0.149287
    36  H    0.158598
    37  H    0.151994
    38  H    0.155271
    39  H    0.154862
    40  H    0.159585
 Sum of Mulliken charges =  -0.00000

 Dipole moment (field-independent basis, Debye):
    X=             -0.0445    Y=             -0.0078    Z=              0.0119  Tot=              0.0467
 Quadrupole moment (field-independent basis, Debye-Ang):
   XX=            -84.7173   YY=            -84.7676   ZZ=            -85.3949
   XY=              0.3008   XZ=              0.1604   YZ=             -0.0163

 Normal termination of Gaussian 16 at Thu May  6 05:36:45 2021.
