 Gaussian 16, Revision A.03,
 Gaussian 16:  EM64L-G16RevA.03 25-Dec-2016

 -------------
 #p 6-31g* mp2
 -------------

 ------------------------------------------------------
 Input file generated by CHIRIPA (05-May-2021 14:53:14)
 ------------------------------------------------------
 Symbolic Z-matrix:
 Charge =  0 Multiplicity = 1

                         Standard orientation:
 ---------------------------------------------------------------------
 Center     Atomic      Atomic             Coordinates (Angstroms)
 Number     Number       Type             X           Y           Z
 ---------------------------------------------------------------------
      1          6           0       -4.536788   -0.602377   -0.176599
      2          6           0       -5.351677    0.508407    0.486803
      3          6           0       -6.858514    0.327877    0.300675
      4          1           0       -4.774267   -0.632236   -1.248819
      5          1           0       -4.844963   -1.571795    0.238915
      6          1           0       -5.041082    1.475560    0.071157
      7          1           0       -5.112087    0.535750    1.557534
      8          1           0       -7.188766   -0.622762    0.731744
      9          1           0       -7.117358    0.322388   -0.763078
     10          1           0       -7.421877    1.132905    0.782768
     11          6           0       -3.028632   -0.435822    0.000755
     12          6           0       -2.213743   -1.546605   -0.662646
     13          6           0       -0.706906   -1.366076   -0.476519
     14          1           0       -2.720457    0.533596   -0.414758
     15          1           0       -2.791153   -0.405963    1.072976
     16          1           0       -2.453333   -1.573949   -1.733377
     17          1           0       -2.524338   -2.513759   -0.247000
     18          1           0       -0.448062   -1.360586    0.587234
     19          1           0       -0.376654   -0.415437   -0.907588
     20          1           0       -0.143543   -2.171103   -0.958612
     21          6           0        4.724270   -1.361863    0.404439
     22          6           0        4.474038   -0.856176   -0.875478
     23          6           0        3.496229    0.123271   -1.073272
     24          6           0        2.784219    0.576413    0.036230
     25          6           0        3.010332    0.092290    1.323781
     26          6           0        3.992908   -0.886853    1.498055
     27          1           0        5.485708   -2.122602    0.548954
     28          1           0        5.040483   -1.223213   -1.726636
     29          1           0        3.282037    0.532144   -2.053252
     30          1           0        2.429433    0.477781    2.152859
     31          1           0        4.185096   -1.277754    2.493196
     32          7           0        1.746534    1.613149   -0.160716
     33          8           0        1.132961    1.995811    0.833133
     34          8           0        1.566416    2.023448   -1.305202
 ---------------------------------------------------------------------

 SCF Done:  E(RHF) =  -669.536037891     A.U. after   15 cycles
 E2 =    -0.2091656748D+01 EUMP2 =    -0.67162769463841D+03

 The electronic state is 1-A.
 Alpha  occ. eigenvalues --  -20.60810 -20.60802 -15.85840 -11.31177 -11.27745
 Alpha  occ. eigenvalues --  -11.27741 -11.27488 -11.26760 -11.26750 -11.21140
 Alpha  occ. eigenvalues --  -11.21070 -11.20856 -11.20709 -11.20666 -11.20639
 Alpha  occ. eigenvalues --   -1.59877  -1.39430  -1.19346  -1.08751  -1.07888
 Alpha  occ. eigenvalues --   -1.04748  -1.03047  -0.95593  -0.95504  -0.86530
 Alpha  occ. eigenvalues --   -0.86149  -0.82428  -0.79119  -0.77680  -0.77478
 Alpha  occ. eigenvalues --   -0.72069  -0.71201  -0.70463  -0.65006  -0.64758
 Alpha  occ. eigenvalues --   -0.64515  -0.62100  -0.60444  -0.58867  -0.57106
 Alpha  occ. eigenvalues --   -0.55258  -0.54785  -0.53090  -0.52846  -0.52212
 Alpha  occ. eigenvalues --   -0.51922  -0.49448  -0.48831  -0.48823  -0.47430
 Alpha  occ. eigenvalues --   -0.46141  -0.45237  -0.45137  -0.44821  -0.43288
 Alpha  occ. eigenvalues --   -0.37313  -0.36345
 Alpha virt. eigenvalues --    0.05048   0.11285   0.16543   0.21410   0.23402
 Alpha virt. eigenvalues --    0.24722   0.27161   0.27348   0.27769   0.28256
 Alpha virt. eigenvalues --    0.28512   0.30954   0.31590   0.32240   0.32347

 Mulliken charges:
               1
     1  C   -0.298249
     2  C   -0.299642
     3  C   -0.475480
     4  H    0.148789
     5  H    0.146599
     6  H    0.155128
     7  H    0.151709
     8  H    0.153427
     9  H    0.154582
    10  H    0.159619
    11  C   -0.299643
    12  C   -0.298811
    13  C   -0.480982
    14  H    0.159436
    15  H    0.149682
    16  H    0.151621
    17  H    0.148518
    18  H    0.153085
    19  H    0.162828
    20  H    0.155391
    21  C   -0.170625
    22  C   -0.218606
    23  C   -0.171088
    24  C    0.160527
    25  C   -0.170777
    26  C   -0.218605
    27  H    0.225475
    28  H    0.223320
    29  H    0.275518
    30  H    0.275389
    31  H    0.223271
    32  N    0.488899
    33  O   -0.459012
    34  O   -0.461295
 Sum of Mulliken charges =  -0.00000

 Dipole moment (field-independent basis, Debye):
    X=              3.7313    Y=             -3.5385    Z=              0.6989  Tot=              5.1896
 Quadrupole moment (field-independent basis, Debye-Ang):
   XX=            -76.4956   YY=            -99.7035   ZZ=            -89.1880
   XY=             -8.5682   XZ=              0.9278   YZ=             -0.3358

 Normal termination of Gaussian 16 at Thu May  6 01:02:47 2021.
