 Gaussian 16, Revision A.03,
 Gaussian 16:  EM64L-G16RevA.03 25-Dec-2016

 -------------
 #p 6-31g* mp2
 -------------

 ------------------------------------------------------
 Input file generated by CHIRIPA (05-May-2021 14:53:12)
 ------------------------------------------------------
 Symbolic Z-matrix:
 Charge =  0 Multiplicity = 1

                         Standard orientation:
 ---------------------------------------------------------------------
 Center     Atomic      Atomic             Coordinates (Angstroms)
 Number     Number       Type             X           Y           Z
 ---------------------------------------------------------------------
      1          6           0       -3.454837    0.414700    0.571719
      2          6           0       -2.646762   -0.402046    1.580642
      3          6           0       -1.509458    0.399523    2.214536
      4          1           0       -2.782020    0.783872   -0.214394
      5          1           0       -3.865555    1.301739    1.073584
      6          1           0       -2.238839   -1.288002    1.077357
      7          1           0       -3.321615   -0.769476    2.364341
      8          1           0       -1.902336    1.275042    2.741521
      9          1           0       -0.813408    0.753570    1.447224
     10          1           0       -0.944879   -0.203510    2.932493
     11          6           0       -4.595394   -0.372947   -0.070519
     12          6           0       -5.403469    0.443799   -1.079442
     13          6           0       -6.540773   -0.357770   -1.713336
     14          1           0       -4.184676   -1.259986   -0.572384
     15          1           0       -5.268211   -0.742119    0.715594
     16          1           0       -4.728616    0.811230   -1.863141
     17          1           0       -5.811391    1.329755   -0.576157
     18          1           0       -7.236823   -0.711817   -0.946025
     19          1           0       -6.147895   -1.233289   -2.240321
     20          1           0       -7.105351    0.245263   -2.431293
     21          6           0        3.085356    2.504749   -0.277463
     22          6           0        2.091782    1.803213    0.413318
     23          6           0        2.114612    0.406311    0.465197
     24          6           0        3.150351   -0.260036   -0.187885
     25          6           0        4.154662    0.410546   -0.884283
     26          6           0        4.111815    1.807406   -0.922921
     27          1           0        3.059847    3.589880   -0.312621
     28          1           0        1.293413    2.342149    0.915513
     29          1           0        1.358116   -0.161833    0.992780
     30          1           0        4.937794   -0.154403   -1.375154
     31          1           0        4.884768    2.349604   -1.460145
     32          7           0        3.185115   -1.738852   -0.139971
     33          8           0        4.108342   -2.302511   -0.723561
     34          8           0        2.288478   -2.306288    0.480266
 ---------------------------------------------------------------------

 SCF Done:  E(RHF) =  -669.535404055     A.U. after   15 cycles
 E2 =    -0.2091495625D+01 EUMP2 =    -0.67162689967952D+03

 The electronic state is 1-A.
 Alpha  occ. eigenvalues --  -20.60741 -20.60736 -15.85792 -11.31132 -11.27719
 Alpha  occ. eigenvalues --  -11.27654 -11.27460 -11.26732 -11.26700 -11.21932
 Alpha  occ. eigenvalues --  -11.21785 -11.21746 -11.21677 -11.21527 -11.21155
 Alpha  occ. eigenvalues --   -1.59816  -1.39370  -1.19313  -1.08714  -1.08682
 Alpha  occ. eigenvalues --   -1.04719  -1.03827  -0.96315  -0.95549  -0.87340
 Alpha  occ. eigenvalues --   -0.86111  -0.82387  -0.79896  -0.78474  -0.77430
 Alpha  occ. eigenvalues --   -0.72013  -0.71139  -0.70434  -0.65322  -0.64965
 Alpha  occ. eigenvalues --   -0.64718  -0.62175  -0.61146  -0.59666  -0.57892
 Alpha  occ. eigenvalues --   -0.55654  -0.55176  -0.53053  -0.53016  -0.52795
 Alpha  occ. eigenvalues --   -0.52713  -0.50247  -0.48768  -0.48765  -0.48206
 Alpha  occ. eigenvalues --   -0.46899  -0.46028  -0.45921  -0.44780  -0.44063
 Alpha  occ. eigenvalues --   -0.37300  -0.36314
 Alpha virt. eigenvalues --    0.05084   0.11333   0.16542   0.20353   0.22770
 Alpha virt. eigenvalues --    0.23902   0.25677   0.26677   0.27226   0.28055
 Alpha virt. eigenvalues --    0.29226   0.30286   0.31345   0.31691   0.32202

 Mulliken charges:
               1
     1  C   -0.298879
     2  C   -0.300849
     3  C   -0.484066
     4  H    0.148383
     5  H    0.148333
     6  H    0.160344
     7  H    0.155280
     8  H    0.156537
     9  H    0.145783
    10  H    0.166466
    11  C   -0.299058
    12  C   -0.299810
    13  C   -0.475972
    14  H    0.152723
    15  H    0.150605
    16  H    0.151670
    17  H    0.151134
    18  H    0.155619
    19  H    0.156628
    20  H    0.160295
    21  C   -0.170657
    22  C   -0.222459
    23  C   -0.176668
    24  C    0.158734
    25  C   -0.170608
    26  C   -0.218952
    27  H    0.225493
    28  H    0.225860
    29  H    0.282810
    30  H    0.275361
    31  H    0.223265
    32  N    0.488113
    33  O   -0.460576
    34  O   -0.460883
 Sum of Mulliken charges =  -0.00000

 Dipole moment (field-independent basis, Debye):
    X=             -0.2652    Y=              5.1254    Z=             -0.1453  Tot=              5.1343
 Quadrupole moment (field-independent basis, Debye-Ang):
   XX=            -92.2641   YY=            -98.2231   ZZ=            -93.4108
   XY=             16.3396   XZ=             -4.2435   YZ=             -1.0755

 Normal termination of Gaussian 16 at Thu May  6 07:16:47 2021.
