 Gaussian 16, Revision A.03,
 Gaussian 16:  EM64L-G16RevA.03 25-Dec-2016

 -------------
 #p 6-31g* mp2
 -------------

 ------------------------------------------------------
 Input file generated by CHIRIPA (05-May-2021 14:51:10)
 ------------------------------------------------------
 Symbolic Z-matrix:
 Charge =  0 Multiplicity = 1

                         Standard orientation:
 ---------------------------------------------------------------------
 Center     Atomic      Atomic             Coordinates (Angstroms)
 Number     Number       Type             X           Y           Z
 ---------------------------------------------------------------------
      1          6           0        3.445800   -0.747731    0.110582
      2          6           0        2.131348   -1.432000   -0.266216
      3          6           0        2.158766   -2.940882   -0.020618
      4          1           0        4.265183   -1.199541   -0.465114
      5          1           0        3.662736   -0.943876    1.169761
      6          1           0        1.916254   -1.233468   -1.324014
      7          1           0        1.314972   -0.978379    0.310303
      8          1           0        2.348839   -3.155825    1.035920
      9          1           0        2.953538   -3.412364   -0.607682
     10          1           0        1.209224   -3.409897   -0.296759
     11          6           0        3.433904    0.760929   -0.129271
     12          6           0        4.748357    1.445198    0.247527
     13          6           0        4.720938    2.954079    0.001928
     14          1           0        3.216968    0.957074   -1.188451
     15          1           0        2.614521    1.212738    0.446424
     16          1           0        5.564733    0.991577   -0.328992
     17          1           0        4.963451    1.246666    1.305324
     18          1           0        3.926167    3.425561    0.588992
     19          1           0        4.530865    3.169023   -1.054610
     20          1           0        5.670481    3.423095    0.278069
     21          6           0       -4.009858    0.450732    0.231547
     22          6           0       -3.917610    1.861467   -0.350950
     23          6           0       -5.064954    2.764551    0.102740
     24          1           0       -4.969118    0.002149   -0.060925
     25          1           0       -4.016011    0.514182    1.328511
     26          1           0       -3.910238    1.795287   -1.446477
     27          1           0       -2.958375    2.306672   -0.057217
     28          1           0       -5.071745    2.860265    1.193333
     29          1           0       -6.029016    2.345975   -0.203821
     30          1           0       -4.979295    3.768163   -0.325379
     31          6           0       -2.869846   -0.463930   -0.212857
     32          6           0       -2.962095   -1.874665    0.369638
     33          6           0       -1.814750   -2.777749   -0.084050
     34          1           0       -2.863694   -0.527379   -1.309822
     35          1           0       -1.910587   -0.015346    0.079613
     36          1           0       -3.921329   -2.319870    0.075907
     37          1           0       -2.969467   -1.808484    1.465167
     38          1           0       -0.850689   -2.359173    0.222511
     39          1           0       -1.807959   -2.873463   -1.174643
     40          1           0       -1.900408   -3.781360    0.344068
 ---------------------------------------------------------------------

 SCF Done:  E(RHF) =  -470.732754846     A.U. after   11 cycles
 E2 =    -0.1583137116D+01 EUMP2 =    -0.47231589196189D+03

 The electronic state is 1-A.
 Alpha  occ. eigenvalues --  -11.21607 -11.21606 -11.21596 -11.21586 -11.21410
 Alpha  occ. eigenvalues --  -11.21398 -11.21351 -11.21339 -11.21077 -11.21068
 Alpha  occ. eigenvalues --  -11.21013 -11.20976  -1.08443  -1.08412  -1.03569
 Alpha  occ. eigenvalues --   -1.03479  -0.96046  -0.95899  -0.87063  -0.86914
 Alpha  occ. eigenvalues --   -0.79597  -0.79584  -0.78278  -0.78204  -0.65112
 Alpha  occ. eigenvalues --   -0.65014  -0.61060  -0.60827  -0.59383  -0.59329
 Alpha  occ. eigenvalues --   -0.57794  -0.57401  -0.55345  -0.55143  -0.52855
 Alpha  occ. eigenvalues --   -0.52593  -0.52499  -0.52143  -0.49912  -0.49874
 Alpha  occ. eigenvalues --   -0.47921  -0.47866  -0.46716  -0.46530  -0.45872
 Alpha  occ. eigenvalues --   -0.45742  -0.45732  -0.45588  -0.43842  -0.43704
 Alpha virt. eigenvalues --    0.21532   0.23100   0.23479   0.24809   0.25781
 Alpha virt. eigenvalues --    0.26826   0.26938   0.27211   0.28204   0.29137
 Alpha virt. eigenvalues --    0.30058   0.31025   0.31508   0.31744   0.32310

 Mulliken charges:
               1
     1  C   -0.298016
     2  C   -0.301754
     3  C   -0.481763
     4  H    0.149943
     5  H    0.149449
     6  H    0.152799
     7  H    0.151483
     8  H    0.154469
     9  H    0.155161
    10  H    0.168016
    11  C   -0.298230
    12  C   -0.299660
    13  C   -0.475691
    14  H    0.149710
    15  H    0.149183
    16  H    0.152031
    17  H    0.151890
    18  H    0.155068
    19  H    0.155250
    20  H    0.160281
    21  C   -0.298288
    22  C   -0.299606
    23  C   -0.475701
    24  H    0.149717
    25  H    0.149360
    26  H    0.151981
    27  H    0.151930
    28  H    0.155109
    29  H    0.155176
    30  H    0.160267
    31  C   -0.298749
    32  C   -0.300010
    33  C   -0.483453
    34  H    0.149632
    35  H    0.149845
    36  H    0.151755
    37  H    0.151600
    38  H    0.165201
    39  H    0.154715
    40  H    0.159903
 Sum of Mulliken charges =  -0.00000

 Dipole moment (field-independent basis, Debye):
    X=              0.0088    Y=             -0.0106    Z=             -0.0141  Tot=              0.0197
 Quadrupole moment (field-independent basis, Debye-Ang):
   XX=            -85.0695   YY=            -86.4883   ZZ=            -83.2783
   XY=              0.5367   XZ=              0.2948   YZ=              0.3562

 Normal termination of Gaussian 16 at Wed May  5 19:47:58 2021.
