 Gaussian 16, Revision A.03,
 Gaussian 16:  EM64L-G16RevA.03 25-Dec-2016

 -------------
 #p 6-31g* mp2
 -------------

 ------------------------------------------------------
 Input file generated by CHIRIPA (05-May-2021 14:57:26)
 ------------------------------------------------------
 Symbolic Z-matrix:
 Charge =  0 Multiplicity = 1

                         Standard orientation:
 ---------------------------------------------------------------------
 Center     Atomic      Atomic             Coordinates (Angstroms)
 Number     Number       Type             X           Y           Z
 ---------------------------------------------------------------------
      1          6           0       -2.226033   -2.195582    0.346155
      2          6           0       -3.337338   -1.940832    1.156478
      3          6           0       -4.064459   -0.755490    1.012232
      4          6           0       -3.650462    0.157192    0.043258
      5          6           0       -2.547674   -0.067825   -0.779248
      6          6           0       -1.835437   -1.259915   -0.617423
      7          1           0       -1.666969   -3.119006    0.465036
      8          1           0       -3.642978   -2.665676    1.905632
      9          1           0       -4.928705   -0.532862    1.626180
     10          1           0       -2.267202    0.673784   -1.517332
     11          1           0       -0.972793   -1.455094   -1.248134
     12          7           0       -4.412354    1.415632   -0.118753
     13          8           0       -4.027189    2.203623   -0.979773
     14          8           0       -5.380264    1.590179    0.618350
     15          6           0        4.551804    2.165452    0.844996
     16          6           0        4.750135    0.948507    1.505472
     17          6           0        4.185929   -0.229758    1.007569
     18          6           0        3.425616   -0.154279   -0.158415
     19          6           0        3.209878    1.042922   -0.839192
     20          6           0        3.783662    2.208700   -0.323168
     21          1           0        4.993814    3.075907    1.238817
     22          1           0        5.346221    0.911925    2.412880
     23          1           0        4.323468   -1.185353    1.498832
     24          1           0        2.610791    1.047820   -1.741683
     25          1           0        3.627957    3.152383   -0.838205
     26          7           0        2.823245   -1.395046   -0.695114
     27          8           0        2.157527   -1.301897   -1.724085
     28          8           0        3.028231   -2.437215   -0.076647
 ---------------------------------------------------------------------

 SCF Done:  E(RHF) =  -868.340433203     A.U. after   16 cycles
 E2 =    -0.2598248812D+01 EUMP2 =    -0.87093868201463D+03

 The electronic state is 1-A.
 Alpha  occ. eigenvalues --  -20.61701 -20.61665 -20.60398 -20.60392 -15.86703
 Alpha  occ. eigenvalues --  -15.85442 -11.31758 -11.30632 -11.28290 -11.28286
 Alpha  occ. eigenvalues --  -11.27959 -11.27231 -11.27212 -11.27190 -11.27120
 Alpha  occ. eigenvalues --  -11.26773 -11.26167 -11.25934  -1.60747  -1.59477
 Alpha  occ. eigenvalues --   -1.40309  -1.39035  -1.19899  -1.18760  -1.09349
 Alpha  occ. eigenvalues --   -1.08171  -1.05254  -1.04122  -0.96236  -0.95047
 Alpha  occ. eigenvalues --   -0.86666  -0.85513  -0.83080  -0.81877  -0.78166
 Alpha  occ. eigenvalues --   -0.76963  -0.72932  -0.72048  -0.71663  -0.71001
 Alpha  occ. eigenvalues --   -0.70798  -0.69836  -0.65554  -0.65250  -0.64394
 Alpha  occ. eigenvalues --   -0.64068  -0.62607  -0.61457  -0.55759  -0.54576
 Alpha  occ. eigenvalues --   -0.53598  -0.53340  -0.52484  -0.52172  -0.49704
 Alpha  occ. eigenvalues --   -0.49662  -0.48431  -0.48401  -0.45772  -0.44481
 Alpha  occ. eigenvalues --   -0.37854  -0.36841  -0.36719  -0.35738
 Alpha virt. eigenvalues --    0.04310   0.05538   0.10817   0.11920   0.15853
 Alpha virt. eigenvalues --    0.17097   0.20978   0.22262   0.26915   0.27658
 Alpha virt. eigenvalues --    0.28340   0.29035   0.30594   0.31739   0.32244

 Mulliken charges:
               1
     1  C   -0.172764
     2  C   -0.218940
     3  C   -0.172950
     4  C    0.158136
     5  C   -0.174022
     6  C   -0.228027
     7  H    0.231158
     8  H    0.221471
     9  H    0.272979
    10  H    0.272777
    11  H    0.244067
    12  N    0.488148
    13  O   -0.462992
    14  O   -0.462275
    15  C   -0.169513
    16  C   -0.218381
    17  C   -0.170608
    18  C    0.157865
    19  C   -0.170596
    20  C   -0.217995
    21  H    0.228403
    22  H    0.225248
    23  H    0.275452
    24  H    0.274584
    25  H    0.226725
    26  N    0.488635
    27  O   -0.467615
    28  O   -0.458969
 Sum of Mulliken charges =  -0.00000

 Dipole moment (field-independent basis, Debye):
    X=              5.2154    Y=             -0.0754    Z=              2.4884  Tot=              5.7791
 Quadrupole moment (field-independent basis, Debye-Ang):
   XX=           -108.5021   YY=           -106.4784   ZZ=           -100.5927
   XY=             31.9984   XZ=              3.7977   YZ=             -4.4750

 Normal termination of Gaussian 16 at Thu May  6 14:48:15 2021.
