 Gaussian 16, Revision A.03,
 Gaussian 16:  EM64L-G16RevA.03 25-Dec-2016

 -------------
 #p 6-31g* mp2
 -------------

 ------------------------------------------------------
 Input file generated by CHIRIPA (05-May-2021 14:55:21)
 ------------------------------------------------------
 Symbolic Z-matrix:
 Charge =  0 Multiplicity = 1

                         Standard orientation:
 ---------------------------------------------------------------------
 Center     Atomic      Atomic             Coordinates (Angstroms)
 Number     Number       Type             X           Y           Z
 ---------------------------------------------------------------------
      1          6           0        1.162856    1.348444    1.217399
      2          6           0        2.484605    1.804069    1.261076
      3          6           0        3.512712    1.057156    0.678270
      4          6           0        3.181839   -0.146241    0.057263
      5          6           0        1.874674   -0.626873   -0.002752
      6          6           0        0.862638    0.136564    0.586736
      7          1           0        0.370440    1.935082    1.672733
      8          1           0        2.720695    2.744859    1.750179
      9          1           0        4.544547    1.386342    0.697525
     10          1           0        1.670278   -1.568626   -0.497466
     11          1           0       -0.162949   -0.219749    0.551290
     12          7           0        4.261743   -0.945711   -0.563265
     13          8           0        3.944111   -2.002589   -1.104334
     14          8           0        5.405354   -0.500319   -0.496815
     15          6           0       -3.352931    0.516612   -0.509620
     16          6           0       -3.867768    1.956377   -0.507471
     17          6           0       -2.872310    2.941063   -1.121676
     18          1           0       -2.403741    0.472531    0.041778
     19          1           0       -3.128616    0.216335   -1.542533
     20          1           0       -4.092355    2.253380    0.524986
     21          1           0       -4.815941    1.997000   -1.058774
     22          1           0       -2.655676    2.672199   -2.160610
     23          1           0       -1.927980    2.930035   -0.567852
     24          1           0       -3.260572    3.964281   -1.109927
     25          6           0       -4.336944   -0.479547    0.101213
     26          6           0       -3.822107   -1.919312    0.099064
     27          6           0       -4.817565   -2.903998    0.713269
     28          1           0       -4.561260   -0.179270    1.134127
     29          1           0       -5.286134   -0.435466   -0.450185
     30          1           0       -2.873934   -1.959935    0.650367
     31          1           0       -3.597520   -2.216315   -0.933392
     32          1           0       -5.761895   -2.892970    0.159445
     33          1           0       -5.034199   -2.635134    1.752203
     34          1           0       -4.429304   -3.927217    0.701519
 ---------------------------------------------------------------------

 SCF Done:  E(RHF) =  -669.535512626     A.U. after   15 cycles
 E2 =    -0.2091539732D+01 EUMP2 =    -0.67162705235826D+03

 The electronic state is 1-A.
 Alpha  occ. eigenvalues --  -20.60740 -20.60735 -15.85792 -11.31160 -11.27726
 Alpha  occ. eigenvalues --  -11.27714 -11.27479 -11.26750 -11.26714 -11.22459
 Alpha  occ. eigenvalues --  -11.22403 -11.22385 -11.22187 -11.21875 -11.21671
 Alpha  occ. eigenvalues --   -1.59815  -1.39368  -1.19330  -1.09298  -1.08728
 Alpha  occ. eigenvalues --   -1.04731  -1.04317  -0.96761  -0.95563  -0.87771
 Alpha  occ. eigenvalues --   -0.86136  -0.82393  -0.80386  -0.79136  -0.77436
 Alpha  occ. eigenvalues --   -0.72011  -0.71137  -0.70446  -0.65977  -0.64983
 Alpha  occ. eigenvalues --   -0.64718  -0.62088  -0.61710  -0.60125  -0.58372
 Alpha  occ. eigenvalues --   -0.56066  -0.55235  -0.53425  -0.53201  -0.53061
 Alpha  occ. eigenvalues --   -0.52813  -0.50698  -0.48778  -0.48766  -0.48691
 Alpha  occ. eigenvalues --   -0.47432  -0.46646  -0.46567  -0.44773  -0.44594
 Alpha  occ. eigenvalues --   -0.37313  -0.36328
 Alpha virt. eigenvalues --    0.05084   0.11270   0.16549   0.18821   0.22760
 Alpha virt. eigenvalues --    0.23047   0.24548   0.26124   0.26631   0.28147
 Alpha virt. eigenvalues --    0.29134   0.30888   0.30980   0.31389   0.32134

 Mulliken charges:
               1
     1  C   -0.173622
     2  C   -0.218329
     3  C   -0.171256
     4  C    0.159050
     5  C   -0.172300
     6  C   -0.224201
     7  H    0.225240
     8  H    0.223373
     9  H    0.275524
    10  H    0.276174
    11  H    0.232715
    12  N    0.487957
    13  O   -0.460365
    14  O   -0.460530
    15  C   -0.302045
    16  C   -0.300398
    17  C   -0.475385
    18  H    0.140300
    19  H    0.153842
    20  H    0.151385
    21  H    0.156234
    22  H    0.159190
    23  H    0.149045
    24  H    0.163075
    25  C   -0.298469
    26  C   -0.300683
    27  C   -0.476128
    28  H    0.149984
    29  H    0.153744
    30  H    0.145748
    31  H    0.154548
    32  H    0.157583
    33  H    0.155982
    34  H    0.163018
 Sum of Mulliken charges =  -0.00000

 Dipole moment (field-independent basis, Debye):
    X=             -4.0237    Y=              2.8022    Z=              2.1037  Tot=              5.3355
 Quadrupole moment (field-independent basis, Debye-Ang):
   XX=           -116.2609   YY=            -93.9753   ZZ=            -94.1090
   XY=             11.9062   XZ=              8.7674   YZ=              1.3880

 Normal termination of Gaussian 16 at Thu May  6 20:44:42 2021.
