 Gaussian 16, Revision A.03,
 Gaussian 16:  EM64L-G16RevA.03 25-Dec-2016

 -------------
 #p 6-31g* mp2
 -------------

 ------------------------------------------------------
 Input file generated by CHIRIPA (05-May-2021 14:57:25)
 ------------------------------------------------------
 Symbolic Z-matrix:
 Charge =  0 Multiplicity = 1

                         Standard orientation:
 ---------------------------------------------------------------------
 Center     Atomic      Atomic             Coordinates (Angstroms)
 Number     Number       Type             X           Y           Z
 ---------------------------------------------------------------------
      1          6           0       -2.688671    2.358910    0.853208
      2          6           0       -1.791464    1.321906    0.577231
      3          6           0       -2.250668    0.100410    0.075606
      4          6           0       -3.619770   -0.050358   -0.139147
      5          6           0       -4.538633    0.963890    0.125960
      6          6           0       -4.056980    2.176913    0.627090
      7          1           0       -2.323230    3.304507    1.242690
      8          1           0       -0.728279    1.460421    0.751862
      9          1           0       -1.578099   -0.719120   -0.146744
     10          1           0       -5.592795    0.796029   -0.058387
     11          1           0       -4.756070    2.980512    0.840506
     12          7           0       -4.117792   -1.339017   -0.669933
     13          8           0       -5.328763   -1.446700   -0.850463
     14          8           0       -3.287741   -2.216983   -0.895382
     15          6           0        2.546998   -2.221865    1.120089
     16          6           0        1.808243   -1.035171    1.069887
     17          6           0        2.347128    0.112250    0.480330
     18          6           0        3.633467    0.037109   -0.051624
     19          6           0        4.394438   -1.130373   -0.016989
     20          6           0        3.835466   -2.265601    0.577448
     21          1           0        2.120578   -3.108473    1.579967
     22          1           0        0.807362   -0.998285    1.490505
     23          1           0        1.797207    1.044053    0.427892
     24          1           0        5.389625   -1.136380   -0.444755
     25          1           0        4.411498   -3.185830    0.615012
     26          7           0        4.214592    1.245379   -0.678345
     27          8           0        5.350004    1.153207   -1.139845
     28          8           0        3.523662    2.261712   -0.696202
 ---------------------------------------------------------------------

 SCF Done:  E(RHF) =  -868.337210265     A.U. after   16 cycles
 E2 =    -0.2600175422D+01 EUMP2 =    -0.87093738568720D+03

 The electronic state is 1-A.
 Alpha  occ. eigenvalues --  -20.61266 -20.61247 -20.61208 -20.61193 -15.86316
 Alpha  occ. eigenvalues --  -15.86261 -11.31731 -11.31670 -11.28439 -11.28321
 Alpha  occ. eigenvalues --  -11.28248 -11.28215 -11.27987 -11.27969 -11.27389
 Alpha  occ. eigenvalues --  -11.27372 -11.27228 -11.27204  -1.60331  -1.60278
 Alpha  occ. eigenvalues --   -1.39886  -1.39831  -1.19901  -1.19850  -1.09262
 Alpha  occ. eigenvalues --   -1.09224  -1.05366  -1.05256  -0.96100  -0.96053
 Alpha  occ. eigenvalues --   -0.86730  -0.86651  -0.83001  -0.82860  -0.78093
 Alpha  occ. eigenvalues --   -0.77874  -0.72534  -0.72478  -0.71652  -0.71601
 Alpha  occ. eigenvalues --   -0.70997  -0.70929  -0.65580  -0.65523  -0.65407
 Alpha  occ. eigenvalues --   -0.65212  -0.62967  -0.62369  -0.55798  -0.55691
 Alpha  occ. eigenvalues --   -0.53624  -0.53616  -0.53521  -0.53250  -0.49298
 Alpha  occ. eigenvalues --   -0.49283  -0.49239  -0.49228  -0.45282  -0.45228
 Alpha  occ. eigenvalues --   -0.37826  -0.37798  -0.36940  -0.36881
 Alpha virt. eigenvalues --    0.04551   0.04598   0.10696   0.10776   0.15957
 Alpha virt. eigenvalues --    0.16032   0.17868   0.22249   0.24457   0.26043
 Alpha virt. eigenvalues --    0.28230   0.28972   0.30618   0.31046   0.32391

 Mulliken charges:
               1
     1  C   -0.170609
     2  C   -0.221247
     3  C   -0.175766
     4  C    0.159599
     5  C   -0.169665
     6  C   -0.218277
     7  H    0.230201
     8  H    0.220719
     9  H    0.272916
    10  H    0.277389
    11  H    0.226159
    12  N    0.488284
    13  O   -0.458348
    14  O   -0.461848
    15  C   -0.168698
    16  C   -0.222780
    17  C   -0.177535
    18  C    0.161553
    19  C   -0.169084
    20  C   -0.218015
    21  H    0.230775
    22  H    0.220967
    23  H    0.270472
    24  H    0.277832
    25  H    0.226871
    26  N    0.488426
    27  O   -0.457444
    28  O   -0.462846
 Sum of Mulliken charges =  -0.00000

 Dipole moment (field-independent basis, Debye):
    X=             -0.2701    Y=              0.2136    Z=              4.0568  Tot=              4.0714
 Quadrupole moment (field-independent basis, Debye-Ang):
   XX=           -122.9077   YY=           -104.0370   ZZ=           -106.9953
   XY=            -37.5702   XZ=             -0.0139   YZ=              0.1421

 Normal termination of Gaussian 16 at Thu May  6 13:01:56 2021.
