 Gaussian 16, Revision A.03,
 Gaussian 16:  EM64L-G16RevA.03 25-Dec-2016

 -------------
 #p 6-31g* mp2
 -------------

 ------------------------------------------------------
 Input file generated by CHIRIPA (05-May-2021 14:57:21)
 ------------------------------------------------------
 Symbolic Z-matrix:
 Charge =  0 Multiplicity = 1

                         Standard orientation:
 ---------------------------------------------------------------------
 Center     Atomic      Atomic             Coordinates (Angstroms)
 Number     Number       Type             X           Y           Z
 ---------------------------------------------------------------------
      1          6           0       -2.679253    2.013529    0.363034
      2          6           0       -3.991237    2.064723    0.845319
      3          6           0       -4.847505    0.970351    0.691361
      4          6           0       -4.356618   -0.164324    0.047285
      5          6           0       -3.054631   -0.245884   -0.444108
      6          6           0       -2.215954    0.860421   -0.279009
      7          1           0       -2.020917    2.868298    0.486959
      8          1           0       -4.353750    2.958929    1.344344
      9          1           0       -5.867764    0.983024    1.055130
     10          1           0       -2.721805   -1.151106   -0.937280
     11          1           0       -1.197529    0.817837   -0.654564
     12          7           0       -5.253798   -1.329203   -0.121600
     13          8           0       -4.797226   -2.317173   -0.692646
     14          8           0       -6.396593   -1.232208    0.320270
     15          6           0        2.428704    1.578132   -0.861745
     16          6           0        2.145883    0.211608   -0.766105
     17          6           0        3.124485   -0.687265   -0.331461
     18          6           0        4.380840   -0.182905    0.000928
     19          6           0        4.693228    1.173015   -0.083833
     20          6           0        3.699234    2.053636   -0.520905
     21          1           0        1.662525    2.269309   -1.200330
     22          1           0        1.160053   -0.160505   -1.030139
     23          1           0        2.932541   -1.750106   -0.248130
     24          1           0        5.685216    1.514131    0.186385
     25          1           0        3.921707    3.114380   -0.594207
     26          7           0        5.424989   -1.124841    0.462351
     27          8           0        6.524018   -0.655318    0.749265
     28          8           0        5.124592   -2.314815    0.528363
 ---------------------------------------------------------------------

 SCF Done:  E(RHF) =  -868.336149294     A.U. after   16 cycles
 E2 =    -0.2599784700D+01 EUMP2 =    -0.87093593399337D+03

 The electronic state is 1-A.
 Alpha  occ. eigenvalues --  -20.61270 -20.61263 -20.61241 -20.61236 -15.86331
 Alpha  occ. eigenvalues --  -15.86302 -11.31837 -11.31834 -11.28490 -11.28448
 Alpha  occ. eigenvalues --  -11.28412 -11.28399 -11.28311 -11.28252 -11.27621
 Alpha  occ. eigenvalues --  -11.27605 -11.27478 -11.27434  -1.60342  -1.60313
 Alpha  occ. eigenvalues --   -1.39892  -1.39861  -1.20047  -1.20039  -1.09436
 Alpha  occ. eigenvalues --   -1.09411  -1.05495  -1.05463  -0.96229  -0.96218
 Alpha  occ. eigenvalues --   -0.86936  -0.86832  -0.83075  -0.83041  -0.78114
 Alpha  occ. eigenvalues --   -0.78021  -0.72547  -0.72518  -0.71667  -0.71638
 Alpha  occ. eigenvalues --   -0.71204  -0.71153  -0.65784  -0.65706  -0.65685
 Alpha  occ. eigenvalues --   -0.65314  -0.62953  -0.62690  -0.56051  -0.55983
 Alpha  occ. eigenvalues --   -0.53815  -0.53776  -0.53728  -0.53435  -0.49323
 Alpha  occ. eigenvalues --   -0.49292  -0.49287  -0.49259  -0.45266  -0.45229
 Alpha  occ. eigenvalues --   -0.38070  -0.38021  -0.37094  -0.37049
 Alpha virt. eigenvalues --    0.04483   0.04493   0.10461   0.10631   0.15904
 Alpha virt. eigenvalues --    0.15949   0.17449   0.22059   0.24463   0.26276
 Alpha virt. eigenvalues --    0.27875   0.28900   0.29706   0.30969   0.31921

 Mulliken charges:
               1
     1  C   -0.170648
     2  C   -0.218052
     3  C   -0.169554
     4  C    0.159250
     5  C   -0.170891
     6  C   -0.219395
     7  H    0.224089
     8  H    0.225711
     9  H    0.278093
    10  H    0.275022
    11  H    0.215161
    12  N    0.488102
    13  O   -0.459359
    14  O   -0.458256
    15  C   -0.171869
    16  C   -0.220263
    17  C   -0.169245
    18  C    0.159341
    19  C   -0.169770
    20  C   -0.218069
    21  H    0.219626
    22  H    0.218144
    23  H    0.278860
    24  H    0.277974
    25  H    0.224869
    26  N    0.487858
    27  O   -0.458669
    28  O   -0.458061
 Sum of Mulliken charges =  -0.00000

 Dipole moment (field-independent basis, Debye):
    X=             -0.4990    Y=              7.3774    Z=             -0.9199  Tot=              7.4513
 Quadrupole moment (field-independent basis, Debye-Ang):
   XX=           -158.3280   YY=           -103.7967   ZZ=           -105.2217
   XY=             -2.6230   XZ=            -11.3273   YZ=              2.3152

 Normal termination of Gaussian 16 at Thu May  6 06:30:59 2021.
