 Gaussian 16, Revision A.03,
 Gaussian 16:  EM64L-G16RevA.03 25-Dec-2016

 -------------
 #p 6-31g* mp2
 -------------

 ------------------------------------------------------
 Input file generated by CHIRIPA (05-May-2021 14:57:22)
 ------------------------------------------------------
 Symbolic Z-matrix:
 Charge =  0 Multiplicity = 1

                         Standard orientation:
 ---------------------------------------------------------------------
 Center     Atomic      Atomic             Coordinates (Angstroms)
 Number     Number       Type             X           Y           Z
 ---------------------------------------------------------------------
      1          6           0        6.342766    0.325606    0.088696
      2          6           0        5.742732   -0.863878    0.514854
      3          6           0        4.351223   -0.998851    0.509295
      4          6           0        3.586705    0.080572    0.069239
      5          6           0        4.154898    1.278483   -0.361408
      6          6           0        5.548334    1.391111   -0.347306
      7          1           0        7.424472    0.421777    0.096333
      8          1           0        6.357202   -1.693012    0.853982
      9          1           0        3.860548   -1.908416    0.833868
     10          1           0        3.516057    2.087625   -0.693955
     11          1           0        6.011587    2.316063   -0.678825
     12          7           0        2.112557   -0.050491    0.058832
     13          8           0        1.461227    0.915156   -0.333511
     14          8           0        1.636362   -1.116382    0.443215
     15          6           0       -5.707549    1.491545    0.476338
     16          6           0       -5.945984    0.113650    0.443576
     17          6           0       -4.913001   -0.778678    0.141509
     18          6           0       -3.648116   -0.256247   -0.123865
     19          6           0       -3.379083    1.111339   -0.099006
     20          6           0       -4.427118    1.985122    0.205420
     21          1           0       -6.515841    2.177524    0.711908
     22          1           0       -6.939381   -0.272505    0.653554
     23          1           0       -5.069817   -1.850027    0.109277
     24          1           0       -2.378250    1.466390   -0.312756
     25          1           0       -4.239035    3.054729    0.230144
     26          7           0       -2.546576   -1.191099   -0.444898
     27          8           0       -1.441131   -0.705604   -0.674951
     28          8           0       -2.809491   -2.391629   -0.460394
 ---------------------------------------------------------------------

 SCF Done:  E(RHF) =  -868.335031110     A.U. after   16 cycles
 E2 =    -0.2601048482D+01 EUMP2 =    -0.87093607959221D+03

 The electronic state is 1-A.
 Alpha  occ. eigenvalues --  -20.59787 -20.59727 -20.59260 -20.59088 -15.84833
 Alpha  occ. eigenvalues --  -15.84223 -11.30558 -11.30032 -11.27188 -11.27145
 Alpha  occ. eigenvalues --  -11.26977 -11.26706 -11.26586 -11.26531 -11.26275
 Alpha  occ. eigenvalues --  -11.26247 -11.25816 -11.25767  -1.58804  -1.58259
 Alpha  occ. eigenvalues --   -1.38362  -1.37792  -1.18760  -1.18262  -1.08085
 Alpha  occ. eigenvalues --   -1.07586  -1.04218  -1.03726  -0.94863  -0.94332
 Alpha  occ. eigenvalues --   -0.85600  -0.85104  -0.81701  -0.81157  -0.76684
 Alpha  occ. eigenvalues --   -0.76119  -0.71030  -0.70459  -0.70139  -0.69867
 Alpha  occ. eigenvalues --   -0.69612  -0.69368  -0.64408  -0.64225  -0.63895
 Alpha  occ. eigenvalues --   -0.63740  -0.61564  -0.61054  -0.54705  -0.54239
 Alpha  occ. eigenvalues --   -0.52527  -0.52317  -0.52045  -0.51822  -0.47872
 Alpha  occ. eigenvalues --   -0.47796  -0.47160  -0.47082  -0.43701  -0.43073
 Alpha  occ. eigenvalues --   -0.36763  -0.36286  -0.35839  -0.35353
 Alpha virt. eigenvalues --    0.05861   0.06407   0.11810   0.12294   0.17290
 Alpha virt. eigenvalues --    0.17806   0.21893   0.22360   0.27779   0.28238
 Alpha virt. eigenvalues --    0.28810   0.29328   0.31414   0.31865   0.33064

 Mulliken charges:
               1
     1  C   -0.172033
     2  C   -0.218502
     3  C   -0.171319
     4  C    0.159813
     5  C   -0.171748
     6  C   -0.218461
     7  H    0.223248
     8  H    0.221952
     9  H    0.276897
    10  H    0.273052
    11  H    0.220783
    12  N    0.487725
    13  O   -0.462924
    14  O   -0.447008
    15  C   -0.172379
    16  C   -0.219042
    17  C   -0.172132
    18  C    0.158059
    19  C   -0.173115
    20  C   -0.219361
    21  H    0.221185
    22  H    0.219294
    23  H    0.273262
    24  H    0.285761
    25  H    0.220261
    26  N    0.485839
    27  O   -0.438909
    28  O   -0.470197
 Sum of Mulliken charges =  -0.00000

 Dipole moment (field-independent basis, Debye):
    X=              1.5559    Y=              3.6560    Z=              1.1291  Tot=              4.1307
 Quadrupole moment (field-independent basis, Debye-Ang):
   XX=            -41.9815   YY=            -99.9441   ZZ=           -106.1575
   XY=             -7.0790   XZ=             -3.2936   YZ=             -3.1280

 Normal termination of Gaussian 16 at Fri May  7 07:57:12 2021.
