 Gaussian 16, Revision A.03,
 Gaussian 16:  EM64L-G16RevA.03 25-Dec-2016

 -------------
 #p 6-31g* mp2
 -------------

 ------------------------------------------------------
 Input file generated by CHIRIPA (05-May-2021 14:57:23)
 ------------------------------------------------------
 Symbolic Z-matrix:
 Charge =  0 Multiplicity = 1

                         Standard orientation:
 ---------------------------------------------------------------------
 Center     Atomic      Atomic             Coordinates (Angstroms)
 Number     Number       Type             X           Y           Z
 ---------------------------------------------------------------------
      1          6           0       -3.458104    2.087348    1.502054
      2          6           0       -3.276196    0.810035    2.042333
      3          6           0       -3.080833   -0.293304    1.206255
      4          6           0       -3.073088   -0.082154   -0.171658
      5          6           0       -3.251519    1.178072   -0.740238
      6          6           0       -3.445208    2.266973    0.114938
      7          1           0       -3.609217    2.938840    2.158957
      8          1           0       -3.285739    0.667559    3.119205
      9          1           0       -2.937528   -1.293092    1.597797
     10          1           0       -3.237033    1.288733   -1.817718
     11          1           0       -3.586220    3.257805   -0.307451
     12          7           0       -2.867152   -1.242567   -1.066885
     13          8           0       -2.864527   -1.030063   -2.277452
     14          8           0       -2.712263   -2.342631   -0.541046
     15          6           0        1.959722   -2.204021    0.837072
     16          6           0        3.201351   -1.835851    1.365589
     17          6           0        3.846206   -0.677196    0.922613
     18          6           0        3.217946    0.093434   -0.054480
     19          6           0        1.981264   -0.246885   -0.600457
     20          6           0        1.354707   -1.409763   -0.142537
     21          1           0        1.465890   -3.105732    1.186991
     22          1           0        3.673567   -2.450767    2.126466
     23          1           0        4.807772   -0.368792    1.314652
     24          1           0        1.535356    0.386277   -1.357881
     25          1           0        0.390478   -1.693237   -0.554785
     26          7           0        3.890939    1.322285   -0.531349
     27          8           0        3.316485    1.984171   -1.393060
     28          8           0        4.980142    1.600304   -0.034378
 ---------------------------------------------------------------------

 SCF Done:  E(RHF) =  -868.339479145     A.U. after   16 cycles
 E2 =    -0.2599039513D+01 EUMP2 =    -0.87093851865852D+03

 The electronic state is 1-A.
 Alpha  occ. eigenvalues --  -20.61704 -20.61675 -20.60589 -20.60584 -15.86711
 Alpha  occ. eigenvalues --  -15.85637 -11.31803 -11.30899 -11.28360 -11.28307
 Alpha  occ. eigenvalues --  -11.27993 -11.27471 -11.27408 -11.27282 -11.27238
 Alpha  occ. eigenvalues --  -11.27120 -11.26467 -11.26314  -1.60774  -1.59667
 Alpha  occ. eigenvalues --   -1.40327  -1.39223  -1.19945  -1.19048  -1.09388
 Alpha  occ. eigenvalues --   -1.08454  -1.05297  -1.04427  -0.96266  -0.95311
 Alpha  occ. eigenvalues --   -0.86708  -0.85820  -0.83100  -0.82143  -0.78191
 Alpha  occ. eigenvalues --   -0.77214  -0.72920  -0.72112  -0.71856  -0.71034
 Alpha  occ. eigenvalues --   -0.70990  -0.70136  -0.65591  -0.65285  -0.64690
 Alpha  occ. eigenvalues --   -0.64393  -0.62648  -0.61763  -0.55790  -0.54903
 Alpha  occ. eigenvalues --   -0.53647  -0.53378  -0.52776  -0.52496  -0.49705
 Alpha  occ. eigenvalues --   -0.49657  -0.48619  -0.48605  -0.45771  -0.44652
 Alpha  occ. eigenvalues --   -0.37904  -0.37024  -0.36881  -0.36033
 Alpha virt. eigenvalues --    0.04293   0.05303   0.10751   0.11630   0.15847
 Alpha virt. eigenvalues --    0.16830   0.20936   0.21794   0.26881   0.27278
 Alpha virt. eigenvalues --    0.27987   0.28705   0.30516   0.31299   0.31986

 Mulliken charges:
               1
     1  C   -0.169174
     2  C   -0.217776
     3  C   -0.171394
     4  C    0.154706
     5  C   -0.171229
     6  C   -0.217572
     7  H    0.228910
     8  H    0.225002
     9  H    0.273178
    10  H    0.277332
    11  H    0.227429
    12  N    0.485115
    13  O   -0.456099
    14  O   -0.465286
    15  C   -0.172997
    16  C   -0.219057
    17  C   -0.172307
    18  C    0.158118
    19  C   -0.172119
    20  C   -0.224838
    21  H    0.228637
    22  H    0.221861
    23  H    0.273915
    24  H    0.275305
    25  H    0.235709
    26  N    0.488077
    27  O   -0.461640
    28  O   -0.461807
 Sum of Mulliken charges =  -0.00000

 Dipole moment (field-independent basis, Debye):
    X=             -3.3709    Y=             -0.1260    Z=              4.8484  Tot=              5.9064
 Quadrupole moment (field-independent basis, Debye-Ang):
   XX=           -113.9059   YY=           -105.0647   ZZ=           -101.4902
   XY=            -28.5759   XZ=             -1.1870   YZ=             -3.8255

 Normal termination of Gaussian 16 at Fri May  7 04:55:22 2021.
