 Gaussian 16, Revision A.03,
 Gaussian 16:  EM64L-G16RevA.03 25-Dec-2016

 -------------
 #p 6-31g* mp2
 -------------

 ------------------------------------------------------
 Input file generated by CHIRIPA (05-May-2021 14:53:14)
 ------------------------------------------------------
 Symbolic Z-matrix:
 Charge =  0 Multiplicity = 1

                         Standard orientation:
 ---------------------------------------------------------------------
 Center     Atomic      Atomic             Coordinates (Angstroms)
 Number     Number       Type             X           Y           Z
 ---------------------------------------------------------------------
      1          6           0        4.676050   -0.281526    0.184635
      2          6           0        4.768466   -1.714482   -0.340801
      3          6           0        5.856615   -2.530994    0.357078
      4          1           0        5.648171    0.213414    0.054404
      5          1           0        4.480423   -0.306667    1.265603
      6          1           0        4.962486   -1.686642   -1.420707
      7          1           0        3.795957   -2.206007   -0.209480
      8          1           0        5.664499   -2.588503    1.433361
      9          1           0        6.837656   -2.066187    0.215252
     10          1           0        5.905275   -3.552088   -0.033895
     11          6           0        3.592751    0.547295   -0.503295
     12          6           0        3.500335    1.980250    0.022140
     13          6           0        2.412186    2.796763   -0.675738
     14          1           0        3.788378    0.572435   -1.584263
     15          1           0        2.620630    0.052355   -0.373065
     16          1           0        4.472844    2.471776   -0.109181
     17          1           0        3.306315    1.952411    1.102046
     18          1           0        1.431145    2.331955   -0.533912
     19          1           0        2.604302    2.854272   -1.752021
     20          1           0        2.363526    3.817857   -0.284765
     21          6           0       -5.451261   -0.893909   -0.774233
     22          6           0       -5.291055   -0.668597    0.596931
     23          6           0       -4.064807   -0.230759    1.106009
     24          6           0       -3.015257   -0.027433    0.211361
     25          6           0       -3.143653   -0.243096   -1.159878
     26          6           0       -4.378939   -0.680814   -1.646723
     27          1           0       -6.407351   -1.233985   -1.161061
     28          1           0       -6.122092   -0.833258    1.276864
     29          1           0       -3.913230   -0.048549    2.163006
     30          1           0       -2.296881   -0.070199   -1.812948
     31          1           0       -4.500470   -0.854979   -2.712059
     32          7           0       -1.712299    0.436024    0.738530
     33          8           0       -0.803139    0.607762   -0.070527
     34          8           0       -1.624871    0.618768    1.950800
 ---------------------------------------------------------------------

 SCF Done:  E(RHF) =  -669.536593650     A.U. after   15 cycles
 E2 =    -0.2090987005D+01 EUMP2 =    -0.67162758065541D+03

 The electronic state is 1-A.
 Alpha  occ. eigenvalues --  -20.61058 -20.61049 -15.86081 -11.31353 -11.27909
 Alpha  occ. eigenvalues --  -11.27905 -11.27640 -11.26907 -11.26897 -11.20816
 Alpha  occ. eigenvalues --  -11.20433 -11.20396 -11.20261 -11.20090 -11.19453
 Alpha  occ. eigenvalues --   -1.60109  -1.39667  -1.19516  -1.08930  -1.07331
 Alpha  occ. eigenvalues --   -1.04905  -1.02424  -0.95780  -0.94870  -0.86307
 Alpha  occ. eigenvalues --   -0.85892  -0.82615  -0.78536  -0.77673  -0.77105
 Alpha  occ. eigenvalues --   -0.72305  -0.71416  -0.70624  -0.65173  -0.64908
 Alpha  occ. eigenvalues --   -0.63953  -0.62252  -0.59805  -0.58295  -0.56481
 Alpha  occ. eigenvalues --   -0.55412  -0.54137  -0.53239  -0.52996  -0.51603
 Alpha  occ. eigenvalues --   -0.51297  -0.49144  -0.49055  -0.48718  -0.46829
 Alpha  occ. eigenvalues --   -0.45564  -0.45066  -0.44658  -0.44502  -0.42686
 Alpha  occ. eigenvalues --   -0.37493  -0.36503
 Alpha virt. eigenvalues --    0.04840   0.11152   0.16338   0.21280   0.23922
 Alpha virt. eigenvalues --    0.25456   0.27215   0.27671   0.28160   0.28601
 Alpha virt. eigenvalues --    0.29164   0.30859   0.32265   0.32599   0.32717

 Mulliken charges:
               1
     1  C   -0.297745
     2  C   -0.298873
     3  C   -0.475078
     4  H    0.146064
     5  H    0.150255
     6  H    0.149291
     7  H    0.152392
     8  H    0.154989
     9  H    0.153686
    10  H    0.157174
    11  C   -0.301782
    12  C   -0.296425
    13  C   -0.488314
    14  H    0.143539
    15  H    0.163427
    16  H    0.144574
    17  H    0.154170
    18  H    0.184432
    19  H    0.145825
    20  H    0.153339
    21  C   -0.170420
    22  C   -0.218634
    23  C   -0.170376
    24  C    0.157408
    25  C   -0.170684
    26  C   -0.218575
    27  H    0.226234
    28  H    0.224009
    29  H    0.275947
    30  H    0.276181
    31  H    0.224130
    32  N    0.492039
    33  O   -0.463896
    34  O   -0.458301
 Sum of Mulliken charges =  -0.00000

 Dipole moment (field-independent basis, Debye):
    X=             -5.0270    Y=             -1.6926    Z=             -1.7724  Tot=              5.5926
 Quadrupole moment (field-independent basis, Debye-Ang):
   XX=            -68.3316   YY=            -96.6855   ZZ=            -91.0774
   XY=              5.7460   XZ=              2.2501   YZ=              0.0401

 Normal termination of Gaussian 16 at Thu May  6 15:25:57 2021.
