 Gaussian 16, Revision A.03,
 Gaussian 16:  EM64L-G16RevA.03 25-Dec-2016

 -------------
 #p 6-31g* mp2
 -------------

 ------------------------------------------------------
 Input file generated by CHIRIPA (05-May-2021 14:55:20)
 ------------------------------------------------------
 Symbolic Z-matrix:
 Charge =  0 Multiplicity = 1

                         Standard orientation:
 ---------------------------------------------------------------------
 Center     Atomic      Atomic             Coordinates (Angstroms)
 Number     Number       Type             X           Y           Z
 ---------------------------------------------------------------------
      1          6           0        2.382961    2.351008   -0.660297
      2          6           0        3.653990    1.965889   -1.099262
      3          6           0        4.126846    0.672567   -0.857864
      4          6           0        3.298479   -0.213980   -0.171473
      5          6           0        2.027408    0.139789    0.278544
      6          6           0        1.575151    1.438338    0.025995
      7          1           0        2.023636    3.357722   -0.852152
      8          1           0        4.283522    2.672575   -1.632488
      9          1           0        5.106674    0.348006   -1.186521
     10          1           0        1.422786   -0.586860    0.807535
     11          1           0        0.587618    1.734659    0.368072
     12          7           0        3.788167   -1.585930    0.089987
     13          8           0        3.039018   -2.348245    0.696854
     14          8           0        4.911861   -1.872970   -0.316899
     15          6           0       -4.491880   -0.547684   -0.126628
     16          6           0       -5.623542    0.021300   -0.983121
     17          6           0       -6.360587   -1.055530   -1.779989
     18          1           0       -3.780576   -1.077350   -0.775047
     19          1           0       -4.904474   -1.297337    0.562706
     20          1           0       -5.209155    0.770655   -1.669682
     21          1           0       -6.332134    0.549836   -0.332611
     22          1           0       -6.800733   -1.798918   -1.107496
     23          1           0       -5.671373   -1.576844   -2.452164
     24          1           0       -7.165454   -0.626821   -2.385181
     25          6           0       -3.745618    0.516622    0.675914
     26          6           0       -2.613955   -0.052361    1.532408
     27          6           0       -1.876911    1.024469    2.329276
     28          1           0       -3.333024    1.266275   -0.013420
     29          1           0       -4.456921    1.046288    1.324333
     30          1           0       -1.905364   -0.580898    0.881898
     31          1           0       -3.028342   -0.801717    2.218969
     32          1           0       -2.566125    1.545783    3.001449
     33          1           0       -1.436765    1.767856    1.656782
     34          1           0       -1.072044    0.595760    2.934467
 ---------------------------------------------------------------------

 SCF Done:  E(RHF) =  -669.535492104     A.U. after   15 cycles
 E2 =    -0.2091188212D+01 EUMP2 =    -0.67162668031555D+03

 The electronic state is 1-A.
 Alpha  occ. eigenvalues --  -20.60738 -20.60733 -15.85791 -11.31148 -11.27717
 Alpha  occ. eigenvalues --  -11.27704 -11.27453 -11.26735 -11.26685 -11.22330
 Alpha  occ. eigenvalues --  -11.22046 -11.21983 -11.21949 -11.21782 -11.21323
 Alpha  occ. eigenvalues --   -1.59814  -1.39367  -1.19317  -1.08970  -1.08715
 Alpha  occ. eigenvalues --   -1.04719  -1.04097  -0.96557  -0.95552  -0.87574
 Alpha  occ. eigenvalues --   -0.86118  -0.82383  -0.80160  -0.78743  -0.77433
 Alpha  occ. eigenvalues --   -0.72009  -0.71137  -0.70430  -0.65630  -0.64968
 Alpha  occ. eigenvalues --   -0.64732  -0.62163  -0.61412  -0.59929  -0.58143
 Alpha  occ. eigenvalues --   -0.55885  -0.55205  -0.53255  -0.53051  -0.53028
 Alpha  occ. eigenvalues --   -0.52750  -0.50480  -0.48768  -0.48765  -0.48465
 Alpha  occ. eigenvalues --   -0.47193  -0.46291  -0.46199  -0.44774  -0.44327
 Alpha  occ. eigenvalues --   -0.37302  -0.36319
 Alpha virt. eigenvalues --    0.05096   0.11329   0.16586   0.19008   0.22776
 Alpha virt. eigenvalues --    0.23712   0.25612   0.25892   0.26917   0.28105
 Alpha virt. eigenvalues --    0.29290   0.29573   0.31241   0.31508   0.32153

 Mulliken charges:
               1
     1  C   -0.172589
     2  C   -0.218458
     3  C   -0.171181
     4  C    0.159024
     5  C   -0.175379
     6  C   -0.224167
     7  H    0.225788
     8  H    0.223198
     9  H    0.275404
    10  H    0.276701
    11  H    0.233324
    12  N    0.488097
    13  O   -0.460537
    14  O   -0.460627
    15  C   -0.299085
    16  C   -0.299952
    17  C   -0.476104
    18  H    0.151359
    19  H    0.151805
    20  H    0.151149
    21  H    0.152318
    22  H    0.156355
    23  H    0.156290
    24  H    0.161001
    25  C   -0.297924
    26  C   -0.301869
    27  C   -0.481363
    28  H    0.146044
    29  H    0.151498
    30  H    0.150502
    31  H    0.158217
    32  H    0.161851
    33  H    0.145767
    34  H    0.163542
 Sum of Mulliken charges =  -0.00000

 Dipole moment (field-independent basis, Debye):
    X=             -1.9219    Y=              4.7762    Z=             -0.8720  Tot=              5.2217
 Quadrupole moment (field-independent basis, Debye-Ang):
   XX=           -101.9350   YY=            -97.7126   ZZ=            -93.5863
   XY=             17.3882   XZ=             -6.2061   YZ=             -1.8088

 Normal termination of Gaussian 16 at Wed May  5 20:33:40 2021.
