 Gaussian 16, Revision A.03,
 Gaussian 16:  EM64L-G16RevA.03 25-Dec-2016

 -------------
 #p 6-31g* mp2
 -------------

 ------------------------------------------------------
 Input file generated by CHIRIPA (05-May-2021 14:53:13)
 ------------------------------------------------------
 Symbolic Z-matrix:
 Charge =  0 Multiplicity = 1

                         Standard orientation:
 ---------------------------------------------------------------------
 Center     Atomic      Atomic             Coordinates (Angstroms)
 Number     Number       Type             X           Y           Z
 ---------------------------------------------------------------------
      1          6           0       -2.741549    0.623102   -0.784658
      2          6           0       -2.049274    1.825774   -0.142535
      3          6           0       -1.151162    2.582936   -1.121256
      4          1           0       -1.979830   -0.058222   -1.187803
      5          1           0       -3.338402    0.966503   -1.640951
      6          1           0       -1.455005    1.480390    0.713134
      7          1           0       -2.812725    2.504221    0.259297
      8          1           0       -1.734014    2.955127   -1.969994
      9          1           0       -0.368580    1.925479   -1.513579
     10          1           0       -0.666224    3.438741   -0.641367
     11          6           0       -3.642863   -0.143999    0.181218
     12          6           0       -4.335137   -1.346670   -0.460904
     13          6           0       -5.233250   -2.103832    0.517816
     14          1           0       -3.046010   -0.487399    1.037511
     15          1           0       -4.404582    0.537326    0.584364
     16          1           0       -3.571687   -2.025117   -0.862737
     17          1           0       -4.929406   -1.001286   -1.316574
     18          1           0       -6.015831   -1.446375    0.910140
     19          1           0       -4.650397   -2.476024    1.366555
     20          1           0       -5.718187   -2.959637    0.037927
     21          6           0        1.514045    1.905781    1.248352
     22          6           0        2.264438    1.983141    0.070452
     23          6           0        2.812109    0.829999   -0.499521
     24          6           0        2.588640   -0.389486    0.137821
     25          6           0        1.845544   -0.499082    1.312166
     26          6           0        1.307356    0.667100    1.864362
     27          1           0        1.092285    2.806635    1.684216
     28          1           0        2.426578    2.943763   -0.410133
     29          1           0        3.397045    0.861195   -1.410726
     30          1           0        1.701011   -1.470948    1.768244
     31          1           0        0.725011    0.604014    2.779206
     32          7           0        3.163415   -1.617169   -0.456175
     33          8           0        2.952107   -2.679491    0.124737
     34          8           0        3.814350   -1.493858   -1.491412
 ---------------------------------------------------------------------

 SCF Done:  E(RHF) =  -669.534496909     A.U. after   15 cycles
 E2 =    -0.2093930230D+01 EUMP2 =    -0.67162842713945D+03

 The electronic state is 1-A.
 Alpha  occ. eigenvalues --  -20.60829 -20.60823 -15.85884 -11.31269 -11.27838
 Alpha  occ. eigenvalues --  -11.27823 -11.27563 -11.26859 -11.26823 -11.22009
 Alpha  occ. eigenvalues --  -11.21780 -11.21698 -11.21640 -11.21547 -11.21229
 Alpha  occ. eigenvalues --   -1.59905  -1.39457  -1.19451  -1.08870  -1.08704
 Alpha  occ. eigenvalues --   -1.04855  -1.03840  -0.96307  -0.95659  -0.87327
 Alpha  occ. eigenvalues --   -0.86239  -0.82496  -0.79915  -0.78543  -0.77541
 Alpha  occ. eigenvalues --   -0.72101  -0.71230  -0.70552  -0.65377  -0.65097
 Alpha  occ. eigenvalues --   -0.64846  -0.62194  -0.61269  -0.59701  -0.57922
 Alpha  occ. eigenvalues --   -0.55659  -0.55338  -0.53195  -0.52950  -0.52875
 Alpha  occ. eigenvalues --   -0.52709  -0.50224  -0.48861  -0.48855  -0.48227
 Alpha  occ. eigenvalues --   -0.46955  -0.46084  -0.46006  -0.44859  -0.44109
 Alpha  occ. eigenvalues --   -0.37340  -0.36404
 Alpha virt. eigenvalues --    0.04966   0.11104   0.16407   0.20501   0.22778
 Alpha virt. eigenvalues --    0.24174   0.25969   0.26593   0.26883   0.28017
 Alpha virt. eigenvalues --    0.28653   0.30613   0.31066   0.31480   0.32083

 Mulliken charges:
               1
     1  C   -0.298656
     2  C   -0.302717
     3  C   -0.474291
     4  H    0.153089
     5  H    0.150584
     6  H    0.149979
     7  H    0.150020
     8  H    0.156216
     9  H    0.161325
    10  H    0.147092
    11  C   -0.297696
    12  C   -0.300403
    13  C   -0.475769
    14  H    0.146384
    15  H    0.148958
    16  H    0.154733
    17  H    0.152646
    18  H    0.154557
    19  H    0.154640
    20  H    0.161962
    21  C   -0.165845
    22  C   -0.215443
    23  C   -0.173202
    24  C    0.158348
    25  C   -0.171826
    26  C   -0.219862
    27  H    0.226910
    28  H    0.224677
    29  H    0.276048
    30  H    0.275789
    31  H    0.224165
    32  N    0.488067
    33  O   -0.460349
    34  O   -0.460129
 Sum of Mulliken charges =  -0.00000

 Dipole moment (field-independent basis, Debye):
    X=             -1.9780    Y=              4.2624    Z=              2.0598  Tot=              5.1306
 Quadrupole moment (field-independent basis, Debye-Ang):
   XX=           -104.9473   YY=            -97.4451   ZZ=            -92.0138
   XY=             12.7646   XZ=              4.2359   YZ=             -2.2217

 Normal termination of Gaussian 16 at Thu May  6 18:44:47 2021.
