 Gaussian 16, Revision A.03,
 Gaussian 16:  EM64L-G16RevA.03 25-Dec-2016

 -------------
 #p 6-31g* mp2
 -------------

 ------------------------------------------------------
 Input file generated by CHIRIPA (05-May-2021 14:53:15)
 ------------------------------------------------------
 Symbolic Z-matrix:
 Charge =  0 Multiplicity = 1

                         Standard orientation:
 ---------------------------------------------------------------------
 Center     Atomic      Atomic             Coordinates (Angstroms)
 Number     Number       Type             X           Y           Z
 ---------------------------------------------------------------------
      1          6           0        4.965490   -0.278217   -0.295834
      2          6           0        6.324307    0.376870   -0.045906
      3          6           0        7.384177   -0.054926   -1.059820
      4          1           0        5.080888   -1.370320   -0.265192
      5          1           0        4.626775   -0.028054   -1.310766
      6          1           0        6.659717    0.126684    0.968748
      7          1           0        6.205625    1.467542   -0.076957
      8          1           0        7.075149    0.209315   -2.076324
      9          1           0        7.531821   -1.139162   -1.024677
     10          1           0        8.347698    0.425243   -0.862527
     11          6           0        3.895505    0.143564    0.709631
     12          6           0        2.536689   -0.511523    0.459703
     13          6           0        1.476819   -0.079728    1.473617
     14          1           0        4.234220   -0.106599    1.724562
     15          1           0        3.780107    1.235667    0.678988
     16          1           0        2.655371   -1.602196    0.490754
     17          1           0        2.201279   -0.261338   -0.554951
     18          1           0        1.329174    1.004508    1.438474
     19          1           0        1.785847   -0.343969    2.490121
     20          1           0        0.513297   -0.559896    1.276324
     21          6           0       -3.722925   -2.456873   -0.168307
     22          6           0       -2.445965   -1.886157   -0.181659
     23          6           0       -2.289082   -0.496940   -0.178116
     24          6           0       -3.436035    0.295205   -0.160994
     25          6           0       -4.721717   -0.243433   -0.147410
     26          6           0       -4.854730   -1.635137   -0.151254
     27          1           0       -3.835524   -3.537015   -0.171176
     28          1           0       -1.565205   -2.521869   -0.194914
     29          1           0       -1.312338   -0.028660   -0.188204
     30          1           0       -5.580884    0.416170   -0.134324
     31          1           0       -5.847674   -2.075589   -0.140858
     32          7           0       -3.282586    1.767224   -0.157084
     33          8           0       -4.308940    2.443244   -0.141892
     34          8           0       -2.138864    2.217099   -0.169284
 ---------------------------------------------------------------------

 SCF Done:  E(RHF) =  -669.535475553     A.U. after   15 cycles
 E2 =    -0.2091190547D+01 EUMP2 =    -0.67162666610048D+03

 The electronic state is 1-A.
 Alpha  occ. eigenvalues --  -20.60748 -20.60743 -15.85801 -11.31160 -11.27744
 Alpha  occ. eigenvalues --  -11.27700 -11.27489 -11.26760 -11.26749 -11.21914
 Alpha  occ. eigenvalues --  -11.21658 -11.21540 -11.21471 -11.21383 -11.21117
 Alpha  occ. eigenvalues --   -1.59822  -1.39376  -1.19341  -1.08737  -1.08584
 Alpha  occ. eigenvalues --   -1.04749  -1.03710  -0.96157  -0.95570  -0.87171
 Alpha  occ. eigenvalues --   -0.86140  -0.82406  -0.79773  -0.78386  -0.77451
 Alpha  occ. eigenvalues --   -0.72022  -0.71144  -0.70461  -0.65207  -0.64997
 Alpha  occ. eigenvalues --   -0.64755  -0.62159  -0.61084  -0.59528  -0.57773
 Alpha  occ. eigenvalues --   -0.55418  -0.55240  -0.53134  -0.52980  -0.52704
 Alpha  occ. eigenvalues --   -0.52520  -0.50059  -0.48778  -0.48773  -0.48089
 Alpha  occ. eigenvalues --   -0.46790  -0.45929  -0.45841  -0.44782  -0.43965
 Alpha  occ. eigenvalues --   -0.37324  -0.36341
 Alpha virt. eigenvalues --    0.05057   0.11294   0.16517   0.20259   0.22842
 Alpha virt. eigenvalues --    0.23869   0.26365   0.26558   0.27416   0.27900
 Alpha virt. eigenvalues --    0.29216   0.30408   0.31328   0.31816   0.32000

 Mulliken charges:
               1
     1  C   -0.298567
     2  C   -0.300027
     3  C   -0.475843
     4  H    0.148273
     5  H    0.150347
     6  H    0.151942
     7  H    0.153694
     8  H    0.155636
     9  H    0.154470
    10  H    0.160888
    11  C   -0.298772
    12  C   -0.301680
    13  C   -0.479660
    14  H    0.150054
    15  H    0.154034
    16  H    0.148539
    17  H    0.151826
    18  H    0.168275
    19  H    0.157718
    20  H    0.148350
    21  C   -0.170595
    22  C   -0.220759
    23  C   -0.175295
    24  C    0.158216
    25  C   -0.170613
    26  C   -0.218743
    27  H    0.225564
    28  H    0.223963
    29  H    0.282939
    30  H    0.275545
    31  H    0.223409
    32  N    0.487886
    33  O   -0.460537
    34  O   -0.460478
 Sum of Mulliken charges =  -0.00000

 Dipole moment (field-independent basis, Debye):
    X=             -0.4529    Y=             -5.0899    Z=              0.0118  Tot=              5.1101
 Quadrupole moment (field-independent basis, Debye-Ang):
   XX=            -86.3713   YY=            -97.8400   ZZ=            -95.6801
   XY=             17.5459   XZ=              0.8949   YZ=              0.3291

 Normal termination of Gaussian 16 at Thu May  6 17:11:20 2021.
