 Gaussian 16, Revision A.03,
 Gaussian 16:  EM64L-G16RevA.03 25-Dec-2016

 -------------
 #p 6-31g* mp2
 -------------

 ------------------------------------------------------
 Input file generated by CHIRIPA (05-May-2021 14:53:14)
 ------------------------------------------------------
 Symbolic Z-matrix:
 Charge =  0 Multiplicity = 1

                         Standard orientation:
 ---------------------------------------------------------------------
 Center     Atomic      Atomic             Coordinates (Angstroms)
 Number     Number       Type             X           Y           Z
 ---------------------------------------------------------------------
      1          6           0        3.637313   -0.244555    0.111617
      2          6           0        2.870585   -1.563152    0.004780
      3          6           0        1.360797   -1.383864    0.166605
      4          1           0        3.423839    0.218570    1.084700
      5          1           0        3.265582    0.450743   -0.653740
      6          1           0        3.244607   -2.256238    0.769212
      7          1           0        3.086061   -2.023285   -0.968084
      8          1           0        0.967717   -0.713005   -0.604133
      9          1           0        1.127164   -0.947281    1.143033
     10          1           0        0.832258   -2.338921    0.086777
     11          6           0        5.147840   -0.407444   -0.048076
     12          6           0        5.914568    0.911154    0.058761
     13          6           0        7.424357    0.731866   -0.103064
     14          1           0        5.519571   -1.102742    0.717281
     15          1           0        5.361315   -0.870569   -1.021159
     16          1           0        5.699093    1.371287    1.031625
     17          1           0        5.540546    1.604239   -0.705671
     18          1           0        7.657989    0.295283   -1.079492
     19          1           0        7.817437    0.061007    0.667674
     20          1           0        7.952896    1.686923   -0.023236
     21          6           0       -4.208266   -2.145871   -0.038650
     22          6           0       -2.843201   -1.851276   -0.118218
     23          6           0       -2.401526   -0.524843   -0.111382
     24          6           0       -3.356625    0.486764   -0.023484
     25          6           0       -4.723541    0.225344    0.057081
     26          6           0       -5.142433   -1.108450    0.048592
     27          1           0       -4.542520   -3.179135   -0.044602
     28          1           0       -2.115461   -2.654917   -0.186062
     29          1           0       -1.350797   -0.268461   -0.171843
     30          1           0       -5.425241    1.047895    0.123758
     31          1           0       -6.203195   -1.334267    0.110504
     32          7           0       -2.901103    1.894896   -0.015372
     33          8           0       -3.762595    2.768020    0.062871
     34          8           0       -1.691199    2.098801   -0.087410
 ---------------------------------------------------------------------

 SCF Done:  E(RHF) =  -669.535545184     A.U. after   15 cycles
 E2 =    -0.2091392293D+01 EUMP2 =    -0.67162693747723D+03

 The electronic state is 1-A.
 Alpha  occ. eigenvalues --  -20.60692 -20.60687 -15.85741 -11.31062 -11.27656
 Alpha  occ. eigenvalues --  -11.27565 -11.27400 -11.26670 -11.26633 -11.21962
 Alpha  occ. eigenvalues --  -11.21750 -11.21535 -11.21458 -11.21387 -11.21010
 Alpha  occ. eigenvalues --   -1.59767  -1.39321  -1.19245  -1.08654  -1.08543
 Alpha  occ. eigenvalues --   -1.04643  -1.03721  -0.96204  -0.95488  -0.87245
 Alpha  occ. eigenvalues --   -0.86043  -0.82322  -0.79808  -0.78310  -0.77359
 Alpha  occ. eigenvalues --   -0.71963  -0.71089  -0.70364  -0.65168  -0.64898
 Alpha  occ. eigenvalues --   -0.64659  -0.62020  -0.61101  -0.59587  -0.57781
 Alpha  occ. eigenvalues --   -0.55488  -0.55156  -0.53002  -0.52959  -0.52885
 Alpha  occ. eigenvalues --   -0.52407  -0.50126  -0.48718  -0.48718  -0.48086
 Alpha  occ. eigenvalues --   -0.46789  -0.45861  -0.45756  -0.44735  -0.43961
 Alpha  occ. eigenvalues --   -0.37241  -0.36243
 Alpha virt. eigenvalues --    0.05152   0.11394   0.16646   0.20437   0.22828
 Alpha virt. eigenvalues --    0.24008   0.25663   0.26438   0.26802   0.27979
 Alpha virt. eigenvalues --    0.29071   0.29664   0.31297   0.31664   0.32525

 Mulliken charges:
               1
     1  C   -0.299751
     2  C   -0.298925
     3  C   -0.486282
     4  H    0.152738
     5  H    0.154460
     6  H    0.152839
     7  H    0.152621
     8  H    0.158394
     9  H    0.162030
    10  H    0.152302
    11  C   -0.298773
    12  C   -0.300107
    13  C   -0.475863
    14  H    0.148813
    15  H    0.149206
    16  H    0.153310
    17  H    0.154056
    18  H    0.154813
    19  H    0.154608
    20  H    0.161154
    21  C   -0.170704
    22  C   -0.224033
    23  C   -0.180912
    24  C    0.158833
    25  C   -0.170175
    26  C   -0.219232
    27  H    0.225090
    28  H    0.224362
    29  H    0.291629
    30  H    0.275123
    31  H    0.222918
    32  N    0.487164
    33  O   -0.460831
    34  O   -0.460876
 Sum of Mulliken charges =  -0.00000

 Dipole moment (field-independent basis, Debye):
    X=             -1.4135    Y=             -4.8938    Z=             -0.0135  Tot=              5.0938
 Quadrupole moment (field-independent basis, Debye-Ang):
   XX=            -80.5139   YY=            -99.9211   ZZ=            -94.6031
   XY=             14.5156   XZ=             -0.0294   YZ=              0.0832

 Normal termination of Gaussian 16 at Thu May  6 20:22:47 2021.
