 Gaussian 16, Revision A.03,
 Gaussian 16:  EM64L-G16RevA.03 25-Dec-2016

 -------------
 #p 6-31g* mp2
 -------------

 ------------------------------------------------------
 Input file generated by CHIRIPA (05-May-2021 14:57:22)
 ------------------------------------------------------
 Symbolic Z-matrix:
 Charge =  0 Multiplicity = 1

                         Standard orientation:
 ---------------------------------------------------------------------
 Center     Atomic      Atomic             Coordinates (Angstroms)
 Number     Number       Type             X           Y           Z
 ---------------------------------------------------------------------
      1          6           0        2.904173   -2.272651    0.958648
      2          6           0        2.092705   -1.301507    1.554400
      3          6           0        2.171848    0.034737    1.150991
      4          6           0        3.077592    0.366163    0.144475
      5          6           0        3.899478   -0.578426   -0.468343
      6          6           0        3.803384   -1.908653   -0.049045
      7          1           0        2.836109   -3.308340    1.278197
      8          1           0        1.393456   -1.581303    2.337222
      9          1           0        1.555461    0.806847    1.595212
     10          1           0        4.586936   -0.269071   -1.246236
     11          1           0        4.434820   -2.660730   -0.513495
     12          7           0        3.170349    1.777599   -0.291006
     13          8           0        3.976405    2.043886   -1.179827
     14          8           0        2.435240    2.590869    0.264730
     15          6           0       -1.051184   -1.429342   -1.017633
     16          6           0       -0.910361   -0.097597   -0.613720
     17          6           0       -2.017769    0.630021   -0.167885
     18          6           0       -3.256732   -0.008267   -0.138773
     19          6           0       -3.429189   -1.333725   -0.534639
     20          6           0       -2.307933   -2.042076   -0.976875
     21          1           0       -0.185545   -1.987090   -1.362570
     22          1           0        0.064429    0.380831   -0.644309
     23          1           0       -1.937118    1.662241    0.150602
     24          1           0       -4.413739   -1.783547   -0.492941
     25          1           0       -2.420272   -3.076198   -1.289952
     26          7           0       -4.436425    0.751830    0.331308
     27          8           0       -5.517120    0.166618    0.347497
     28          8           0       -4.258036    1.918414    0.674666
 ---------------------------------------------------------------------

 SCF Done:  E(RHF) =  -868.337029679     A.U. after   16 cycles
 E2 =    -0.2602403182D+01 EUMP2 =    -0.87093943286115D+03

 The electronic state is 1-A.
 Alpha  occ. eigenvalues --  -20.61762 -20.61752 -20.60782 -20.60768 -15.86801
 Alpha  occ. eigenvalues --  -15.85831 -11.32237 -11.31236 -11.28773 -11.28769
 Alpha  occ. eigenvalues --  -11.28500 -11.27832 -11.27785 -11.27751 -11.27741
 Alpha  occ. eigenvalues --  -11.27552 -11.26873 -11.26713  -1.60832  -1.59854
 Alpha  occ. eigenvalues --   -1.40381  -1.39405  -1.20426  -1.19413  -1.09786
 Alpha  occ. eigenvalues --   -1.08804  -1.05803  -1.04809  -0.96605  -0.95627
 Alpha  occ. eigenvalues --   -0.87195  -0.86207  -0.83405  -0.82453  -0.78464
 Alpha  occ. eigenvalues --   -0.77496  -0.72996  -0.72188  -0.72043  -0.71476
 Alpha  occ. eigenvalues --   -0.71181  -0.70510  -0.66031  -0.65755  -0.65053
 Alpha  occ. eigenvalues --   -0.64833  -0.63116  -0.62151  -0.56259  -0.55316
 Alpha  occ. eigenvalues --   -0.54273  -0.53842  -0.53136  -0.52788  -0.49774
 Alpha  occ. eigenvalues --   -0.49757  -0.48811  -0.48799  -0.45750  -0.44802
 Alpha  occ. eigenvalues --   -0.38417  -0.37819  -0.37104  -0.36273
 Alpha virt. eigenvalues --    0.04012   0.05011   0.10114   0.11237   0.15507
 Alpha virt. eigenvalues --    0.16510   0.20483   0.21458   0.26259   0.26991
 Alpha virt. eigenvalues --    0.27535   0.28288   0.30173   0.30865   0.31909

 Mulliken charges:
               1
     1  C   -0.175305
     2  C   -0.214597
     3  C   -0.182969
     4  C    0.155415
     5  C   -0.172235
     6  C   -0.220093
     7  H    0.228882
     8  H    0.229950
     9  H    0.278497
    10  H    0.278637
    11  H    0.226725
    12  N    0.487827
    13  O   -0.455448
    14  O   -0.460172
    15  C   -0.173891
    16  C   -0.222260
    17  C   -0.175764
    18  C    0.158707
    19  C   -0.171737
    20  C   -0.219806
    21  H    0.224699
    22  H    0.229241
    23  H    0.280770
    24  H    0.275212
    25  H    0.221508
    26  N    0.487818
    27  O   -0.461220
    28  O   -0.458391
 Sum of Mulliken charges =  -0.00000

 Dipole moment (field-independent basis, Debye):
    X=              4.0598    Y=             -7.6204    Z=             -0.0456  Tot=              8.6345
 Quadrupole moment (field-independent basis, Debye-Ang):
   XX=           -130.0774   YY=           -105.4787   ZZ=           -102.6558
   XY=             -5.4779   XZ=              7.3757   YZ=              1.7002

 Normal termination of Gaussian 16 at Fri May  7 01:47:58 2021.
