 Gaussian 16, Revision A.03,
 Gaussian 16:  EM64L-G16RevA.03 25-Dec-2016

 -------------
 #p 6-31g* mp2
 -------------

 ------------------------------------------------------
 Input file generated by CHIRIPA (05-May-2021 14:55:25)
 ------------------------------------------------------
 Symbolic Z-matrix:
 Charge =  0 Multiplicity = 1

                         Standard orientation:
 ---------------------------------------------------------------------
 Center     Atomic      Atomic             Coordinates (Angstroms)
 Number     Number       Type             X           Y           Z
 ---------------------------------------------------------------------
      1          6           0        4.368264    2.276021    0.410572
      2          6           0        2.969853    2.266336    0.381030
      3          6           0        2.273556    1.084454    0.111079
      4          6           0        3.010805   -0.074699   -0.125812
      5          6           0        4.404463   -0.097147   -0.103331
      6          6           0        5.079852    1.096329    0.168724
      7          1           0        4.901044    3.198639    0.621093
      8          1           0        2.414610    3.181002    0.568476
      9          1           0        1.191293    1.048634    0.082074
     10          1           0        4.930398   -1.024723   -0.294151
     11          1           0        6.165912    1.100882    0.191024
     12          7           0        2.284734   -1.332041   -0.412710
     13          8           0        2.957518   -2.339924   -0.618063
     14          8           0        1.056603   -1.285855   -0.426795
     15          6           0       -4.194983    0.446961   -0.309248
     16          6           0       -5.437711    1.167441    0.214701
     17          6           0       -5.801120    2.398916   -0.615479
     18          1           0       -3.348985    1.147786   -0.317920
     19          1           0       -4.365067    0.149378   -1.353236
     20          1           0       -5.265858    1.462356    1.257824
     21          1           0       -6.280805    0.464766    0.222306
     22          1           0       -5.999175    2.118037   -1.654941
     23          1           0       -4.978462    3.121294   -0.613540
     24          1           0       -6.692384    2.898684   -0.223383
     25          6           0       -3.819021   -0.786228    0.510278
     26          6           0       -2.576294   -1.506708   -0.013671
     27          6           0       -2.212885   -2.738183    0.816509
     28          1           0       -3.648939   -0.488644    1.554266
     29          1           0       -4.665021   -1.487053    0.518950
     30          1           0       -1.733200   -0.804034   -0.021276
     31          1           0       -2.748147   -1.801624   -1.056795
     32          1           0       -3.035543   -3.460561    0.814568
     33          1           0       -2.014829   -2.457304    1.855971
     34          1           0       -1.321620   -3.237950    0.424411
 ---------------------------------------------------------------------

 SCF Done:  E(RHF) =  -669.535995277     A.U. after   15 cycles
 E2 =    -0.2091297487D+01 EUMP2 =    -0.67162729276353D+03

 The electronic state is 1-A.
 Alpha  occ. eigenvalues --  -20.60948 -20.60937 -15.85979 -11.31304 -11.27872
 Alpha  occ. eigenvalues --  -11.27862 -11.27603 -11.26876 -11.26865 -11.21244
 Alpha  occ. eigenvalues --  -11.20877 -11.20837 -11.20589 -11.20336 -11.19696
 Alpha  occ. eigenvalues --   -1.60007  -1.39563  -1.19472  -1.08875  -1.07742
 Alpha  occ. eigenvalues --   -1.04870  -1.02734  -0.95721  -0.95207  -0.86271
 Alpha  occ. eigenvalues --   -0.86239  -0.82555  -0.78864  -0.77648  -0.77432
 Alpha  occ. eigenvalues --   -0.72207  -0.71319  -0.70582  -0.65132  -0.64873
 Alpha  occ. eigenvalues --   -0.64388  -0.62219  -0.60141  -0.58625  -0.56750
 Alpha  occ. eigenvalues --   -0.55372  -0.54536  -0.53200  -0.52963  -0.51866
 Alpha  occ. eigenvalues --   -0.51639  -0.49220  -0.48964  -0.48941  -0.47142
 Alpha  occ. eigenvalues --   -0.45930  -0.45030  -0.44978  -0.44896  -0.42994
 Alpha  occ. eigenvalues --   -0.37450  -0.36471
 Alpha virt. eigenvalues --    0.04926   0.11184   0.16421   0.21049   0.23343
 Alpha virt. eigenvalues --    0.24856   0.26316   0.27437   0.27702   0.28740
 Alpha virt. eigenvalues --    0.28831   0.30564   0.31669   0.32231   0.33012

 Mulliken charges:
               1
     1  C   -0.170561
     2  C   -0.218658
     3  C   -0.170474
     4  C    0.157716
     5  C   -0.170742
     6  C   -0.218555
     7  H    0.226048
     8  H    0.223878
     9  H    0.275573
    10  H    0.275902
    11  H    0.223868
    12  N    0.494984
    13  O   -0.459307
    14  O   -0.466204
    15  C   -0.296017
    16  C   -0.298867
    17  C   -0.474922
    18  H    0.144189
    19  H    0.149784
    20  H    0.150032
    21  H    0.152116
    22  H    0.155305
    23  H    0.152320
    24  H    0.158832
    25  C   -0.298315
    26  C   -0.299615
    27  C   -0.477095
    28  H    0.145369
    29  H    0.147310
    30  H    0.162422
    31  H    0.150265
    32  H    0.147034
    33  H    0.148164
    34  H    0.178222
 Sum of Mulliken charges =  -0.00000

 Dipole moment (field-independent basis, Debye):
    X=              2.8785    Y=              4.3480    Z=              0.9415  Tot=              5.2988
 Quadrupole moment (field-independent basis, Debye-Ang):
   XX=            -76.4215   YY=            -95.2507   ZZ=            -95.9458
   XY=             11.7264   XZ=              2.7398   YZ=              0.6577

 Normal termination of Gaussian 16 at Thu May  6 14:23:17 2021.
