 Gaussian 16, Revision A.03,
 Gaussian 16:  EM64L-G16RevA.03 25-Dec-2016

 -------------
 #p 6-31g* mp2
 -------------

 ------------------------------------------------------
 Input file generated by CHIRIPA (05-May-2021 14:57:23)
 ------------------------------------------------------
 Symbolic Z-matrix:
 Charge =  0 Multiplicity = 1

                         Standard orientation:
 ---------------------------------------------------------------------
 Center     Atomic      Atomic             Coordinates (Angstroms)
 Number     Number       Type             X           Y           Z
 ---------------------------------------------------------------------
      1          6           0       -0.926482    2.608853   -0.134775
      2          6           0       -0.528937    1.567433   -0.979714
      3          6           0       -1.297127    0.403865   -1.082395
      4          6           0       -2.462345    0.314899   -0.322366
      5          6           0       -2.884886    1.335189    0.528374
      6          6           0       -2.101117    2.489618    0.615250
      7          1           0       -0.323682    3.509191   -0.061148
      8          1           0        0.382828    1.657273   -1.563373
      9          1           0       -1.012707   -0.417636   -1.728660
     10          1           0       -3.798749    1.216558    1.097758
     11          1           0       -2.412303    3.296798    1.272265
     12          7           0       -3.283839   -0.912080   -0.422704
     13          8           0       -4.306201   -0.965915    0.257381
     14          8           0       -2.889811   -1.796719   -1.179535
     15          6           0        0.479657   -1.961161    1.237585
     16          6           0        0.711982   -0.689926    1.772849
     17          6           0        1.732765    0.118823    1.264442
     18          6           0        2.505542   -0.377516    0.215751
     19          6           0        2.298690   -1.639635   -0.338826
     20          6           0        1.272355   -2.431130    0.185311
     21          1           0       -0.315468   -2.582715    1.638637
     22          1           0        0.097936   -0.322343    2.590085
     23          1           0        1.934347    1.106891    1.660047
     24          1           0        2.927376   -1.978678   -1.153210
     25          1           0        1.094204   -3.417977   -0.232349
     26          7           0        3.589138    0.469537   -0.330803
     27          8           0        4.255962    0.009145   -1.254936
     28          8           0        3.751118    1.577810    0.175289
 ---------------------------------------------------------------------

 SCF Done:  E(RHF) =  -868.338059100     A.U. after   16 cycles
 E2 =    -0.2604641114D+01 EUMP2 =    -0.87094270021431D+03

 The electronic state is 1-A.
 Alpha  occ. eigenvalues --  -20.61346 -20.61325 -20.61324 -20.61318 -15.86380
 Alpha  occ. eigenvalues --  -15.86364 -11.31543 -11.31539 -11.28136 -11.28085
 Alpha  occ. eigenvalues --  -11.28080 -11.28016 -11.27748 -11.27675 -11.27104
 Alpha  occ. eigenvalues --  -11.26981 -11.26966 -11.26961  -1.60427  -1.60407
 Alpha  occ. eigenvalues --   -1.39981  -1.39962  -1.19786  -1.19618  -1.09146
 Alpha  occ. eigenvalues --   -1.09086  -1.05118  -1.05003  -0.96001  -0.95960
 Alpha  occ. eigenvalues --   -0.86506  -0.86413  -0.82826  -0.82799  -0.77910
 Alpha  occ. eigenvalues --   -0.77892  -0.72588  -0.72582  -0.71783  -0.71744
 Alpha  occ. eigenvalues --   -0.70780  -0.70730  -0.65345  -0.65321  -0.65055
 Alpha  occ. eigenvalues --   -0.65008  -0.62431  -0.62390  -0.55549  -0.55482
 Alpha  occ. eigenvalues --   -0.54327  -0.53152  -0.53109  -0.52543  -0.49365
 Alpha  occ. eigenvalues --   -0.49350  -0.49328  -0.49324  -0.45424  -0.45406
 Alpha  occ. eigenvalues --   -0.38237  -0.37297  -0.37009  -0.35988
 Alpha virt. eigenvalues --    0.04565   0.04589   0.10437   0.11559   0.16040
 Alpha virt. eigenvalues --    0.16215   0.21002   0.21386   0.26873   0.27047
 Alpha virt. eigenvalues --    0.27820   0.28440   0.30656   0.30919   0.32121

 Mulliken charges:
               1
     1  C   -0.175157
     2  C   -0.217458
     3  C   -0.164919
     4  C    0.155706
     5  C   -0.175362
     6  C   -0.221429
     7  H    0.231593
     8  H    0.229093
     9  H    0.274969
    10  H    0.274551
    11  H    0.224013
    12  N    0.486577
    13  O   -0.461080
    14  O   -0.462595
    15  C   -0.172239
    16  C   -0.214210
    17  C   -0.168351
    18  C    0.152975
    19  C   -0.176959
    20  C   -0.218886
    21  H    0.234072
    22  H    0.224478
    23  H    0.271075
    24  H    0.276094
    25  H    0.230141
    26  N    0.486373
    27  O   -0.458921
    28  O   -0.464144
 Sum of Mulliken charges =  -0.00000

 Dipole moment (field-independent basis, Debye):
    X=             -0.9211    Y=              1.2342    Z=              2.2889  Tot=              2.7588
 Quadrupole moment (field-independent basis, Debye-Ang):
   XX=           -137.8994   YY=            -96.8096   ZZ=           -100.7158
   XY=            -18.3639   XZ=             -1.1328   YZ=              1.2350

 Normal termination of Gaussian 16 at Fri May  7 03:25:10 2021.
