 Gaussian 16, Revision A.03,
 Gaussian 16:  EM64L-G16RevA.03 25-Dec-2016

 -------------
 #p 6-31g* mp2
 -------------

 ------------------------------------------------------
 Input file generated by CHIRIPA (05-May-2021 14:53:13)
 ------------------------------------------------------
 Symbolic Z-matrix:
 Charge =  0 Multiplicity = 1

                         Standard orientation:
 ---------------------------------------------------------------------
 Center     Atomic      Atomic             Coordinates (Angstroms)
 Number     Number       Type             X           Y           Z
 ---------------------------------------------------------------------
      1          6           0       -3.430526    0.977027   -0.033886
      2          6           0       -2.308404    1.873305    0.491008
      3          6           0       -2.620846    3.362244    0.338583
      4          1           0       -3.611401    1.208694   -1.092451
      5          1           0       -4.360442    1.214155    0.501296
      6          1           0       -1.380567    1.633597   -0.044039
      7          1           0       -2.130048    1.639343    1.548395
      8          1           0       -3.531859    3.622814    0.886999
      9          1           0       -2.778119    3.617035   -0.714483
     10          1           0       -1.805442    3.984670    0.720108
     11          6           0       -3.132910   -0.514280    0.111569
     12          6           0       -4.255032   -1.410558   -0.413325
     13          6           0       -3.942589   -2.899498   -0.260900
     14          1           0       -2.202993   -0.751409   -0.423613
     15          1           0       -2.952034   -0.745947    1.170134
     16          1           0       -4.433387   -1.176597   -1.470712
     17          1           0       -5.182868   -1.170850    0.121722
     18          1           0       -3.785316   -3.154288    0.792166
     19          1           0       -3.031577   -3.160068   -0.809316
     20          1           0       -4.757994   -3.521924   -0.642425
     21          6           0        2.447111   -2.676727    0.319578
     22          6           0        3.689143   -2.038100    0.241915
     23          6           0        3.765808   -0.655655    0.048221
     24          6           0        2.575127    0.060541   -0.064174
     25          6           0        1.322543   -0.546887    0.008997
     26          6           0        1.269850   -1.930399    0.203077
     27          1           0        2.396867   -3.751058    0.470194
     28          1           0        4.605060   -2.615175    0.332051
     29          1           0        4.714009   -0.135791   -0.015615
     30          1           0        0.426807    0.055064   -0.084440
     31          1           0        0.303873   -2.423698    0.263002
     32          7           0        2.643600    1.524638   -0.269434
     33          8           0        1.580006    2.133070   -0.365426
     34          8           0        3.759567    2.036041   -0.330437
 ---------------------------------------------------------------------

 SCF Done:  E(RHF) =  -669.535804481     A.U. after   15 cycles
 E2 =    -0.2092539301D+01 EUMP2 =    -0.67162834378165D+03

 The electronic state is 1-A.
 Alpha  occ. eigenvalues --  -20.60799 -20.60794 -15.85842 -11.31154 -11.27729
 Alpha  occ. eigenvalues --  -11.27682 -11.27463 -11.26738 -11.26702 -11.22057
 Alpha  occ. eigenvalues --  -11.21921 -11.21665 -11.21486 -11.21384 -11.20612
 Alpha  occ. eigenvalues --   -1.59869  -1.39425  -1.19326  -1.08734  -1.08682
 Alpha  occ. eigenvalues --   -1.04721  -1.03648  -0.96121  -0.95577  -0.87138
 Alpha  occ. eigenvalues --   -0.86125  -0.82409  -0.79778  -0.78512  -0.77429
 Alpha  occ. eigenvalues --   -0.72067  -0.71186  -0.70445  -0.65331  -0.64981
 Alpha  occ. eigenvalues --   -0.64720  -0.62079  -0.61024  -0.59526  -0.57701
 Alpha  occ. eigenvalues --   -0.55430  -0.55235  -0.53057  -0.52862  -0.52726
 Alpha  occ. eigenvalues --   -0.52543  -0.50080  -0.48852  -0.48815  -0.48050
 Alpha  occ. eigenvalues --   -0.46827  -0.45977  -0.45853  -0.44838  -0.43927
 Alpha  occ. eigenvalues --   -0.37312  -0.36322
 Alpha virt. eigenvalues --    0.05064   0.11327   0.16558   0.19481   0.22976
 Alpha virt. eigenvalues --    0.23491   0.24641   0.26749   0.27174   0.28271
 Alpha virt. eigenvalues --    0.29261   0.30910   0.31513   0.31712   0.32495

 Mulliken charges:
               1
     1  C   -0.298303
     2  C   -0.312800
     3  C   -0.474393
     4  H    0.151618
     5  H    0.150749
     6  H    0.167390
     7  H    0.149490
     8  H    0.151329
     9  H    0.156068
    10  H    0.170289
    11  C   -0.301315
    12  C   -0.299177
    13  C   -0.476595
    14  H    0.140026
    15  H    0.149108
    16  H    0.154748
    17  H    0.155259
    18  H    0.154248
    19  H    0.149831
    20  H    0.163454
    21  C   -0.170224
    22  C   -0.219316
    23  C   -0.169650
    24  C    0.155215
    25  C   -0.176772
    26  C   -0.225729
    27  H    0.225670
    28  H    0.223279
    29  H    0.275396
    30  H    0.290910
    31  H    0.226479
    32  N    0.489009
    33  O   -0.465350
    34  O   -0.459942
 Sum of Mulliken charges =  -0.00000

 Dipole moment (field-independent basis, Debye):
    X=             -0.3041    Y=             -4.9962    Z=              0.7132  Tot=              5.0560
 Quadrupole moment (field-independent basis, Debye-Ang):
   XX=            -90.4588   YY=            -96.8101   ZZ=            -94.9299
   XY=            -13.7364   XZ=              1.7092   YZ=              0.3749

 Normal termination of Gaussian 16 at Thu May  6 18:45:29 2021.
