 Gaussian 16, Revision A.03,
 Gaussian 16:  EM64L-G16RevA.03 25-Dec-2016

 -------------
 #p 6-31g* mp2
 -------------

 ------------------------------------------------------
 Input file generated by CHIRIPA (05-May-2021 14:53:12)
 ------------------------------------------------------
 Symbolic Z-matrix:
 Charge =  0 Multiplicity = 1

                         Standard orientation:
 ---------------------------------------------------------------------
 Center     Atomic      Atomic             Coordinates (Angstroms)
 Number     Number       Type             X           Y           Z
 ---------------------------------------------------------------------
      1          6           0       -4.608492    0.567224   -0.161070
      2          6           0       -6.117954    0.544450   -0.403952
      3          6           0       -6.632704    1.832486   -1.047217
      4          1           0       -4.359587    1.423872    0.480137
      5          1           0       -4.092743    0.732186   -1.117200
      6          1           0       -6.630647    0.378199    0.552145
      7          1           0       -6.363318   -0.312354   -1.044498
      8          1           0       -6.147816    2.000598   -2.014287
      9          1           0       -6.416664    2.695074   -0.408571
     10          1           0       -7.714048    1.794655   -1.211907
     11          6           0       -4.078894   -0.713525    0.481530
     12          6           0       -2.569432   -0.690751    0.724413
     13          6           0       -2.054682   -1.978787    1.367678
     14          1           0       -4.594643   -0.878487    1.437661
     15          1           0       -4.327799   -1.570173   -0.159677
     16          1           0       -2.324068    0.166053    1.364959
     17          1           0       -2.056739   -0.524500   -0.231685
     18          1           0       -2.270722   -2.841375    0.729031
     19          1           0       -2.539570   -2.146898    2.334747
     20          1           0       -0.973338   -1.940956    1.532368
     21          6           0        4.708814    2.131550    0.451672
     22          6           0        3.420617    1.953677    0.966873
     23          6           0        2.682678    0.808222    0.653939
     24          6           0        3.266351   -0.143397   -0.180948
     25          6           0        4.547537    0.005049   -0.709927
     26          6           0        5.267177    1.158384   -0.383612
     27          1           0        5.274955    3.024429    0.699964
     28          1           0        2.984454    2.707789    1.615812
     29          1           0        1.683391    0.645130    1.038961
     30          1           0        4.955660   -0.764201   -1.354216
     31          1           0        6.267397    1.293861   -0.785173
     32          7           0        2.494814   -1.360209   -0.519320
     33          8           0        3.031544   -2.183802   -1.257056
     34          8           0        1.367962   -1.467315   -0.040393
 ---------------------------------------------------------------------

 SCF Done:  E(RHF) =  -669.536021975     A.U. after   15 cycles
 E2 =    -0.2090845479D+01 EUMP2 =    -0.67162686745370D+03

 The electronic state is 1-A.
 Alpha  occ. eigenvalues --  -20.60907 -20.60893 -15.85947 -11.31269 -11.27834
 Alpha  occ. eigenvalues --  -11.27830 -11.27574 -11.26844 -11.26834 -11.21233
 Alpha  occ. eigenvalues --  -11.20923 -11.20796 -11.20760 -11.20700 -11.19838
 Alpha  occ. eigenvalues --   -1.59969  -1.39525  -1.19440  -1.08843  -1.07845
 Alpha  occ. eigenvalues --   -1.04837  -1.02866  -0.95689  -0.95298  -0.86323
 Alpha  occ. eigenvalues --   -0.86236  -0.82519  -0.78965  -0.77647  -0.77569
 Alpha  occ. eigenvalues --   -0.72177  -0.71285  -0.70549  -0.65098  -0.64840
 Alpha  occ. eigenvalues --   -0.64482  -0.62184  -0.60269  -0.58695  -0.56884
 Alpha  occ. eigenvalues --   -0.55341  -0.54605  -0.53169  -0.52929  -0.51951
 Alpha  occ. eigenvalues --   -0.51729  -0.49274  -0.48922  -0.48909  -0.47263
 Alpha  occ. eigenvalues --   -0.46023  -0.45194  -0.45114  -0.44915  -0.43107
 Alpha  occ. eigenvalues --   -0.37420  -0.36439
 Alpha virt. eigenvalues --    0.04950   0.11216   0.16441   0.21183   0.23376
 Alpha virt. eigenvalues --    0.24677   0.27009   0.27208   0.27640   0.28245
 Alpha virt. eigenvalues --    0.29027   0.30773   0.31840   0.32023   0.32430

 Mulliken charges:
               1
     1  C   -0.297536
     2  C   -0.299151
     3  C   -0.475315
     4  H    0.146319
     5  H    0.149360
     6  H    0.151040
     7  H    0.152378
     8  H    0.154812
     9  H    0.153562
    10  H    0.159239
    11  C   -0.297683
    12  C   -0.299085
    13  C   -0.479545
    14  H    0.147027
    15  H    0.150476
    16  H    0.141914
    17  H    0.158402
    18  H    0.156275
    19  H    0.145830
    20  H    0.179206
    21  C   -0.170635
    22  C   -0.218567
    23  C   -0.170762
    24  C    0.157607
    25  C   -0.170822
    26  C   -0.218580
    27  H    0.225917
    28  H    0.223871
    29  H    0.276123
    30  H    0.275772
    31  H    0.223720
    32  N    0.494711
    33  O   -0.459172
    34  O   -0.466706
 Sum of Mulliken charges =  -0.00000

 Dipole moment (field-independent basis, Debye):
    X=              2.9816    Y=              4.2078    Z=              1.1256  Tot=              5.2785
 Quadrupole moment (field-independent basis, Debye-Ang):
   XX=            -75.4310   YY=            -96.5955   ZZ=            -93.7945
   XY=             13.0076   XZ=              0.8223   YZ=              1.0680

 Normal termination of Gaussian 16 at Thu May  6 18:39:51 2021.
