 Gaussian 16, Revision A.03,
 Gaussian 16:  EM64L-G16RevA.03 25-Dec-2016

 -------------
 #p 6-31g* mp2
 -------------

 ------------------------------------------------------
 Input file generated by CHIRIPA (05-May-2021 14:51:10)
 ------------------------------------------------------
 Symbolic Z-matrix:
 Charge =  0 Multiplicity = 1

                         Standard orientation:
 ---------------------------------------------------------------------
 Center     Atomic      Atomic             Coordinates (Angstroms)
 Number     Number       Type             X           Y           Z
 ---------------------------------------------------------------------
      1          6           0       -4.023865   -0.547282    0.041645
      2          6           0       -5.430027   -1.129077   -0.107375
      3          6           0       -5.460795   -2.649349    0.052694
      4          1           0       -3.361905   -1.009335   -0.703513
      5          1           0       -3.623851   -0.821252    1.027709
      6          1           0       -5.827811   -0.852921   -1.092322
      7          1           0       -6.088762   -0.665446    0.638099
      8          1           0       -5.088890   -2.940322    1.040429
      9          1           0       -4.826457   -3.128863   -0.699824
     10          1           0       -6.475590   -3.044186   -0.057562
     11          6           0       -3.976820    0.971509   -0.115808
     12          6           0       -2.570658    1.553304    0.033211
     13          6           0       -2.539890    3.073576   -0.126857
     14          1           0       -4.376834    1.245479   -1.101873
     15          1           0       -4.638780    1.433562    0.629350
     16          1           0       -1.911923    1.089673   -0.712262
     17          1           0       -2.172874    1.277148    1.018159
     18          1           0       -3.174228    3.553090    0.625660
     19          1           0       -2.911795    3.364549   -1.114593
     20          1           0       -1.525096    3.468413   -0.016601
     21          6           0        3.378847    0.184534    0.236697
     22          6           0        2.069658   -0.534549   -0.090301
     23          6           0        0.835251    0.271548    0.314962
     24          1           0        3.414570    0.395691    1.314232
     25          1           0        3.391735    1.157824   -0.273141
     26          1           0        2.059848   -1.506787    0.418890
     27          1           0        2.037135   -0.744190   -1.167152
     28          1           0        0.817635    1.235795   -0.203225
     29          1           0        0.840478    0.468866    1.391828
     30          1           0       -0.089539   -0.261044    0.072128
     31          6           0        4.621838   -0.608761   -0.162533
     32          6           0        5.931026    0.110323    0.164465
     33          6           0        7.165434   -0.695775   -0.240800
     34          1           0        4.608951   -1.582051    0.347305
     35          1           0        4.586115   -0.819918   -1.240069
     36          1           0        5.963551    0.319963    1.241316
     37          1           0        5.940837    1.082560   -0.344726
     38          1           0        7.160207   -0.893092   -1.317665
     39          1           0        7.183050   -1.660022    0.277389
     40          1           0        8.090224   -0.163183    0.002036
 ---------------------------------------------------------------------

 SCF Done:  E(RHF) =  -470.732341959     A.U. after   11 cycles
 E2 =    -0.1583103681D+01 EUMP2 =    -0.47231544564023D+03

 The electronic state is 1-A.
 Alpha  occ. eigenvalues --  -11.21590 -11.21589 -11.21547 -11.21440 -11.21382
 Alpha  occ. eigenvalues --  -11.21375 -11.21322 -11.21291 -11.21064 -11.21062
 Alpha  occ. eigenvalues --  -11.21000 -11.20964  -1.08416  -1.08375  -1.03542
 Alpha  occ. eigenvalues --   -1.03438  -0.95986  -0.95902  -0.87025  -0.86906
 Alpha  occ. eigenvalues --   -0.79739  -0.79397  -0.78264  -0.78136  -0.65058
 Alpha  occ. eigenvalues --   -0.64999  -0.60967  -0.60820  -0.59497  -0.59150
 Alpha  occ. eigenvalues --   -0.57577  -0.57537  -0.55278  -0.55185  -0.52791
 Alpha  occ. eigenvalues --   -0.52563  -0.52400  -0.52288  -0.49955  -0.49825
 Alpha  occ. eigenvalues --   -0.47899  -0.47820  -0.46696  -0.46478  -0.45809
 Alpha  occ. eigenvalues --   -0.45732  -0.45682  -0.45619  -0.43781  -0.43593
 Alpha virt. eigenvalues --    0.22033   0.23071   0.23651   0.24570   0.26268
 Alpha virt. eigenvalues --    0.26427   0.26600   0.27100   0.27826   0.29195
 Alpha virt. eigenvalues --    0.30692   0.31055   0.31496   0.31903   0.32460

 Mulliken charges:
               1
     1  C   -0.298919
     2  C   -0.299430
     3  C   -0.475705
     4  H    0.148878
     5  H    0.149524
     6  H    0.151941
     7  H    0.152069
     8  H    0.155134
     9  H    0.155066
    10  H    0.160231
    11  C   -0.298104
    12  C   -0.301612
    13  C   -0.476640
    14  H    0.148891
    15  H    0.149083
    16  H    0.155938
    17  H    0.154137
    18  H    0.154732
    19  H    0.154464
    20  H    0.160449
    21  C   -0.298464
    22  C   -0.300830
    23  C   -0.476205
    24  H    0.149466
    25  H    0.149279
    26  H    0.151618
    27  H    0.151279
    28  H    0.155109
    29  H    0.153930
    30  H    0.164915
    31  C   -0.298181
    32  C   -0.299585
    33  C   -0.475677
    34  H    0.149468
    35  H    0.149517
    36  H    0.151883
    37  H    0.151860
    38  H    0.155134
    39  H    0.155157
    40  H    0.160198
 Sum of Mulliken charges =  -0.00000

 Dipole moment (field-independent basis, Debye):
    X=             -0.0069    Y=             -0.0009    Z=              0.0075  Tot=              0.0102
 Quadrupole moment (field-independent basis, Debye-Ang):
   XX=            -86.0414   YY=            -86.0881   ZZ=            -82.9557
   XY=              0.2725   XZ=              0.0836   YZ=             -0.3091

 Normal termination of Gaussian 16 at Thu May  6 02:12:30 2021.
