 Gaussian 16, Revision A.03,
 Gaussian 16:  EM64L-G16RevA.03 25-Dec-2016

 -------------
 #p 6-31g* mp2
 -------------

 ------------------------------------------------------
 Input file generated by CHIRIPA (05-May-2021 14:55:19)
 ------------------------------------------------------
 Symbolic Z-matrix:
 Charge =  0 Multiplicity = 1

                         Standard orientation:
 ---------------------------------------------------------------------
 Center     Atomic      Atomic             Coordinates (Angstroms)
 Number     Number       Type             X           Y           Z
 ---------------------------------------------------------------------
      1          6           0       -2.638046    1.500305    1.854749
      2          6           0       -1.438857    0.782093    1.803380
      3          6           0       -1.258407   -0.231767    0.857825
      4          6           0       -2.302745   -0.502233   -0.025066
      5          6           0       -3.509220    0.195640    0.001039
      6          6           0       -3.667585    1.205307    0.955001
      7          1           0       -2.769646    2.286267    2.592544
      8          1           0       -0.637585    1.009024    2.500883
      9          1           0       -0.340353   -0.803399    0.795932
     10          1           0       -4.289857   -0.053427   -0.707472
     11          1           0       -4.599972    1.761443    0.992575
     12          7           0       -2.123401   -1.573341   -1.030532
     13          8           0       -3.058754   -1.792330   -1.797211
     14          8           0       -1.050874   -2.173606   -1.032899
     15          6           0        3.002803   -0.074603    0.404399
     16          6           0        4.100705   -1.131022    0.275662
     17          6           0        4.122896   -2.106987    1.452435
     18          1           0        3.145793    0.481391    1.341079
     19          1           0        2.028467   -0.576278    0.484315
     20          1           0        5.072549   -0.627469    0.194621
     21          1           0        3.955197   -1.684439   -0.660914
     22          1           0        3.167498   -2.635557    1.532618
     23          1           0        4.291198   -1.572582    2.393013
     24          1           0        4.915257   -2.853561    1.339943
     25          6           0        2.967893    0.908398   -0.764455
     26          6           0        1.869992    1.964818   -0.635719
     27          6           0        1.847800    2.940783   -1.812492
     28          1           0        3.942228    1.410073   -0.844372
     29          1           0        2.824904    0.352405   -1.701136
     30          1           0        2.015499    2.518234    0.300858
     31          1           0        0.898147    1.461265   -0.554677
     32          1           0        1.679498    2.406377   -2.753069
     33          1           0        2.803198    3.469352   -1.892674
     34          1           0        1.055440    3.687356   -1.700000
 ---------------------------------------------------------------------

 SCF Done:  E(RHF) =  -669.535436873     A.U. after   15 cycles
 E2 =    -0.2092802136D+01 EUMP2 =    -0.67162823900908D+03

 The electronic state is 1-A.
 Alpha  occ. eigenvalues --  -20.60825 -20.60817 -15.85875 -11.31226 -11.27785
 Alpha  occ. eigenvalues --  -11.27771 -11.27519 -11.26804 -11.26787 -11.21739
 Alpha  occ. eigenvalues --  -11.21692 -11.21623 -11.21457 -11.21154 -11.21109
 Alpha  occ. eigenvalues --   -1.59898  -1.39452  -1.19398  -1.08791  -1.08572
 Alpha  occ. eigenvalues --   -1.04797  -1.03621  -0.96081  -0.95631  -0.87095
 Alpha  occ. eigenvalues --   -0.86194  -0.82462  -0.79697  -0.78450  -0.77495
 Alpha  occ. eigenvalues --   -0.72094  -0.71221  -0.70511  -0.65250  -0.65043
 Alpha  occ. eigenvalues --   -0.64746  -0.62142  -0.61009  -0.59455  -0.57702
 Alpha  occ. eigenvalues --   -0.55400  -0.55258  -0.53153  -0.52904  -0.52743
 Alpha  occ. eigenvalues --   -0.52497  -0.50011  -0.48853  -0.48849  -0.48016
 Alpha  occ. eigenvalues --   -0.46721  -0.45944  -0.45853  -0.44856  -0.43900
 Alpha  occ. eigenvalues --   -0.37374  -0.36345
 Alpha virt. eigenvalues --    0.04986   0.11197   0.16477   0.20261   0.23001
 Alpha virt. eigenvalues --    0.24085   0.25086   0.26387   0.27843   0.28079
 Alpha virt. eigenvalues --    0.30050   0.30663   0.31368   0.31732   0.31908

 Mulliken charges:
               1
     1  C   -0.170875
     2  C   -0.219970
     3  C   -0.178565
     4  C    0.158061
     5  C   -0.170434
     6  C   -0.218543
     7  H    0.225861
     8  H    0.225290
     9  H    0.286726
    10  H    0.275699
    11  H    0.223638
    12  N    0.487329
    13  O   -0.459898
    14  O   -0.461637
    15  C   -0.303970
    16  C   -0.299245
    17  C   -0.476826
    18  H    0.144887
    19  H    0.148288
    20  H    0.152057
    21  H    0.158720
    22  H    0.156970
    23  H    0.151994
    24  H    0.162382
    25  C   -0.298167
    26  C   -0.304516
    27  C   -0.475697
    28  H    0.149790
    29  H    0.156814
    30  H    0.145994
    31  H    0.154989
    32  H    0.159069
    33  H    0.154998
    34  H    0.158787
 Sum of Mulliken charges =  -0.00000

 Dipole moment (field-independent basis, Debye):
    X=             -0.6178    Y=              3.7141    Z=              3.4528  Tot=              5.1086
 Quadrupole moment (field-independent basis, Debye-Ang):
   XX=            -86.9890   YY=            -99.4069   ZZ=            -95.2304
   XY=             -9.2530   XZ=             -6.5529   YZ=             -1.2213

 Normal termination of Gaussian 16 at Thu May  6 19:04:17 2021.
