 Gaussian 16, Revision A.03,
 Gaussian 16:  EM64L-G16RevA.03 25-Dec-2016

 -------------
 #p 6-31g* mp2
 -------------

 ------------------------------------------------------
 Input file generated by CHIRIPA (05-May-2021 14:57:23)
 ------------------------------------------------------
 Symbolic Z-matrix:
 Charge =  0 Multiplicity = 1

                         Standard orientation:
 ---------------------------------------------------------------------
 Center     Atomic      Atomic             Coordinates (Angstroms)
 Number     Number       Type             X           Y           Z
 ---------------------------------------------------------------------
      1          6           0        2.574828    2.338387   -0.414481
      2          6           0        1.943523    1.246278    0.189896
      3          6           0        2.621310    0.034145    0.350791
      4          6           0        3.935476   -0.051169   -0.106352
      5          6           0        4.591692    1.019001   -0.712493
      6          6           0        3.894571    2.221469   -0.862956
      7          1           0        2.040797    3.276247   -0.535416
      8          1           0        0.918660    1.334194    0.539141
      9          1           0        2.156603   -0.827147    0.815163
     10          1           0        5.614034    0.900980   -1.050584
     11          1           0        4.387369    3.067958   -1.332691
     12          7           0        4.663253   -1.329284    0.058459
     13          8           0        5.820437   -1.378798   -0.352774
     14          8           0        4.062721   -2.257356    0.595749
     15          6           0       -5.581093   -0.384627   -1.654785
     16          6           0       -4.338898   -1.007321   -1.815173
     17          6           0       -3.353170   -0.889359   -0.830809
     18          6           0       -3.644842   -0.137713    0.306401
     19          6           0       -4.872800    0.494537    0.495267
     20          6           0       -5.843617    0.362996   -0.502109
     21          1           0       -6.341039   -0.481537   -2.424517
     22          1           0       -4.132234   -1.588562   -2.709318
     23          1           0       -2.382970   -1.360976   -0.929328
     24          1           0       -5.049465    1.067347    1.397539
     25          1           0       -6.807427    0.847683   -0.374862
     26          7           0       -2.609188   -0.005644    1.355391
     27          8           0       -2.890927    0.662127    2.348034
     28          8           0       -1.535314   -0.572402    1.165083
 ---------------------------------------------------------------------

 SCF Done:  E(RHF) =  -868.339998066     A.U. after   16 cycles
 E2 =    -0.2598393555D+01 EUMP2 =    -0.87093839162107D+03

 The electronic state is 1-A.
 Alpha  occ. eigenvalues --  -20.61676 -20.61638 -20.60115 -20.60100 -15.86682
 Alpha  occ. eigenvalues --  -15.85155 -11.31794 -11.30390 -11.28331 -11.28323
 Alpha  occ. eigenvalues --  -11.28022 -11.27287 -11.27271 -11.27004 -11.26805
 Alpha  occ. eigenvalues --  -11.26685 -11.26030 -11.25758  -1.60722  -1.59189
 Alpha  occ. eigenvalues --   -1.40281  -1.38744  -1.19943  -1.18549  -1.09384
 Alpha  occ. eigenvalues --   -1.07983  -1.05303  -1.03899  -0.96259  -0.94835
 Alpha  occ. eigenvalues --   -0.86713  -0.85319  -0.83098  -0.81643  -0.78175
 Alpha  occ. eigenvalues --   -0.76699  -0.72904  -0.72030  -0.71377  -0.71041
 Alpha  occ. eigenvalues --   -0.70512  -0.69673  -0.65596  -0.65298  -0.64189
 Alpha  occ. eigenvalues --   -0.63878  -0.62649  -0.61217  -0.55810  -0.54459
 Alpha  occ. eigenvalues --   -0.53652  -0.53387  -0.52287  -0.51963  -0.49673
 Alpha  occ. eigenvalues --   -0.49637  -0.48139  -0.48123  -0.45728  -0.44177
 Alpha  occ. eigenvalues --   -0.37910  -0.36896  -0.36570  -0.35508
 Alpha virt. eigenvalues --    0.04306   0.05784   0.10761   0.12128   0.15837
 Alpha virt. eigenvalues --    0.17302   0.20930   0.22328   0.26880   0.27652
 Alpha virt. eigenvalues --    0.28421   0.29096   0.30563   0.31805   0.32159

 Mulliken charges:
               1
     1  C   -0.172285
     2  C   -0.223906
     3  C   -0.173777
     4  C    0.157696
     5  C   -0.172950
     6  C   -0.218998
     7  H    0.222544
     8  H    0.238112
     9  H    0.283891
    10  H    0.272503
    11  H    0.219683
    12  N    0.487871
    13  O   -0.463856
    14  O   -0.459788
    15  C   -0.169925
    16  C   -0.218619
    17  C   -0.171171
    18  C    0.156850
    19  C   -0.170855
    20  C   -0.218652
    21  H    0.227839
    22  H    0.226133
    23  H    0.276567
    24  H    0.276161
    25  H    0.225211
    26  N    0.487996
    27  O   -0.456795
    28  O   -0.467484
 Sum of Mulliken charges =  -0.00000

 Dipole moment (field-independent basis, Debye):
    X=             -6.7191    Y=              3.9646    Z=             -4.2241  Tot=              8.8718
 Quadrupole moment (field-independent basis, Debye-Ang):
   XX=            -94.0666   YY=           -104.0959   ZZ=           -105.5639
   XY=             19.7804   XZ=              7.1186   YZ=              0.9078

 Normal termination of Gaussian 16 at Thu May  6 03:24:40 2021.
