 Gaussian 16, Revision A.03,
 Gaussian 16:  EM64L-G16RevA.03 25-Dec-2016

 -------------
 #p 6-31g* mp2
 -------------

 ------------------------------------------------------
 Input file generated by CHIRIPA (05-May-2021 14:53:14)
 ------------------------------------------------------
 Symbolic Z-matrix:
 Charge =  0 Multiplicity = 1

                         Standard orientation:
 ---------------------------------------------------------------------
 Center     Atomic      Atomic             Coordinates (Angstroms)
 Number     Number       Type             X           Y           Z
 ---------------------------------------------------------------------
      1          6           0        3.868643    0.387978   -0.427650
      2          6           0        4.302001   -0.915487    0.244037
      3          6           0        5.642102   -1.433130   -0.279384
      4          1           0        3.803657    0.229836   -1.512875
      5          1           0        4.644392    1.149779   -0.268691
      6          1           0        3.525030   -1.674205    0.085038
      7          1           0        4.365777   -0.754276    1.327807
      8          1           0        6.433577   -0.696707   -0.106614
      9          1           0        5.588053   -1.621863   -1.356445
     10          1           0        5.932753   -2.365690    0.214291
     11          6           0        2.530777    0.918044    0.085062
     12          6           0        2.097419    2.221510   -0.586624
     13          6           0        0.757318    2.739153   -0.063203
     14          1           0        1.755028    0.156244   -0.073896
     15          1           0        2.595763    1.076187    1.170287
     16          1           0        2.033643    2.060298   -1.670395
     17          1           0        2.874390    2.980227   -0.427626
     18          1           0        0.811368    2.927885    1.013857
     19          1           0       -0.034156    2.002729   -0.235973
     20          1           0        0.466668    3.671712   -0.556879
     21          6           0       -4.788175    0.284349   -0.571790
     22          6           0       -4.087858   -0.628237   -1.367569
     23          6           0       -2.819240   -1.075323   -0.986425
     24          6           0       -2.278539   -0.586976    0.202039
     25          6           0       -2.951388    0.322706    1.016315
     26          6           0       -4.218709    0.756076    0.615519
     27          1           0       -5.773164    0.626328   -0.875505
     28          1           0       -4.527646   -0.996284   -2.290160
     29          1           0       -2.255113   -1.781418   -1.583592
     30          1           0       -2.486992    0.671706    1.930619
     31          1           0       -4.760282    1.464842    1.235514
     32          7           0       -0.936197   -1.053026    0.615941
     33          8           0       -0.481784   -0.607689    1.667522
     34          8           0       -0.363899   -1.854827   -0.119060
 ---------------------------------------------------------------------

 SCF Done:  E(RHF) =  -669.536289913     A.U. after   15 cycles
 E2 =    -0.2093085243D+01 EUMP2 =    -0.67162937515564D+03

 The electronic state is 1-A.
 Alpha  occ. eigenvalues --  -20.61035 -20.61018 -15.86019 -11.31337 -11.27891
 Alpha  occ. eigenvalues --  -11.27883 -11.27618 -11.26883 -11.26870 -11.20737
 Alpha  occ. eigenvalues --  -11.20471 -11.20338 -11.20227 -11.20095 -11.19955
 Alpha  occ. eigenvalues --   -1.60073  -1.39625  -1.19496  -1.08904  -1.07289
 Alpha  occ. eigenvalues --   -1.04882  -1.02548  -0.95747  -0.95006  -0.86285
 Alpha  occ. eigenvalues --   -0.86038  -0.82583  -0.78592  -0.77641  -0.77048
 Alpha  occ. eigenvalues --   -0.72242  -0.71397  -0.70598  -0.65147  -0.64883
 Alpha  occ. eigenvalues --   -0.63916  -0.62227  -0.59959  -0.58381  -0.56607
 Alpha  occ. eigenvalues --   -0.55388  -0.54328  -0.53209  -0.52971  -0.51767
 Alpha  occ. eigenvalues --   -0.51442  -0.49109  -0.49015  -0.48911  -0.46917
 Alpha  occ. eigenvalues --   -0.45599  -0.45071  -0.44534  -0.44420  -0.42741
 Alpha  occ. eigenvalues --   -0.37462  -0.36474
 Alpha virt. eigenvalues --    0.04842   0.11149   0.16336   0.21306   0.23898
 Alpha virt. eigenvalues --    0.25027   0.27216   0.27621   0.28031   0.28519
 Alpha virt. eigenvalues --    0.29092   0.30973   0.31930   0.32321   0.32646

 Mulliken charges:
               1
     1  C   -0.297457
     2  C   -0.301225
     3  C   -0.475168
     4  H    0.145637
     5  H    0.143584
     6  H    0.164591
     7  H    0.151497
     8  H    0.151266
     9  H    0.152581
    10  H    0.158295
    11  C   -0.304095
    12  C   -0.299821
    13  C   -0.471773
    14  H    0.168816
    15  H    0.151940
    16  H    0.147956
    17  H    0.148218
    18  H    0.156755
    19  H    0.146965
    20  H    0.154082
    21  C   -0.170239
    22  C   -0.218603
    23  C   -0.171192
    24  C    0.158881
    25  C   -0.170174
    26  C   -0.218466
    27  H    0.226244
    28  H    0.223970
    29  H    0.275809
    30  H    0.276688
    31  H    0.224224
    32  N    0.486968
    33  O   -0.455908
    34  O   -0.460848
 Sum of Mulliken charges =  -0.00000

 Dipole moment (field-independent basis, Debye):
    X=             -5.0079    Y=              1.4440    Z=             -1.3139  Tot=              5.3750
 Quadrupole moment (field-independent basis, Debye-Ang):
   XX=            -75.3661   YY=            -96.1285   ZZ=            -91.8055
   XY=             -0.7795   XZ=              3.1309   YZ=              4.3680

 Normal termination of Gaussian 16 at Thu May  6 08:57:25 2021.
