 Gaussian 16, Revision A.03,
 Gaussian 16:  EM64L-G16RevA.03 25-Dec-2016

 -------------
 #p 6-31g* mp2
 -------------

 ------------------------------------------------------
 Input file generated by CHIRIPA (05-May-2021 14:55:23)
 ------------------------------------------------------
 Symbolic Z-matrix:
 Charge =  0 Multiplicity = 1

                         Standard orientation:
 ---------------------------------------------------------------------
 Center     Atomic      Atomic             Coordinates (Angstroms)
 Number     Number       Type             X           Y           Z
 ---------------------------------------------------------------------
      1          6           0        1.721506   -1.302708    1.641465
      2          6           0        1.294981   -0.262754    0.808943
      3          6           0        2.178757    0.327562   -0.099360
      4          6           0        3.487854   -0.148994   -0.148856
      5          6           0        3.942822   -1.183437    0.667370
      6          6           0        3.041737   -1.758927    1.568150
      7          1           0        1.028244   -1.755521    2.344135
      8          1           0        0.270254    0.093588    0.863702
      9          1           0        1.875038    1.134152   -0.755550
     10          1           0        4.970445   -1.517200    0.589832
     11          1           0        3.375757   -2.566413    2.213473
     12          7           0        4.432630    0.468099   -1.106454
     13          8           0        5.580777    0.030138   -1.130682
     14          8           0        4.007110    1.378052   -1.814658
     15          6           0       -4.429045   -0.404996   -0.183674
     16          6           0       -5.731992   -0.562759   -0.968164
     17          6           0       -6.046268   -2.020642   -1.305216
     18          1           0       -3.602979   -0.834244   -0.767034
     19          1           0       -4.494295   -0.990839    0.743648
     20          1           0       -5.664835    0.024316   -1.893068
     21          1           0       -6.555021   -0.132914   -0.382953
     22          1           0       -6.140183   -2.615759   -0.391096
     23          1           0       -5.244940   -2.457635   -1.909791
     24          1           0       -6.981830   -2.110345   -1.866052
     25          6           0       -4.101242    1.046786    0.160716
     26          6           0       -2.798295    1.204548    0.945206
     27          6           0       -2.484019    2.662430    1.282257
     28          1           0       -4.035993    1.632628   -0.766607
     29          1           0       -4.927308    1.476033    0.744075
     30          1           0       -1.975266    0.774703    0.359994
     31          1           0       -2.865452    0.617472    1.870109
     32          1           0       -3.285348    3.099424    1.886832
     33          1           0       -2.390104    3.257547    0.368137
     34          1           0       -1.548458    2.752135    1.843094
 ---------------------------------------------------------------------

 SCF Done:  E(RHF) =  -669.535613830     A.U. after   15 cycles
 E2 =    -0.2090982726D+01 EUMP2 =    -0.67162659655514D+03

 The electronic state is 1-A.
 Alpha  occ. eigenvalues --  -20.60730 -20.60725 -15.85783 -11.31139 -11.27709
 Alpha  occ. eigenvalues --  -11.27697 -11.27441 -11.26724 -11.26670 -11.22653
 Alpha  occ. eigenvalues --  -11.22134 -11.22104 -11.22012 -11.21903 -11.21498
 Alpha  occ. eigenvalues --   -1.59806  -1.39360  -1.19308  -1.09154  -1.08704
 Alpha  occ. eigenvalues --   -1.04711  -1.04240  -0.96650  -0.95542  -0.87666
 Alpha  occ. eigenvalues --   -0.86109  -0.82377  -0.80342  -0.78957  -0.77422
 Alpha  occ. eigenvalues --   -0.72001  -0.71129  -0.70417  -0.65799  -0.64959
 Alpha  occ. eigenvalues --   -0.64718  -0.62111  -0.61593  -0.60037  -0.58272
 Alpha  occ. eigenvalues --   -0.55918  -0.55208  -0.53360  -0.53077  -0.53035
 Alpha  occ. eigenvalues --   -0.52809  -0.50583  -0.48782  -0.48757  -0.48605
 Alpha  occ. eigenvalues --   -0.47367  -0.46485  -0.46393  -0.44767  -0.44481
 Alpha  occ. eigenvalues --   -0.37290  -0.36313
 Alpha virt. eigenvalues --    0.05108   0.11327   0.16594   0.19831   0.22483
 Alpha virt. eigenvalues --    0.23632   0.25310   0.26234   0.27190   0.28311
 Alpha virt. eigenvalues --    0.28652   0.30138   0.30843   0.31294   0.32030

 Mulliken charges:
               1
     1  C   -0.173047
     2  C   -0.227904
     3  C   -0.173729
     4  C    0.158795
     5  C   -0.171298
     6  C   -0.218436
     7  H    0.226154
     8  H    0.237358
     9  H    0.275356
    10  H    0.275390
    11  H    0.223142
    12  N    0.488117
    13  O   -0.460659
    14  O   -0.460578
    15  C   -0.299087
    16  C   -0.300253
    17  C   -0.476180
    18  H    0.149162
    19  H    0.148656
    20  H    0.153779
    21  H    0.153067
    22  H    0.154930
    23  H    0.155866
    24  H    0.162266
    25  C   -0.297460
    26  C   -0.306142
    27  C   -0.477409
    28  H    0.152744
    29  H    0.152796
    30  H    0.145269
    31  H    0.151167
    32  H    0.159828
    33  H    0.159143
    34  H    0.159195
 Sum of Mulliken charges =  -0.00000

 Dipole moment (field-independent basis, Debye):
    X=             -3.5585    Y=             -2.1238    Z=              3.3637  Tot=              5.3374
 Quadrupole moment (field-independent basis, Debye-Ang):
   XX=           -114.7451   YY=            -93.4286   ZZ=            -95.2526
   XY=            -10.2709   XZ=             13.1587   YZ=             -1.7189

 Normal termination of Gaussian 16 at Thu May  6 07:52:54 2021.
