 Gaussian 16, Revision A.03,
 Gaussian 16:  EM64L-G16RevA.03 25-Dec-2016

 -------------
 #p 6-31g* mp2
 -------------

 ------------------------------------------------------
 Input file generated by CHIRIPA (05-May-2021 14:51:14)
 ------------------------------------------------------
 Symbolic Z-matrix:
 Charge =  0 Multiplicity = 1

                         Standard orientation:
 ---------------------------------------------------------------------
 Center     Atomic      Atomic             Coordinates (Angstroms)
 Number     Number       Type             X           Y           Z
 ---------------------------------------------------------------------
      1          6           0       -4.103452    0.799716   -0.322286
      2          6           0       -2.599432    0.853551   -0.052081
      3          6           0       -1.977442    2.196358   -0.436517
      4          1           0       -4.285539    0.998262   -1.387353
      5          1           0       -4.598216    1.607056    0.235214
      6          1           0       -2.107819    0.045492   -0.608833
      7          1           0       -2.420892    0.654664    1.012430
      8          1           0       -2.441125    3.011514    0.128390
      9          1           0       -2.126273    2.398880   -1.502085
     10          1           0       -0.901807    2.212932   -0.235035
     11          6           0       -4.739643   -0.536402    0.056895
     12          6           0       -6.243663   -0.590236   -0.213310
     13          6           0       -6.865653   -1.933043    0.171126
     14          1           0       -4.244879   -1.343742   -0.500605
     15          1           0       -4.557556   -0.734947    1.121963
     16          1           0       -6.422203   -0.391350   -1.277821
     17          1           0       -6.735276    0.217822    0.343442
     18          1           0       -6.716822   -2.135566    1.236694
     19          1           0       -6.401970   -2.748199   -0.393781
     20          1           0       -7.941288   -1.949618   -0.030356
     21          6           0        4.939695   -0.646977   -0.089568
     22          6           0        6.368343   -0.102286   -0.105754
     23          6           0        7.393516   -1.144978   -0.552528
     24          1           0        4.893730   -1.518084    0.578269
     25          1           0        4.681485   -1.009391   -1.094246
     26          1           0        6.623293    0.260260    0.898325
     27          1           0        6.410869    0.767742   -0.773482
     28          1           0        7.166764   -1.499809   -1.563112
     29          1           0        7.380396   -2.010173    0.118195
     30          1           0        8.408034   -0.734377   -0.556796
     31          6           0        3.903400    0.383662    0.354959
     32          6           0        2.474752   -0.161028    0.371145
     33          6           0        1.449579    0.881664    0.817918
     34          1           0        4.161610    0.746076    1.359638
     35          1           0        3.949364    1.254768   -0.312878
     36          1           0        2.432226   -1.031056    1.038873
     37          1           0        2.219802   -0.523574   -0.632935
     38          1           0        1.462699    1.746858    0.147197
     39          1           0        1.676330    1.236494    1.828502
     40          1           0        0.435059    0.471063    0.822187
 ---------------------------------------------------------------------

 SCF Done:  E(RHF) =  -470.732478222     A.U. after   11 cycles
 E2 =    -0.1583057755D+01 EUMP2 =    -0.47231553597723D+03

 The electronic state is 1-A.
 Alpha  occ. eigenvalues --  -11.21614 -11.21607 -11.21584 -11.21565 -11.21414
 Alpha  occ. eigenvalues --  -11.21378 -11.21354 -11.21319 -11.21076 -11.21070
 Alpha  occ. eigenvalues --  -11.21058 -11.20876  -1.08444  -1.08395  -1.03573
 Alpha  occ. eigenvalues --   -1.03461  -0.96064  -0.95867  -0.87091  -0.86878
 Alpha  occ. eigenvalues --   -0.79623  -0.79550  -0.78254  -0.78218  -0.65075
 Alpha  occ. eigenvalues --   -0.65028  -0.60977  -0.60879  -0.59694  -0.59069
 Alpha  occ. eigenvalues --   -0.57721  -0.57414  -0.55294  -0.55205  -0.52970
 Alpha  occ. eigenvalues --   -0.52515  -0.52402  -0.52135  -0.49915  -0.49866
 Alpha  occ. eigenvalues --   -0.47987  -0.47806  -0.46628  -0.46591  -0.45804
 Alpha  occ. eigenvalues --   -0.45746  -0.45715  -0.45684  -0.43835  -0.43648
 Alpha virt. eigenvalues --    0.22190   0.23018   0.23480   0.25034   0.26556
 Alpha virt. eigenvalues --    0.26643   0.26836   0.27189   0.27773   0.28863
 Alpha virt. eigenvalues --    0.29947   0.31014   0.31429   0.31710   0.32565

 Mulliken charges:
               1
     1  C   -0.298352
     2  C   -0.300163
     3  C   -0.484019
     4  H    0.149668
     5  H    0.149651
     6  H    0.151192
     7  H    0.151482
     8  H    0.154258
     9  H    0.153805
    10  H    0.171027
    11  C   -0.298298
    12  C   -0.299619
    13  C   -0.475676
    14  H    0.149353
    15  H    0.149518
    16  H    0.151912
    17  H    0.151935
    18  H    0.155138
    19  H    0.155127
    20  H    0.160202
    21  C   -0.298271
    22  C   -0.299645
    23  C   -0.475709
    24  H    0.149673
    25  H    0.149519
    26  H    0.151941
    27  H    0.151969
    28  H    0.155182
    29  H    0.155182
    30  H    0.160280
    31  C   -0.298776
    32  C   -0.299242
    33  C   -0.483900
    34  H    0.149560
    35  H    0.149849
    36  H    0.152036
    37  H    0.152006
    38  H    0.155853
    39  H    0.155385
    40  H    0.168969
 Sum of Mulliken charges =  -0.00000

 Dipole moment (field-independent basis, Debye):
    X=              0.0399    Y=             -0.0049    Z=              0.0154  Tot=              0.0431
 Quadrupole moment (field-independent basis, Debye-Ang):
   XX=            -86.0063   YY=            -85.8831   ZZ=            -83.0709
   XY=             -0.0431   XZ=              0.3161   YZ=              0.0857

 Normal termination of Gaussian 16 at Thu May  6 05:35:38 2021.
