 Gaussian 16, Revision A.03,
 Gaussian 16:  EM64L-G16RevA.03 25-Dec-2016

 -------------
 #p 6-31g* mp2
 -------------

 ------------------------------------------------------
 Input file generated by CHIRIPA (05-May-2021 14:51:13)
 ------------------------------------------------------
 Symbolic Z-matrix:
 Charge =  0 Multiplicity = 1

                         Standard orientation:
 ---------------------------------------------------------------------
 Center     Atomic      Atomic             Coordinates (Angstroms)
 Number     Number       Type             X           Y           Z
 ---------------------------------------------------------------------
      1          6           0        2.373061    1.110755   -0.311558
      2          6           0        3.084749    2.089462    0.623117
      3          6           0        2.579666    3.524674    0.471950
      4          1           0        2.508812    1.441245   -1.350449
      5          1           0        1.293050    1.143324   -0.111785
      6          1           0        4.163243    2.054042    0.422590
      7          1           0        2.947449    1.756498    1.659891
      8          1           0        1.508730    3.581386    0.692137
      9          1           0        2.731432    3.880620   -0.552194
     10          1           0        3.101919    4.207510    1.149333
     11          6           0        2.867068   -0.328081   -0.172146
     12          6           0        2.155381   -1.306789   -1.106822
     13          6           0        2.660464   -2.742001   -0.955655
     14          1           0        3.947080   -0.360650   -0.371919
     15          1           0        2.731317   -0.658571    0.866744
     16          1           0        2.292680   -0.973825   -2.143595
     17          1           0        1.076886   -1.271368   -0.906295
     18          1           0        2.508697   -3.097947    0.068489
     19          1           0        3.731399   -2.798712   -1.175841
     20          1           0        2.138211   -3.424836   -1.633037
     21          6           0       -2.360740   -1.109761    0.248877
     22          6           0       -1.164127   -1.313421    1.178727
     23          6           0       -0.656706   -2.755749    1.181919
     24          1           0       -3.172374   -1.784831    0.552976
     25          1           0       -2.077059   -1.401895   -0.771701
     26          1           0       -1.449559   -1.019683    2.196992
     27          1           0       -0.355316   -0.637652    0.872498
     28          1           0       -0.345193   -3.056764    0.176458
     29          1           0       -1.445654   -3.440965    1.508477
     30          1           0        0.198872   -2.878852    1.853255
     31          6           0       -2.879389    0.327087    0.234828
     32          6           0       -4.076003    0.530748   -0.695023
     33          6           0       -4.583423    1.973076   -0.698214
     34          1           0       -3.163069    0.619221    1.255405
     35          1           0       -2.067756    1.002157   -0.069272
     36          1           0       -4.884814   -0.145022   -0.388793
     37          1           0       -3.790571    0.237009   -1.713287
     38          1           0       -3.794476    2.658291   -1.024774
     39          1           0       -4.894936    2.274090    0.307247
     40          1           0       -5.439001    2.096178   -1.369551
 ---------------------------------------------------------------------

 SCF Done:  E(RHF) =  -470.732275518     A.U. after   11 cycles
 E2 =    -0.1585105951D+01 EUMP2 =    -0.47231738146825D+03

 The electronic state is 1-A.
 Alpha  occ. eigenvalues --  -11.21646 -11.21630 -11.21621 -11.21561 -11.21459
 Alpha  occ. eigenvalues --  -11.21435 -11.21400 -11.21369 -11.21099 -11.21088
 Alpha  occ. eigenvalues --  -11.21085 -11.21031  -1.08529  -1.08408  -1.03647
 Alpha  occ. eigenvalues --   -1.03468  -0.96066  -0.95946  -0.87068  -0.86971
 Alpha  occ. eigenvalues --   -0.79665  -0.79582  -0.78346  -0.78224  -0.65530
 Alpha  occ. eigenvalues --   -0.64779  -0.61402  -0.60508  -0.59399  -0.59329
 Alpha  occ. eigenvalues --   -0.57673  -0.57559  -0.55514  -0.55052  -0.52722
 Alpha  occ. eigenvalues --   -0.52679  -0.52453  -0.52390  -0.50066  -0.49808
 Alpha  occ. eigenvalues --   -0.48001  -0.47893  -0.46768  -0.46585  -0.46113
 Alpha  occ. eigenvalues --   -0.45783  -0.45771  -0.45327  -0.43819  -0.43793
 Alpha virt. eigenvalues --    0.19557   0.22612   0.23205   0.24876   0.25763
 Alpha virt. eigenvalues --    0.25965   0.26604   0.27862   0.29167   0.29682
 Alpha virt. eigenvalues --    0.30144   0.31180   0.31968   0.32056   0.32376

 Mulliken charges:
               1
     1  C   -0.302745
     2  C   -0.299429
     3  C   -0.475860
     4  H    0.149924
     5  H    0.151701
     6  H    0.152125
     7  H    0.152260
     8  H    0.155313
     9  H    0.155099
    10  H    0.160432
    11  C   -0.298709
    12  C   -0.306189
    13  C   -0.476944
    14  H    0.150136
    15  H    0.150102
    16  H    0.151549
    17  H    0.158625
    18  H    0.158233
    19  H    0.154830
    20  H    0.159136
    21  C   -0.299189
    22  C   -0.309159
    23  C   -0.478733
    24  H    0.150340
    25  H    0.149961
    26  H    0.152951
    27  H    0.158715
    28  H    0.159991
    29  H    0.155616
    30  H    0.159782
    31  C   -0.299046
    32  C   -0.299701
    33  C   -0.475819
    34  H    0.149681
    35  H    0.149712
    36  H    0.152087
    37  H    0.152234
    38  H    0.155415
    39  H    0.155166
    40  H    0.160406
 Sum of Mulliken charges =  -0.00000

 Dipole moment (field-independent basis, Debye):
    X=             -0.0150    Y=             -0.0124    Z=              0.0092  Tot=              0.0215
 Quadrupole moment (field-independent basis, Debye-Ang):
   XX=            -84.1421   YY=            -86.8287   ZZ=            -83.7300
   XY=              1.0534   XZ=             -0.9912   YZ=             -0.2137

 Normal termination of Gaussian 16 at Wed May  5 21:37:41 2021.
