 Gaussian 16, Revision A.03,
 Gaussian 16:  EM64L-G16RevA.03 25-Dec-2016

 -------------
 #p 6-31g* mp2
 -------------

 ------------------------------------------------------
 Input file generated by CHIRIPA (05-May-2021 14:51:10)
 ------------------------------------------------------
 Symbolic Z-matrix:
 Charge =  0 Multiplicity = 1

                         Standard orientation:
 ---------------------------------------------------------------------
 Center     Atomic      Atomic             Coordinates (Angstroms)
 Number     Number       Type             X           Y           Z
 ---------------------------------------------------------------------
      1          6           0       -4.219258    0.408104   -0.073418
      2          6           0       -5.595211   -0.160917    0.274367
      3          6           0       -6.686501    0.909504    0.307223
      4          1           0       -3.953671    1.182147    0.659566
      5          1           0       -4.273231    0.908130   -1.050381
      6          1           0       -5.538320   -0.660921    1.249751
      7          1           0       -5.857468   -0.933830   -0.459420
      8          1           0       -6.772379    1.402116   -0.666717
      9          1           0       -6.451417    1.676575    1.052165
     10          1           0       -7.661873    0.480875    0.557792
     11          6           0       -3.117823   -0.649828   -0.110163
     12          6           0       -1.741870   -0.080808   -0.457948
     13          6           0       -0.650580   -1.151228   -0.490804
     14          1           0       -3.063850   -1.149855    0.866800
     15          1           0       -3.383410   -1.423871   -0.843147
     16          1           0       -1.479613    0.692105    0.275839
     17          1           0       -1.798761    0.419197   -1.433332
     18          1           0       -0.885664   -1.918300   -1.235746
     19          1           0       -0.564702   -1.643840    0.483136
     20          1           0        0.324792   -0.722599   -0.741373
     21          6           0        3.604137   -0.554658   -0.258861
     22          6           0        3.580048   -1.739521    0.707319
     23          6           0        3.450819   -3.084032   -0.009189
     24          1           0        2.686324   -0.563300   -0.862590
     25          1           0        4.440783   -0.679347   -0.960197
     26          1           0        2.744532   -1.611937    1.407500
     27          1           0        4.497938   -1.727947    1.308950
     28          1           0        4.290463   -3.237456   -0.694798
     29          1           0        2.527095   -3.120787   -0.595690
     30          1           0        3.435571   -3.917226    0.700330
     31          6           0        3.732944    0.796383    0.442442
     32          6           0        3.757033    1.981245   -0.523738
     33          6           0        3.886262    3.325757    0.192770
     34          1           0        2.896298    0.921072    1.143778
     35          1           0        4.650757    0.805025    1.046171
     36          1           0        2.839143    1.969672   -1.125369
     37          1           0        4.592549    1.853661   -1.223919
     38          1           0        4.809986    3.362511    0.779271
     39          1           0        3.046618    3.479181    0.878379
     40          1           0        3.901510    4.158951   -0.516749
 ---------------------------------------------------------------------

 SCF Done:  E(RHF) =  -470.733316492     A.U. after   11 cycles
 E2 =    -0.1582867384D+01 EUMP2 =    -0.47231618387598D+03

 The electronic state is 1-A.
 Alpha  occ. eigenvalues --  -11.21676 -11.21630 -11.21596 -11.21546 -11.21450
 Alpha  occ. eigenvalues --  -11.21389 -11.21378 -11.21315 -11.21153 -11.21093
 Alpha  occ. eigenvalues --  -11.21065 -11.20996  -1.08480  -1.08403  -1.03586
 Alpha  occ. eigenvalues --   -1.03491  -0.96036  -0.95944  -0.87059  -0.86956
 Alpha  occ. eigenvalues --   -0.79652  -0.79554  -0.78290  -0.78220  -0.65117
 Alpha  occ. eigenvalues --   -0.65055  -0.60988  -0.60897  -0.59415  -0.59295
 Alpha  occ. eigenvalues --   -0.57668  -0.57541  -0.55316  -0.55235  -0.52758
 Alpha  occ. eigenvalues --   -0.52637  -0.52486  -0.52332  -0.49978  -0.49875
 Alpha  occ. eigenvalues --   -0.47971  -0.47875  -0.46684  -0.46581  -0.45834
 Alpha  occ. eigenvalues --   -0.45764  -0.45754  -0.45682  -0.43787  -0.43746
 Alpha virt. eigenvalues --    0.20566   0.23023   0.23960   0.24762   0.26022
 Alpha virt. eigenvalues --    0.26502   0.26997   0.27509   0.27927   0.28928
 Alpha virt. eigenvalues --    0.30860   0.31113   0.31807   0.31848   0.32211

 Mulliken charges:
               1
     1  C   -0.298277
     2  C   -0.299680
     3  C   -0.475734
     4  H    0.149678
     5  H    0.149623
     6  H    0.151993
     7  H    0.152029
     8  H    0.155236
     9  H    0.155218
    10  H    0.160366
    11  C   -0.298687
    12  C   -0.299309
    13  C   -0.483302
    14  H    0.149658
    15  H    0.149873
    16  H    0.151786
    17  H    0.152122
    18  H    0.155670
    19  H    0.155839
    20  H    0.166377
    21  C   -0.304042
    22  C   -0.299409
    23  C   -0.477180
    24  H    0.154477
    25  H    0.149724
    26  H    0.152582
    27  H    0.151594
    28  H    0.154659
    29  H    0.157669
    30  H    0.159843
    31  C   -0.298482
    32  C   -0.299603
    33  C   -0.475644
    34  H    0.149576
    35  H    0.149741
    36  H    0.151444
    37  H    0.152017
    38  H    0.155190
    39  H    0.155123
    40  H    0.160241
 Sum of Mulliken charges =  -0.00000

 Dipole moment (field-independent basis, Debye):
    X=             -0.0285    Y=             -0.0048    Z=             -0.0040  Tot=              0.0292
 Quadrupole moment (field-independent basis, Debye-Ang):
   XX=            -84.5432   YY=            -86.3120   ZZ=            -83.9218
   XY=              0.4749   XZ=              0.1535   YZ=             -0.2510

 Normal termination of Gaussian 16 at Thu May  6 05:22:58 2021.
