 Gaussian 16, Revision A.03,
 Gaussian 16:  EM64L-G16RevA.03 25-Dec-2016

 -------------
 #p 6-31g* mp2
 -------------

 ------------------------------------------------------
 Input file generated by CHIRIPA (05-May-2021 14:57:24)
 ------------------------------------------------------
 Symbolic Z-matrix:
 Charge =  0 Multiplicity = 1

                         Standard orientation:
 ---------------------------------------------------------------------
 Center     Atomic      Atomic             Coordinates (Angstroms)
 Number     Number       Type             X           Y           Z
 ---------------------------------------------------------------------
      1          6           0       -2.137893    2.174887    0.771973
      2          6           0       -2.273501    1.162536    1.727628
      3          6           0       -2.919592   -0.034984    1.406597
      4          6           0       -3.420374   -0.187177    0.114566
      5          6           0       -3.301005    0.802821   -0.859572
      6          6           0       -2.651173    1.992121   -0.516306
      7          1           0       -1.634541    3.101957    1.029993
      8          1           0       -1.875863    1.301709    2.728907
      9          1           0       -3.038465   -0.835153    2.127025
     10          1           0       -3.707732    0.634945   -1.849425
     11          1           0       -2.547313    2.776603   -1.260514
     12          7           0       -4.106342   -1.450587   -0.237064
     13          8           0       -4.538802   -1.560066   -1.382328
     14          8           0       -4.198555   -2.307445    0.639250
     15          6           0        5.480708   -0.965861    0.693292
     16          6           0        5.275690   -0.829982   -0.683670
     17          6           0        4.075391   -0.307725   -1.174668
     18          6           0        3.097203    0.070293   -0.256223
     19          6           0        3.271575   -0.052728    1.121366
     20          6           0        4.479761   -0.577485    1.589835
     21          1           0        6.416193   -1.372535    1.065960
     22          1           0        6.051274   -1.130774   -1.382268
     23          1           0        3.890296   -0.191626   -2.235648
     24          1           0        2.479838    0.255819    1.793206
     25          1           0        4.636216   -0.681869    2.659727
     26          7           0        1.822325    0.624506   -0.764095
     27          8           0        0.976241    0.950193    0.065789
     28          8           0        1.693301    0.722718   -1.982431
 ---------------------------------------------------------------------

 SCF Done:  E(RHF) =  -868.338136247     A.U. after   16 cycles
 E2 =    -0.2599762504D+01 EUMP2 =    -0.87093789875015D+03

 The electronic state is 1-A.
 Alpha  occ. eigenvalues --  -20.61250 -20.61227 -20.59784 -20.59771 -15.86282
 Alpha  occ. eigenvalues --  -15.84827 -11.31558 -11.29884 -11.28142 -11.28095
 Alpha  occ. eigenvalues --  -11.27828 -11.27117 -11.27087 -11.26507 -11.26430
 Alpha  occ. eigenvalues --  -11.26125 -11.25439 -11.25329  -1.60314  -1.58863
 Alpha  occ. eigenvalues --   -1.39872  -1.38426  -1.19720  -1.18028  -1.09130
 Alpha  occ. eigenvalues --   -1.07471  -1.05111  -1.03421  -0.95984  -0.94370
 Alpha  occ. eigenvalues --   -0.86513  -0.84845  -0.82821  -0.81239  -0.77883
 Alpha  occ. eigenvalues --   -0.76330  -0.72521  -0.71627  -0.71061  -0.70827
 Alpha  occ. eigenvalues --   -0.70180  -0.69178  -0.65376  -0.65113  -0.63713
 Alpha  occ. eigenvalues --   -0.63472  -0.62465  -0.60823  -0.55609  -0.53938
 Alpha  occ. eigenvalues --   -0.53440  -0.53205  -0.51727  -0.51561  -0.49269
 Alpha  occ. eigenvalues --   -0.49216  -0.47826  -0.47788  -0.45296  -0.43903
 Alpha  occ. eigenvalues --   -0.37688  -0.36709  -0.35862  -0.34988
 Alpha virt. eigenvalues --    0.04647   0.06240   0.10948   0.12671   0.16162
 Alpha virt. eigenvalues --    0.17833   0.21090   0.22611   0.26988   0.27940
 Alpha virt. eigenvalues --    0.28485   0.29500   0.30662   0.32030   0.32251

 Mulliken charges:
               1
     1  C   -0.149738
     2  C   -0.214391
     3  C   -0.172244
     4  C    0.157270
     5  C   -0.169552
     6  C   -0.210835
     7  H    0.222057
     8  H    0.214892
     9  H    0.269047
    10  H    0.272194
    11  H    0.221368
    12  N    0.488233
    13  O   -0.463167
    14  O   -0.465839
    15  C   -0.170291
    16  C   -0.218297
    17  C   -0.170310
    18  C    0.158419
    19  C   -0.170442
    20  C   -0.218151
    21  H    0.226954
    22  H    0.224926
    23  H    0.276479
    24  H    0.272023
    25  H    0.223751
    26  N    0.490807
    27  O   -0.465684
    28  O   -0.459476
 Sum of Mulliken charges =  -0.00000

 Dipole moment (field-independent basis, Debye):
    X=              7.2848    Y=              2.6677    Z=              2.9092  Tot=              8.2854
 Quadrupole moment (field-independent basis, Debye-Ang):
   XX=            -94.9084   YY=           -107.5533   ZZ=            -97.1330
   XY=            -22.8173   XZ=             -0.2357   YZ=             -0.3917

 Normal termination of Gaussian 16 at Wed May  5 22:43:39 2021.
