 Gaussian 16, Revision A.03,
 Gaussian 16:  EM64L-G16RevA.03 25-Dec-2016

 -------------
 #p 6-31g* mp2
 -------------

 ------------------------------------------------------
 Input file generated by CHIRIPA (05-May-2021 14:55:21)
 ------------------------------------------------------
 Symbolic Z-matrix:
 Charge =  0 Multiplicity = 1

                         Standard orientation:
 ---------------------------------------------------------------------
 Center     Atomic      Atomic             Coordinates (Angstroms)
 Number     Number       Type             X           Y           Z
 ---------------------------------------------------------------------
      1          6           0        0.343943   -1.469243    0.786120
      2          6           0        1.485385   -1.540401    1.591457
      3          6           0        2.694053   -0.985410    1.160581
      4          6           0        2.725637   -0.363893   -0.086820
      5          6           0        1.605538   -0.276876   -0.912106
      6          6           0        0.407550   -0.838819   -0.460893
      7          1           0       -0.590831   -1.903074    1.128734
      8          1           0        1.438927   -2.029387    2.560363
      9          1           0        3.592850   -1.026273    1.763832
     10          1           0        1.682831    0.216993   -1.873114
     11          1           0       -0.477322   -0.782066   -1.088447
     12          7           0        3.999546    0.227331   -0.553734
     13          8           0        4.001215    0.769465   -1.656787
     14          8           0        4.972246    0.137404    0.192192
     15          6           0       -3.019920    1.313024   -0.133459
     16          6           0       -2.025996    1.883404    0.878847
     17          6           0       -1.635188    3.329648    0.573164
     18          1           0       -2.582886    1.371391   -1.139708
     19          1           0       -3.920670    1.942202   -0.146920
     20          1           0       -1.127956    1.252545    0.891396
     21          1           0       -2.465371    1.823497    1.882827
     22          1           0       -2.518047    3.977033    0.580451
     23          1           0       -1.173033    3.402837   -0.416613
     24          1           0       -0.924022    3.717472    1.309165
     25          6           0       -3.420223   -0.132008    0.158719
     26          6           0       -4.414149   -0.702389   -0.853586
     27          6           0       -4.804957   -2.148633   -0.547904
     28          1           0       -2.519474   -0.761187    0.172180
     29          1           0       -3.857259   -0.190375    1.164968
     30          1           0       -3.974773   -0.642481   -1.857567
     31          1           0       -5.312188   -0.071529   -0.866136
     32          1           0       -5.267111   -2.221822    0.441873
     33          1           0       -3.922097   -2.796018   -0.555191
     34          1           0       -5.516121   -2.536456   -1.283905
 ---------------------------------------------------------------------

 SCF Done:  E(RHF) =  -669.533990506     A.U. after   15 cycles
 E2 =    -0.2094392738D+01 EUMP2 =    -0.67162838324316D+03

 The electronic state is 1-A.
 Alpha  occ. eigenvalues --  -20.60803 -20.60798 -15.85858 -11.31246 -11.27818
 Alpha  occ. eigenvalues --  -11.27812 -11.27538 -11.26827 -11.26813 -11.22548
 Alpha  occ. eigenvalues --  -11.22468 -11.22190 -11.22037 -11.21976 -11.21436
 Alpha  occ. eigenvalues --   -1.59878  -1.39431  -1.19430  -1.09316  -1.08807
 Alpha  occ. eigenvalues --   -1.04837  -1.04248  -0.96730  -0.95649  -0.87732
 Alpha  occ. eigenvalues --   -0.86244  -0.82478  -0.80344  -0.79120  -0.77521
 Alpha  occ. eigenvalues --   -0.72078  -0.71201  -0.70550  -0.66163  -0.65069
 Alpha  occ. eigenvalues --   -0.64684  -0.62162  -0.61664  -0.60097  -0.58326
 Alpha  occ. eigenvalues --   -0.56037  -0.55336  -0.53394  -0.53200  -0.53100
 Alpha  occ. eigenvalues --   -0.52902  -0.50676  -0.48837  -0.48830  -0.48640
 Alpha  occ. eigenvalues --   -0.47402  -0.46609  -0.46550  -0.44831  -0.44546
 Alpha  occ. eigenvalues --   -0.37340  -0.36404
 Alpha virt. eigenvalues --    0.05000   0.11119   0.16441   0.19201   0.22830
 Alpha virt. eigenvalues --    0.23591   0.25454   0.25613   0.27016   0.28288
 Alpha virt. eigenvalues --    0.29886   0.30714   0.30932   0.31321   0.31583

 Mulliken charges:
               1
     1  C   -0.172286
     2  C   -0.218433
     3  C   -0.170734
     4  C    0.158448
     5  C   -0.171523
     6  C   -0.221204
     7  H    0.229197
     8  H    0.224074
     9  H    0.275925
    10  H    0.275830
    11  H    0.227994
    12  N    0.488111
    13  O   -0.460221
    14  O   -0.460179
    15  C   -0.298801
    16  C   -0.308819
    17  C   -0.475342
    18  H    0.146008
    19  H    0.154129
    20  H    0.160329
    21  H    0.150969
    22  H    0.155634
    23  H    0.155602
    24  H    0.163414
    25  C   -0.303995
    26  C   -0.300090
    27  C   -0.475654
    28  H    0.138665
    29  H    0.153338
    30  H    0.150824
    31  H    0.157071
    32  H    0.157051
    33  H    0.150025
    34  H    0.164641
 Sum of Mulliken charges =  -0.00000

 Dipole moment (field-independent basis, Debye):
    X=             -4.5523    Y=             -2.0329    Z=              1.6759  Tot=              5.2597
 Quadrupole moment (field-independent basis, Debye-Ang):
   XX=           -117.6904   YY=            -94.3547   ZZ=            -91.2951
   XY=             -5.5143   XZ=              6.7375   YZ=             -1.5835

 Normal termination of Gaussian 16 at Thu May  6 14:11:47 2021.
