 Gaussian 16, Revision A.03,
 Gaussian 16:  EM64L-G16RevA.03 25-Dec-2016

 -------------
 #p 6-31g* mp2
 -------------

 ------------------------------------------------------
 Input file generated by CHIRIPA (05-May-2021 14:57:26)
 ------------------------------------------------------
 Symbolic Z-matrix:
 Charge =  0 Multiplicity = 1

                         Standard orientation:
 ---------------------------------------------------------------------
 Center     Atomic      Atomic             Coordinates (Angstroms)
 Number     Number       Type             X           Y           Z
 ---------------------------------------------------------------------
      1          6           0       -2.881135   -2.168537    1.160869
      2          6           0       -4.163042   -1.609516    1.133831
      3          6           0       -4.398950   -0.406425    0.461918
      4          6           0       -3.325118    0.213543   -0.175118
      5          6           0       -2.036596   -0.318358   -0.166130
      6          6           0       -1.823867   -1.522313    0.511946
      7          1           0       -2.706879   -3.103462    1.685221
      8          1           0       -4.986021   -2.109173    1.636914
      9          1           0       -5.381365    0.048467    0.425148
     10          1           0       -1.236139    0.202999   -0.676888
     11          1           0       -0.827274   -1.954138    0.531284
     12          7           0       -3.562594    1.487659   -0.889705
     13          8           0       -2.599722    2.014204   -1.443117
     14          8           0       -4.707104    1.935642   -0.882855
     15          6           0        3.281002    1.550785    2.044788
     16          6           0        2.338127    0.521149    1.959029
     17          6           0        2.331527   -0.346017    0.862430
     18          6           0        3.286460   -0.153822   -0.134792
     19          6           0        4.238754    0.862647   -0.078066
     20          6           0        4.226640    1.717954    1.027760
     21          1           0        3.278860    2.219815    2.900237
     22          1           0        1.602552    0.388952    2.747380
     23          1           0        1.612952   -1.151407    0.770699
     24          1           0        4.959566    0.969438   -0.879592
     25          1           0        4.960081    2.516716    1.091707
     26          7           0        3.289380   -1.065573   -1.300596
     27          8           0        4.141185   -0.875152   -2.165932
     28          8           0        2.439808   -1.953363   -1.326944
 ---------------------------------------------------------------------

 SCF Done:  E(RHF) =  -868.337728372     A.U. after   16 cycles
 E2 =    -0.2599671390D+01 EUMP2 =    -0.87093739976140D+03

 The electronic state is 1-A.
 Alpha  occ. eigenvalues --  -20.61288 -20.61244 -20.60809 -20.60802 -15.86319
 Alpha  occ. eigenvalues --  -15.85863 -11.31673 -11.31255 -11.28333 -11.28151
 Alpha  occ. eigenvalues --  -11.27888 -11.27843 -11.27826 -11.27600 -11.27250
 Alpha  occ. eigenvalues --  -11.27161 -11.26879 -11.26852  -1.60337  -1.59884
 Alpha  occ. eigenvalues --   -1.39897  -1.39436  -1.19817  -1.19442  -1.09200
 Alpha  occ. eigenvalues --   -1.08833  -1.05228  -1.04850  -0.96052  -0.95658
 Alpha  occ. eigenvalues --   -0.86623  -0.86247  -0.82890  -0.82492  -0.77972
 Alpha  occ. eigenvalues --   -0.77523  -0.72538  -0.72080  -0.71655  -0.71209
 Alpha  occ. eigenvalues --   -0.70930  -0.70541  -0.65470  -0.65258  -0.65091
 Alpha  occ. eigenvalues --   -0.64843  -0.62657  -0.62122  -0.55693  -0.55348
 Alpha  occ. eigenvalues --   -0.53532  -0.53355  -0.53177  -0.52902  -0.49311
 Alpha  occ. eigenvalues --   -0.49277  -0.48843  -0.48832  -0.45305  -0.44835
 Alpha  occ. eigenvalues --   -0.37756  -0.37430  -0.36834  -0.36445
 Alpha virt. eigenvalues --    0.04571   0.05010   0.10796   0.11180   0.16105
 Alpha virt. eigenvalues --    0.16453   0.19115   0.21946   0.24737   0.27382
 Alpha virt. eigenvalues --    0.28227   0.28927   0.30035   0.31235   0.32171

 Mulliken charges:
               1
     1  C   -0.171313
     2  C   -0.218836
     3  C   -0.170718
     4  C    0.158118
     5  C   -0.171880
     6  C   -0.225807
     7  H    0.226534
     8  H    0.223687
     9  H    0.275848
    10  H    0.278158
    11  H    0.228071
    12  N    0.488026
    13  O   -0.459455
    14  O   -0.460698
    15  C   -0.169621
    16  C   -0.218390
    17  C   -0.178337
    18  C    0.160310
    19  C   -0.169133
    20  C   -0.217292
    21  H    0.228277
    22  H    0.224216
    23  H    0.270548
    24  H    0.277764
    25  H    0.226311
    26  N    0.487990
    27  O   -0.455542
    28  O   -0.466837
 Sum of Mulliken charges =  -0.00000

 Dipole moment (field-independent basis, Debye):
    X=              0.9923    Y=             -1.1226    Z=              6.6069  Tot=              6.7747
 Quadrupole moment (field-independent basis, Debye-Ang):
   XX=           -101.9663   YY=           -107.6268   ZZ=           -106.8894
   XY=             28.9215   XZ=              1.9043   YZ=             -0.7200

 Normal termination of Gaussian 16 at Thu May  6 05:11:13 2021.
