 Gaussian 16, Revision A.03,
 Gaussian 16:  EM64L-G16RevA.03 25-Dec-2016

 -------------
 #p 6-31g* mp2
 -------------

 ------------------------------------------------------
 Input file generated by CHIRIPA (05-May-2021 14:53:15)
 ------------------------------------------------------
 Symbolic Z-matrix:
 Charge =  0 Multiplicity = 1

                         Standard orientation:
 ---------------------------------------------------------------------
 Center     Atomic      Atomic             Coordinates (Angstroms)
 Number     Number       Type             X           Y           Z
 ---------------------------------------------------------------------
      1          6           0        3.175328    1.322957    0.229514
      2          6           0        1.817189    1.976982    0.485820
      3          6           0        1.923650    3.481247    0.738103
      4          1           0        3.831814    1.506127    1.091152
      5          1           0        3.650783    1.807818   -0.634342
      6          1           0        1.343831    1.490105    1.348084
      7          1           0        1.163797    1.792071   -0.376446
      8          1           0        2.372664    3.985565   -0.123669
      9          1           0        2.553722    3.681883    1.610660
     10          1           0        0.941251    3.928502    0.918977
     11          6           0        3.085331   -0.180758   -0.024392
     12          6           0        4.443471   -0.834783   -0.280697
     13          6           0        4.337010   -2.339048   -0.532981
     14          1           0        2.609877   -0.665619    0.839465
     15          1           0        2.428845   -0.363928   -0.886030
     16          1           0        5.096863   -0.649872    0.581569
     17          1           0        4.916828   -0.347906   -1.142961
     18          1           0        3.706938   -2.539684   -1.405537
     19          1           0        3.887995   -2.843367    0.328791
     20          1           0        5.319409   -2.786303   -0.713854
     21          6           0       -1.207598   -2.579508    0.451121
     22          6           0       -0.574755   -1.565198   -0.274968
     23          6           0       -1.251022   -0.378962   -0.575058
     24          6           0       -2.565252   -0.239928   -0.131485
     25          6           0       -3.222981   -1.232213    0.593811
     26          6           0       -2.527365   -2.410077    0.882434
     27          1           0       -0.674742   -3.497752    0.679785
     28          1           0        0.450130   -1.694027   -0.611211
     29          1           0       -0.785105    0.422428   -1.135517
     30          1           0       -4.245305   -1.074772    0.915501
     31          1           0       -3.021356   -3.196111    1.446498
     32          7           0       -3.291429    1.011456   -0.443107
     33          8           0       -4.448703    1.109446   -0.040925
     34          8           0       -2.689580    1.870603   -1.083637
 ---------------------------------------------------------------------

 SCF Done:  E(RHF) =  -669.534965561     A.U. after   15 cycles
 E2 =    -0.2092990068D+01 EUMP2 =    -0.67162795562878D+03

 The electronic state is 1-A.
 Alpha  occ. eigenvalues --  -20.60709 -20.60704 -15.85759 -11.31090 -11.27660
 Alpha  occ. eigenvalues --  -11.27628 -11.27381 -11.26676 -11.26576 -11.22348
 Alpha  occ. eigenvalues --  -11.22263 -11.21971 -11.21922 -11.21891 -11.21131
 Alpha  occ. eigenvalues --   -1.59784  -1.39339  -1.19256  -1.09081  -1.08657
 Alpha  occ. eigenvalues --   -1.04651  -1.04064  -0.96525  -0.95501  -0.87540
 Alpha  occ. eigenvalues --   -0.86053  -0.82342  -0.80170  -0.78950  -0.77350
 Alpha  occ. eigenvalues --   -0.71979  -0.71106  -0.70376  -0.65714  -0.64904
 Alpha  occ. eigenvalues --   -0.64675  -0.62022  -0.61440  -0.59909  -0.58128
 Alpha  occ. eigenvalues --   -0.55828  -0.55165  -0.53180  -0.53078  -0.52970
 Alpha  occ. eigenvalues --   -0.52633  -0.50464  -0.48745  -0.48737  -0.48430
 Alpha  occ. eigenvalues --   -0.47207  -0.46402  -0.46318  -0.44750  -0.44339
 Alpha  occ. eigenvalues --   -0.37240  -0.36224
 Alpha virt. eigenvalues --    0.05124   0.11344   0.16596   0.19823   0.22845
 Alpha virt. eigenvalues --    0.23060   0.24623   0.26375   0.27269   0.28112
 Alpha virt. eigenvalues --    0.29066   0.30483   0.31232   0.31511   0.32096

 Mulliken charges:
               1
     1  C   -0.298112
     2  C   -0.303167
     3  C   -0.476477
     4  H    0.152460
     5  H    0.152124
     6  H    0.153954
     7  H    0.149914
     8  H    0.156355
     9  H    0.154574
    10  H    0.168661
    11  C   -0.302945
    12  C   -0.299107
    13  C   -0.477823
    14  H    0.150118
    15  H    0.141165
    16  H    0.155573
    17  H    0.155353
    18  H    0.151910
    19  H    0.152603
    20  H    0.165074
    21  C   -0.172802
    22  C   -0.222804
    23  C   -0.173472
    24  C    0.157883
    25  C   -0.171334
    26  C   -0.218511
    27  H    0.225492
    28  H    0.231614
    29  H    0.277801
    30  H    0.275089
    31  H    0.222822
    32  N    0.487922
    33  O   -0.460756
    34  O   -0.461152
 Sum of Mulliken charges =  -0.00000

 Dipole moment (field-independent basis, Debye):
    X=              2.7403    Y=             -4.2613    Z=              1.1646  Tot=              5.1985
 Quadrupole moment (field-independent basis, Debye-Ang):
   XX=           -104.3349   YY=            -93.3886   ZZ=            -93.6329
   XY=             12.5786   XZ=             -5.2220   YZ=             -1.0031

 Normal termination of Gaussian 16 at Wed May  5 21:53:14 2021.
