 Gaussian 16, Revision A.03,
 Gaussian 16:  EM64L-G16RevA.03 25-Dec-2016

 -------------
 #p 6-31g* mp2
 -------------

 ------------------------------------------------------
 Input file generated by CHIRIPA (05-May-2021 14:57:21)
 ------------------------------------------------------
 Symbolic Z-matrix:
 Charge =  0 Multiplicity = 1

                         Standard orientation:
 ---------------------------------------------------------------------
 Center     Atomic      Atomic             Coordinates (Angstroms)
 Number     Number       Type             X           Y           Z
 ---------------------------------------------------------------------
      1          6           0       -5.577844    0.182427    0.525992
      2          6           0       -4.988011   -1.085843    0.536395
      3          6           0       -3.634733   -1.242114    0.222124
      4          6           0       -2.897631   -0.103417   -0.099340
      5          6           0       -3.456562    1.173502   -0.118420
      6          6           0       -4.811588    1.306071    0.199193
      7          1           0       -6.629782    0.294616    0.771423
      8          1           0       -5.580660   -1.960254    0.789809
      9          1           0       -3.152750   -2.212223    0.222488
     10          1           0       -2.840113    2.026463   -0.375064
     11          1           0       -5.267002    2.292258    0.190308
     12          7           0       -1.464051   -0.256308   -0.433814
     13          8           0       -0.836333    0.762669   -0.713622
     14          8           0       -0.995274   -1.392226   -0.409834
     15          6           0        2.936651    2.593244    0.084988
     16          6           0        2.451762    1.870728   -1.010171
     17          6           0        2.555708    0.476945   -1.043503
     18          6           0        3.152972   -0.164924    0.040272
     19          6           0        3.645632    0.526935    1.145671
     20          6           0        3.530992    1.920228    1.157523
     21          1           0        2.851750    3.675778    0.102538
     22          1           0        1.989717    2.390749   -1.844520
     23          1           0        2.188751   -0.107110   -1.878753
     24          1           0        4.101243   -0.019391    1.962594
     25          1           0        3.908447    2.478754    2.009357
     26          7           0        3.268676   -1.640201    0.016355
     27          8           0        3.799069   -2.182097    0.983655
     28          8           0        2.826781   -2.226692   -0.969238
 ---------------------------------------------------------------------

 SCF Done:  E(RHF) =  -868.337871025     A.U. after   16 cycles
 E2 =    -0.2600629787D+01 EUMP2 =    -0.87093850081191D+03

 The electronic state is 1-A.
 Alpha  occ. eigenvalues --  -20.61074 -20.61002 -20.59318 -20.59251 -15.86064
 Alpha  occ. eigenvalues --  -15.84337 -11.31372 -11.29588 -11.27970 -11.27895
 Alpha  occ. eigenvalues --  -11.27667 -11.26957 -11.26907 -11.26283 -11.26090
 Alpha  occ. eigenvalues --  -11.26032 -11.25328 -11.25135  -1.60108  -1.58354
 Alpha  occ. eigenvalues --   -1.39661  -1.37912  -1.19540  -1.17791  -1.08949
 Alpha  occ. eigenvalues --   -1.07236  -1.04933  -1.03184  -0.95793  -0.94079
 Alpha  occ. eigenvalues --   -0.86334  -0.84619  -0.82626  -0.80918  -0.77682
 Alpha  occ. eigenvalues --   -0.75951  -0.72286  -0.71420  -0.70648  -0.70580
 Alpha  occ. eigenvalues --   -0.69655  -0.68986  -0.65194  -0.64937  -0.63474
 Alpha  occ. eigenvalues --   -0.63252  -0.62281  -0.60560  -0.55441  -0.53800
 Alpha  occ. eigenvalues --   -0.53267  -0.53026  -0.51576  -0.51328  -0.49044
 Alpha  occ. eigenvalues --   -0.48998  -0.47340  -0.47310  -0.45075  -0.43335
 Alpha  occ. eigenvalues --   -0.37518  -0.36534  -0.35825  -0.34660
 Alpha virt. eigenvalues --    0.04849   0.06619   0.11121   0.12893   0.16352
 Alpha virt. eigenvalues --    0.18076   0.21266   0.22757   0.27175   0.28143
 Alpha virt. eigenvalues --    0.28689   0.29650   0.30829   0.32191   0.32408

 Mulliken charges:
               1
     1  C   -0.170535
     2  C   -0.218590
     3  C   -0.170367
     4  C    0.158181
     5  C   -0.171105
     6  C   -0.218520
     7  H    0.226199
     8  H    0.225035
     9  H    0.279077
    10  H    0.272379
    11  H    0.222878
    12  N    0.489078
    13  O   -0.469606
    14  O   -0.451637
    15  C   -0.173457
    16  C   -0.207570
    17  C   -0.147258
    18  C    0.155163
    19  C   -0.173572
    20  C   -0.220435
    21  H    0.217828
    22  H    0.219645
    23  H    0.277252
    24  H    0.269909
    25  H    0.215826
    26  N    0.489536
    27  O   -0.469079
    28  O   -0.456253
 Sum of Mulliken charges =  -0.00000

 Dipole moment (field-independent basis, Debye):
    X=             -5.8956    Y=              5.4910    Z=              1.0378  Tot=              8.1232
 Quadrupole moment (field-independent basis, Debye-Ang):
   XX=            -79.6869   YY=           -102.9200   ZZ=           -102.1486
   XY=             15.8655   XZ=             -1.3435   YZ=             -0.7336

 Normal termination of Gaussian 16 at Thu May  6 12:48:40 2021.
