 Gaussian 16, Revision A.03,
 Gaussian 16:  EM64L-G16RevA.03 25-Dec-2016

 -------------
 #p 6-31g* mp2
 -------------

 ------------------------------------------------------
 Input file generated by CHIRIPA (05-May-2021 14:51:09)
 ------------------------------------------------------
 Symbolic Z-matrix:
 Charge =  0 Multiplicity = 1

                         Standard orientation:
 ---------------------------------------------------------------------
 Center     Atomic      Atomic             Coordinates (Angstroms)
 Number     Number       Type             X           Y           Z
 ---------------------------------------------------------------------
      1          6           0        3.077114    0.167765   -0.037489
      2          6           0        1.923489   -0.426315    0.771340
      3          6           0        0.589582    0.268782    0.496887
      4          1           0        3.165449    1.238173    0.193529
      5          1           0        2.839468    0.097614   -1.108003
      6          1           0        2.163851   -0.356320    1.839957
      7          1           0        1.838012   -1.495474    0.538513
      8          1           0        0.323375    0.187255   -0.561928
      9          1           0        0.651066    1.332883    0.746910
     10          1           0       -0.221233   -0.171709    1.085451
     11          6           0        4.417243   -0.516596    0.226008
     12          6           0        5.570867    0.077484   -0.582821
     13          6           0        6.904775   -0.617613   -0.308368
     14          1           0        4.654888   -0.446444    1.296521
     15          1           0        4.328908   -1.587004   -0.005010
     16          1           0        5.656344    1.146644   -0.349995
     17          1           0        5.330505    0.007489   -1.651438
     18          1           0        6.843291   -1.681713   -0.558392
     19          1           0        7.170981   -0.536086    0.750446
     20          1           0        7.715589   -0.177122   -0.896932
     21          6           0       -3.211800    0.667675    0.137036
     22          6           0       -3.433834    2.089711   -0.379198
     23          6           0       -2.354599    3.064914    0.091998
     24          1           0       -3.183842    0.683249    1.235180
     25          1           0       -2.226128    0.313976   -0.195744
     26          1           0       -4.419374    2.440108   -0.046708
     27          1           0       -3.461459    2.070722   -1.476236
     28          1           0       -1.366748    2.741986   -0.252199
     29          1           0       -2.330106    3.113472    1.185452
     30          1           0       -2.532836    4.075488   -0.288568
     31          6           0       -4.282556   -0.318844   -0.325555
     32          6           0       -4.060522   -1.740881    0.190680
     33          6           0       -5.139758   -2.716083   -0.280517
     34          1           0       -5.268228    0.034855    0.007225
     35          1           0       -4.310515   -0.334418   -1.423699
     36          1           0       -4.032898   -1.721891    1.287717
     37          1           0       -3.074983   -2.091278   -0.141811
     38          1           0       -5.164250   -2.764642   -1.373972
     39          1           0       -6.127608   -2.393156    0.063680
     40          1           0       -4.961520   -3.726657    0.100049
 ---------------------------------------------------------------------

 SCF Done:  E(RHF) =  -470.732312977     A.U. after   11 cycles
 E2 =    -0.1583555107D+01 EUMP2 =    -0.47231586808352D+03

 The electronic state is 1-A.
 Alpha  occ. eigenvalues --  -11.21610 -11.21601 -11.21565 -11.21498 -11.21417
 Alpha  occ. eigenvalues --  -11.21357 -11.21302 -11.21179 -11.21078 -11.21067
 Alpha  occ. eigenvalues --  -11.21044 -11.20946  -1.08447  -1.08338  -1.03558
 Alpha  occ. eigenvalues --   -1.03443  -0.96006  -0.95898  -0.87039  -0.86914
 Alpha  occ. eigenvalues --   -0.79712  -0.79457  -0.78292  -0.78094  -0.65085
 Alpha  occ. eigenvalues --   -0.64971  -0.60950  -0.60859  -0.59420  -0.59233
 Alpha  occ. eigenvalues --   -0.57703  -0.57431  -0.55383  -0.55106  -0.52812
 Alpha  occ. eigenvalues --   -0.52584  -0.52501  -0.52201  -0.50042  -0.49736
 Alpha  occ. eigenvalues --   -0.48012  -0.47754  -0.46651  -0.46547  -0.45892
 Alpha  occ. eigenvalues --   -0.45733  -0.45679  -0.45494  -0.43721  -0.43648
 Alpha virt. eigenvalues --    0.22034   0.23010   0.23826   0.24456   0.26078
 Alpha virt. eigenvalues --    0.26456   0.26741   0.27378   0.27927   0.29570
 Alpha virt. eigenvalues --    0.30619   0.31027   0.31632   0.31855   0.32318

 Mulliken charges:
               1
     1  C   -0.298608
     2  C   -0.300493
     3  C   -0.479622
     4  H    0.149709
     5  H    0.149255
     6  H    0.152047
     7  H    0.151747
     8  H    0.153232
     9  H    0.157813
    10  H    0.165136
    11  C   -0.298243
    12  C   -0.299626
    13  C   -0.475708
    14  H    0.149610
    15  H    0.149616
    16  H    0.151998
    17  H    0.151855
    18  H    0.155166
    19  H    0.155218
    20  H    0.160281
    21  C   -0.306509
    22  C   -0.299081
    23  C   -0.479384
    24  H    0.147840
    25  H    0.162068
    26  H    0.151157
    27  H    0.150969
    28  H    0.160580
    29  H    0.154351
    30  H    0.159197
    31  C   -0.297412
    32  C   -0.299942
    33  C   -0.475521
    34  H    0.148960
    35  H    0.148960
    36  H    0.151507
    37  H    0.151617
    38  H    0.155064
    39  H    0.155217
    40  H    0.159979
 Sum of Mulliken charges =  -0.00000

 Dipole moment (field-independent basis, Debye):
    X=              0.0524    Y=             -0.0064    Z=              0.0112  Tot=              0.0540
 Quadrupole moment (field-independent basis, Debye-Ang):
   XX=            -86.3634   YY=            -85.2721   ZZ=            -83.5854
   XY=             -0.0769   XZ=             -0.5810   YZ=              0.5253

 Normal termination of Gaussian 16 at Thu May  6 00:33:21 2021.
