 Gaussian 16, Revision A.03,
 Gaussian 16:  EM64L-G16RevA.03 25-Dec-2016

 -------------
 #p 6-31g* mp2
 -------------

 ------------------------------------------------------
 Input file generated by CHIRIPA (05-May-2021 14:57:23)
 ------------------------------------------------------
 Symbolic Z-matrix:
 Charge =  0 Multiplicity = 1

                         Standard orientation:
 ---------------------------------------------------------------------
 Center     Atomic      Atomic             Coordinates (Angstroms)
 Number     Number       Type             X           Y           Z
 ---------------------------------------------------------------------
      1          6           0        3.336561    2.710357    0.399901
      2          6           0        4.547287    2.028021    0.558269
      3          6           0        4.617642    0.648023    0.345653
      4          6           0        3.452642   -0.021181   -0.026141
      5          6           0        2.231510    0.630467   -0.191920
      6          6           0        2.184568    2.010636    0.025971
      7          1           0        3.291001    3.782439    0.567115
      8          1           0        5.443534    2.568849    0.848597
      9          1           0        5.541837    0.094915    0.461204
     10          1           0        1.354889    0.064109   -0.482076
     11          1           0        1.242928    2.537942   -0.097760
     12          7           0        3.514731   -1.482214   -0.254020
     13          8           0        2.474179   -2.048791   -0.580945
     14          8           0        4.602772   -2.033129   -0.101393
     15          6           0       -1.735047   -2.070372    0.148389
     16          6           0       -1.585393   -1.060596   -0.807894
     17          6           0       -2.525240   -0.030202   -0.905477
     18          6           0       -3.607470   -0.040690   -0.026865
     19          6           0       -3.784279   -1.032645    0.936492
     20          6           0       -2.832078   -2.053203    1.016000
     21          1           0       -1.000153   -2.866987    0.217173
     22          1           0       -0.734421   -1.071378   -1.483005
     23          1           0       -2.433829    0.763983   -1.636457
     24          1           0       -4.643066   -0.995005    1.595647
     25          1           0       -2.950864   -2.836103    1.759642
     26          7           0       -4.608984    1.044936   -0.120604
     27          8           0       -5.553569    1.012990    0.665127
     28          8           0       -4.430420    1.907239   -0.978035
 ---------------------------------------------------------------------

 SCF Done:  E(RHF) =  -868.339558724     A.U. after   16 cycles
 E2 =    -0.2599537583D+01 EUMP2 =    -0.87093909630695D+03

 The electronic state is 1-A.
 Alpha  occ. eigenvalues --  -20.61601 -20.61539 -20.60900 -20.60886 -15.86615
 Alpha  occ. eigenvalues --  -15.85950 -11.31760 -11.31241 -11.28326 -11.28272
 Alpha  occ. eigenvalues --  -11.27959 -11.27869 -11.27809 -11.27386 -11.27246
 Alpha  occ. eigenvalues --  -11.27234 -11.26752 -11.26711  -1.60635  -1.59975
 Alpha  occ. eigenvalues --   -1.40202  -1.39531  -1.19902  -1.19405  -1.09328
 Alpha  occ. eigenvalues --   -1.08768  -1.05276  -1.04810  -0.96208  -0.95619
 Alpha  occ. eigenvalues --   -0.86687  -0.86174  -0.83054  -0.82470  -0.78148
 Alpha  occ. eigenvalues --   -0.77555  -0.72850  -0.72163  -0.71943  -0.71303
 Alpha  occ. eigenvalues --   -0.71011  -0.70398  -0.65557  -0.65310  -0.65033
 Alpha  occ. eigenvalues --   -0.64749  -0.62675  -0.62107  -0.55765  -0.55151
 Alpha  occ. eigenvalues --   -0.53609  -0.53428  -0.53094  -0.52824  -0.49614
 Alpha  occ. eigenvalues --   -0.49559  -0.48929  -0.48912  -0.45655  -0.44954
 Alpha  occ. eigenvalues --   -0.37854  -0.37315  -0.36867  -0.36442
 Alpha virt. eigenvalues --    0.04385   0.04987   0.10769   0.11087   0.15941
 Alpha virt. eigenvalues --    0.16429   0.20063   0.22006   0.25644   0.27278
 Alpha virt. eigenvalues --    0.28410   0.29041   0.30304   0.31144   0.32040

 Mulliken charges:
               1
     1  C   -0.169739
     2  C   -0.218617
     3  C   -0.169902
     4  C    0.157421
     5  C   -0.173405
     6  C   -0.220986
     7  H    0.228948
     8  H    0.225614
     9  H    0.276483
    10  H    0.272741
    11  H    0.227362
    12  N    0.489203
    13  O   -0.472318
    14  O   -0.455672
    15  C   -0.171215
    16  C   -0.229193
    17  C   -0.174932
    18  C    0.157853
    19  C   -0.170150
    20  C   -0.219672
    21  H    0.241316
    22  H    0.229953
    23  H    0.272390
    24  H    0.275692
    25  H    0.225345
    26  N    0.488169
    27  O   -0.459896
    28  O   -0.462794
 Sum of Mulliken charges =  -0.00000

 Dipole moment (field-independent basis, Debye):
    X=              3.4908    Y=              1.2681    Z=              1.2565  Tot=              3.9208
 Quadrupole moment (field-independent basis, Debye-Ang):
   XX=           -125.6952   YY=           -104.2986   ZZ=           -103.0362
   XY=             33.6334   XZ=              0.5368   YZ=             -1.8302

 Normal termination of Gaussian 16 at Fri May  7 04:56:13 2021.
