 Gaussian 16, Revision A.03,
 Gaussian 16:  EM64L-G16RevA.03 25-Dec-2016

 -------------
 #p 6-31g* mp2
 -------------

 ------------------------------------------------------
 Input file generated by CHIRIPA (05-May-2021 14:51:08)
 ------------------------------------------------------
 Symbolic Z-matrix:
 Charge =  0 Multiplicity = 1

                         Standard orientation:
 ---------------------------------------------------------------------
 Center     Atomic      Atomic             Coordinates (Angstroms)
 Number     Number       Type             X           Y           Z
 ---------------------------------------------------------------------
      1          6           0        2.808994    0.785487   -0.355879
      2          6           0        2.129164    1.802340    0.561632
      3          6           0        0.806616    2.318915   -0.005652
      4          1           0        2.984602    1.246698   -1.337404
      5          1           0        2.126674   -0.059055   -0.524944
      6          1           0        2.813096    2.644061    0.730032
      7          1           0        1.955327    1.338716    1.541147
      8          1           0        0.103801    1.493286   -0.157274
      9          1           0        0.966444    2.806048   -0.972998
     10          1           0        0.337712    3.044546    0.666247
     11          6           0        4.132285    0.259835    0.197583
     12          6           0        4.812114   -0.757018   -0.719928
     13          6           0        6.134662   -1.273593   -0.152644
     14          1           0        4.814605    1.104377    0.366648
     15          1           0        3.956676   -0.201376    1.179108
     16          1           0        4.985951   -0.293394   -1.699443
     17          1           0        4.128182   -1.598739   -0.888329
     18          1           0        5.974834   -1.760726    0.814701
     19          1           0        6.837477   -0.447964   -0.001022
     20          1           0        6.603567   -1.999224   -0.824543
     21          6           0       -2.896349   -0.656586    0.564624
     22          6           0       -1.600100   -1.074940   -0.130144
     23          6           0       -0.460468   -1.339339    0.854298
     24          1           0       -2.709624    0.245940    1.162558
     25          1           0       -3.195884   -1.443113    1.271057
     26          1           0       -1.303841   -0.288479   -0.836065
     27          1           0       -1.789978   -1.976465   -0.726647
     28          1           0       -0.731288   -2.138913    1.551393
     29          1           0       -0.242389   -0.441335    1.441352
     30          1           0        0.456552   -1.637017    0.336302
     31          6           0       -4.044930   -0.388736   -0.406328
     32          6           0       -5.341179    0.029618    0.288441
     33          6           0       -6.480810    0.294017   -0.696003
     34          1           0       -3.745394    0.397791   -1.112761
     35          1           0       -4.231654   -1.291261   -1.004263
     36          1           0       -5.151300    0.931143    0.884943
     37          1           0       -5.637438   -0.756843    0.994362
     38          1           0       -6.698889   -0.603987   -1.283056
     39          1           0       -6.209991    1.093590   -1.393097
     40          1           0       -7.397831    0.591695   -0.178006
 ---------------------------------------------------------------------

 SCF Done:  E(RHF) =  -470.732196670     A.U. after   11 cycles
 E2 =    -0.1584448333D+01 EUMP2 =    -0.47231664500239D+03

 The electronic state is 1-A.
 Alpha  occ. eigenvalues --  -11.21668 -11.21610 -11.21585 -11.21570 -11.21434
 Alpha  occ. eigenvalues --  -11.21370 -11.21356 -11.21288 -11.21144 -11.21074
 Alpha  occ. eigenvalues --  -11.21054 -11.21023  -1.08484  -1.08383  -1.03630
 Alpha  occ. eigenvalues --   -1.03461  -0.96046  -0.95942  -0.87057  -0.86967
 Alpha  occ. eigenvalues --   -0.79654  -0.79562  -0.78281  -0.78209  -0.65303
 Alpha  occ. eigenvalues --   -0.64907  -0.61382  -0.60562  -0.59438  -0.59275
 Alpha  occ. eigenvalues --   -0.57646  -0.57566  -0.55519  -0.55016  -0.52755
 Alpha  occ. eigenvalues --   -0.52651  -0.52496  -0.52315  -0.49999  -0.49872
 Alpha  occ. eigenvalues --   -0.48000  -0.47814  -0.46776  -0.46498  -0.45839
 Alpha  occ. eigenvalues --   -0.45771  -0.45704  -0.45598  -0.43800  -0.43754
 Alpha virt. eigenvalues --    0.20304   0.22821   0.23781   0.24815   0.26006
 Alpha virt. eigenvalues --    0.26347   0.26668   0.27672   0.28408   0.29548
 Alpha virt. eigenvalues --    0.30545   0.30943   0.31788   0.31989   0.32350

 Mulliken charges:
               1
     1  C   -0.303483
     2  C   -0.299378
     3  C   -0.485281
     4  H    0.149140
     5  H    0.155494
     6  H    0.151943
     7  H    0.152300
     8  H    0.165057
     9  H    0.154982
    10  H    0.159364
    11  C   -0.298383
    12  C   -0.299460
    13  C   -0.475687
    14  H    0.149381
    15  H    0.149989
    16  H    0.151913
    17  H    0.151206
    18  H    0.155275
    19  H    0.155179
    20  H    0.160142
    21  C   -0.298850
    22  C   -0.305106
    23  C   -0.482543
    24  H    0.150438
    25  H    0.149846
    26  H    0.154942
    27  H    0.153218
    28  H    0.156284
    29  H    0.158992
    30  H    0.162422
    31  C   -0.298426
    32  C   -0.299728
    33  C   -0.475755
    34  H    0.150099
    35  H    0.149641
    36  H    0.152166
    37  H    0.151860
    38  H    0.155150
    39  H    0.155366
    40  H    0.160291
 Sum of Mulliken charges =  -0.00000

 Dipole moment (field-independent basis, Debye):
    X=             -0.0360    Y=             -0.0246    Z=              0.0058  Tot=              0.0440
 Quadrupole moment (field-independent basis, Debye-Ang):
   XX=            -86.2856   YY=            -83.6051   ZZ=            -84.9839
   XY=              1.2854   XZ=             -1.0404   YZ=             -0.1706

 Normal termination of Gaussian 16 at Wed May  5 19:40:31 2021.
