 Gaussian 16, Revision A.03,
 Gaussian 16:  EM64L-G16RevA.03 25-Dec-2016

 -------------
 #p 6-31g* mp2
 -------------

 ------------------------------------------------------
 Input file generated by CHIRIPA (05-May-2021 14:51:08)
 ------------------------------------------------------
 Symbolic Z-matrix:
 Charge =  0 Multiplicity = 1

                         Standard orientation:
 ---------------------------------------------------------------------
 Center     Atomic      Atomic             Coordinates (Angstroms)
 Number     Number       Type             X           Y           Z
 ---------------------------------------------------------------------
      1          6           0        3.594748    0.903196   -0.329568
      2          6           0        3.228702    2.127719    0.509799
      3          6           0        3.287126    3.430497   -0.288418
      4          1           0        4.604274    1.037470   -0.741603
      5          1           0        2.912553    0.838897   -1.188563
      6          1           0        3.910507    2.188907    1.367711
      7          1           0        2.220005    1.990429    0.920041
      8          1           0        2.594192    3.394824   -1.135278
      9          1           0        4.294300    3.594430   -0.685064
     10          1           0        3.021856    4.293020    0.330892
     11          6           0        3.540923   -0.406803    0.454482
     12          6           0        3.906969   -1.631327   -0.384886
     13          6           0        3.848545   -2.934104    0.413332
     14          1           0        4.223118   -0.342504    1.313476
     15          1           0        2.531397   -0.541077    0.866517
     16          1           0        4.915666   -1.494037   -0.795127
     17          1           0        3.225164   -1.692515   -1.242798
     18          1           0        2.841371   -3.098037    0.809977
     19          1           0        4.541478   -2.898431    1.260192
     20          1           0        4.113815   -3.796628   -0.205979
     21          6           0       -4.103123    0.247492    0.163801
     22          6           0       -5.527866   -0.220383   -0.134838
     23          6           0       -6.587554    0.781928    0.323671
     24          1           0       -4.000535    0.423623    1.243337
     25          1           0       -3.931548    1.214797   -0.328415
     26          1           0       -5.696244   -1.187182    0.356654
     27          1           0       -5.627019   -0.395605   -1.213764
     28          1           0       -6.447824    1.745935   -0.176094
     29          1           0       -6.517443    0.949860    1.403246
     30          1           0       -7.598680    0.427460    0.100428
     31          6           0       -3.032548   -0.743884   -0.288715
     32          6           0       -1.607805   -0.276010    0.009924
     33          6           0       -0.548117   -1.278320   -0.448584
     34          1           0       -3.204123   -1.711190    0.203501
     35          1           0       -3.135135   -0.920015   -1.368251
     36          1           0       -1.508652   -0.100788    1.088851
     37          1           0       -1.439426    0.690790   -0.481568
     38          1           0       -0.618227   -1.446252   -1.528160
     39          1           0       -0.687846   -2.242328    0.051182
     40          1           0        0.463010   -0.923853   -0.225342
 ---------------------------------------------------------------------

 SCF Done:  E(RHF) =  -470.733302151     A.U. after   11 cycles
 E2 =    -0.1582952101D+01 EUMP2 =    -0.47231625425275D+03

 The electronic state is 1-A.
 Alpha  occ. eigenvalues --  -11.21673 -11.21627 -11.21598 -11.21567 -11.21447
 Alpha  occ. eigenvalues --  -11.21396 -11.21386 -11.21335 -11.21139 -11.21091
 Alpha  occ. eigenvalues --  -11.21069 -11.21026  -1.08479  -1.08420  -1.03582
 Alpha  occ. eigenvalues --   -1.03508  -0.96036  -0.95957  -0.87058  -0.86968
 Alpha  occ. eigenvalues --   -0.79644  -0.79570  -0.78285  -0.78238  -0.65106
 Alpha  occ. eigenvalues --   -0.65103  -0.60981  -0.60921  -0.59390  -0.59322
 Alpha  occ. eigenvalues --   -0.57660  -0.57556  -0.55315  -0.55253  -0.52736
 Alpha  occ. eigenvalues --   -0.52653  -0.52478  -0.52349  -0.49968  -0.49897
 Alpha  occ. eigenvalues --   -0.47975  -0.47878  -0.46681  -0.46597  -0.45830
 Alpha  occ. eigenvalues --   -0.45771  -0.45752  -0.45695  -0.43804  -0.43761
 Alpha virt. eigenvalues --    0.20230   0.23034   0.24067   0.24755   0.26297
 Alpha virt. eigenvalues --    0.26580   0.27144   0.27573   0.27848   0.29102
 Alpha virt. eigenvalues --    0.30838   0.31321   0.31768   0.31954   0.32208

 Mulliken charges:
               1
     1  C   -0.299312
     2  C   -0.299781
     3  C   -0.475651
     4  H    0.149927
     5  H    0.150029
     6  H    0.151989
     7  H    0.152051
     8  H    0.155101
     9  H    0.155173
    10  H    0.160280
    11  C   -0.302949
    12  C   -0.300481
    13  C   -0.476104
    14  H    0.150302
    15  H    0.152452
    16  H    0.151906
    17  H    0.153332
    18  H    0.156119
    19  H    0.154802
    20  H    0.160180
    21  C   -0.298310
    22  C   -0.299693
    23  C   -0.475738
    24  H    0.149744
    25  H    0.149588
    26  H    0.152005
    27  H    0.151992
    28  H    0.155231
    29  H    0.155236
    30  H    0.160352
    31  C   -0.298431
    32  C   -0.299375
    33  C   -0.484622
    34  H    0.149728
    35  H    0.149805
    36  H    0.151970
    37  H    0.151830
    38  H    0.155461
    39  H    0.155498
    40  H    0.168361
 Sum of Mulliken charges =  -0.00000

 Dipole moment (field-independent basis, Debye):
    X=             -0.0139    Y=             -0.0028    Z=             -0.0027  Tot=              0.0144
 Quadrupole moment (field-independent basis, Debye-Ang):
   XX=            -84.5658   YY=            -86.0064   ZZ=            -84.1421
   XY=              0.6894   XZ=              0.4448   YZ=             -0.1154

 Normal termination of Gaussian 16 at Thu May  6 08:26:50 2021.
