 Gaussian 16, Revision A.03,
 Gaussian 16:  EM64L-G16RevA.03 25-Dec-2016

 -------------
 #p 6-31g* mp2
 -------------

 ------------------------------------------------------
 Input file generated by CHIRIPA (05-May-2021 14:55:23)
 ------------------------------------------------------
 Symbolic Z-matrix:
 Charge =  0 Multiplicity = 1

                         Standard orientation:
 ---------------------------------------------------------------------
 Center     Atomic      Atomic             Coordinates (Angstroms)
 Number     Number       Type             X           Y           Z
 ---------------------------------------------------------------------
      1          6           0        1.931638   -2.028514   -0.938590
      2          6           0        3.260407   -2.068715   -0.503530
      3          6           0        3.914558   -0.897334   -0.110464
      4          6           0        3.206636    0.302302   -0.165309
      5          6           0        1.882180    0.374858   -0.594079
      6          6           0        1.247971   -0.809006   -0.982399
      7          1           0        1.431223   -2.943320   -1.242090
      8          1           0        3.793828   -3.014378   -0.468471
      9          1           0        4.942744   -0.899778    0.230485
     10          1           0        1.376527    1.332541   -0.618115
     11          1           0        0.215979   -0.774779   -1.319839
     12          7           0        3.888601    1.548999    0.248299
     13          8           0        3.242896    2.593217    0.190768
     14          8           0        5.055917    1.458334    0.622186
     15          6           0       -3.562474   -0.457299    0.859013
     16          6           0       -2.167398   -0.908808    0.425552
     17          6           0       -1.383135   -1.573861    1.557113
     18          1           0       -3.469488    0.240776    1.702215
     19          1           0       -4.121814   -1.326127    1.232739
     20          1           0       -1.611337   -0.039630    0.051465
     21          1           0       -2.263707   -1.605741   -0.416840
     22          1           0       -1.913636   -2.457710    1.925867
     23          1           0       -1.257559   -0.882700    2.396832
     24          1           0       -0.388856   -1.888825    1.225348
     25          6           0       -4.358780    0.209409   -0.261311
     26          6           0       -5.753856    0.660919    0.172149
     27          6           0       -6.538120    1.325971   -0.959411
     28          1           0       -3.799440    1.078238   -0.635037
     29          1           0       -4.451766   -0.488665   -1.104513
     30          1           0       -5.657547    1.357851    1.014542
     31          1           0       -6.309917   -0.208259    0.546237
     32          1           0       -6.663695    0.634811   -1.799132
     33          1           0       -6.007619    2.209821   -1.328165
     34          1           0       -7.532399    1.640936   -0.627647
 ---------------------------------------------------------------------

 SCF Done:  E(RHF) =  -669.534603535     A.U. after   15 cycles
 E2 =    -0.2093053743D+01 EUMP2 =    -0.67162765727786D+03

 The electronic state is 1-A.
 Alpha  occ. eigenvalues --  -20.60771 -20.60766 -15.85823 -11.31200 -11.27747
 Alpha  occ. eigenvalues --  -11.27734 -11.27483 -11.26786 -11.26696 -11.22498
 Alpha  occ. eigenvalues --  -11.22011 -11.21992 -11.21897 -11.21619 -11.21401
 Alpha  occ. eigenvalues --   -1.59845  -1.39399  -1.19365  -1.09032  -1.08757
 Alpha  occ. eigenvalues --   -1.04777  -1.04092  -0.96506  -0.95593  -0.87519
 Alpha  occ. eigenvalues --   -0.86164  -0.82432  -0.80221  -0.78852  -0.77456
 Alpha  occ. eigenvalues --   -0.72042  -0.71167  -0.70469  -0.65661  -0.65012
 Alpha  occ. eigenvalues --   -0.64791  -0.62174  -0.61474  -0.59878  -0.58142
 Alpha  occ. eigenvalues --   -0.55771  -0.55256  -0.53436  -0.53087  -0.52852
 Alpha  occ. eigenvalues --   -0.52653  -0.50439  -0.48812  -0.48796  -0.48475
 Alpha  occ. eigenvalues --   -0.47247  -0.46359  -0.46282  -0.44802  -0.44345
 Alpha  occ. eigenvalues --   -0.37319  -0.36324
 Alpha virt. eigenvalues --    0.05029   0.11222   0.16463   0.20549   0.22539
 Alpha virt. eigenvalues --    0.24102   0.25499   0.26003   0.27286   0.28121
 Alpha virt. eigenvalues --    0.28767   0.30578   0.30809   0.31571   0.32067

 Mulliken charges:
               1
     1  C   -0.174182
     2  C   -0.218135
     3  C   -0.171387
     4  C    0.158979
     5  C   -0.173272
     6  C   -0.218077
     7  H    0.226104
     8  H    0.223570
     9  H    0.275606
    10  H    0.275066
    11  H    0.232298
    12  N    0.488059
    13  O   -0.460447
    14  O   -0.460326
    15  C   -0.297547
    16  C   -0.303766
    17  C   -0.480316
    18  H    0.153680
    19  H    0.151553
    20  H    0.146137
    21  H    0.145633
    22  H    0.155709
    23  H    0.160182
    24  H    0.163259
    25  C   -0.298963
    26  C   -0.300180
    27  C   -0.476127
    28  H    0.149193
    29  H    0.148309
    30  H    0.153892
    31  H    0.152598
    32  H    0.154875
    33  H    0.156072
    34  H    0.161953
 Sum of Mulliken charges =  -0.00000

 Dipole moment (field-independent basis, Debye):
    X=             -2.4917    Y=             -4.3732    Z=             -1.3954  Tot=              5.2231
 Quadrupole moment (field-independent basis, Debye-Ang):
   XX=           -106.7285   YY=            -95.9995   ZZ=            -95.2195
   XY=            -16.9148   XZ=             -3.9362   YZ=              0.3342

 Normal termination of Gaussian 16 at Thu May  6 06:15:54 2021.
