 Gaussian 16, Revision A.03,
 Gaussian 16:  EM64L-G16RevA.03 25-Dec-2016

 -------------
 #p 6-31g* mp2
 -------------

 ------------------------------------------------------
 Input file generated by CHIRIPA (05-May-2021 14:51:12)
 ------------------------------------------------------
 Symbolic Z-matrix:
 Charge =  0 Multiplicity = 1

                         Standard orientation:
 ---------------------------------------------------------------------
 Center     Atomic      Atomic             Coordinates (Angstroms)
 Number     Number       Type             X           Y           Z
 ---------------------------------------------------------------------
      1          6           0       -4.331016    0.350518   -0.350560
      2          6           0       -2.921305   -0.061727    0.074591
      3          6           0       -1.839880    0.857868   -0.493442
      4          1           0       -4.389929    0.354179   -1.447583
      5          1           0       -4.517739    1.382957   -0.024066
      6          1           0       -2.737802   -1.093558   -0.251395
      7          1           0       -2.865796   -0.064593    1.170733
      8          1           0       -1.995097    1.888302   -0.157711
      9          1           0       -1.866376    0.853490   -1.587919
     10          1           0       -0.839969    0.544942   -0.177034
     11          6           0       -5.423033   -0.559244    0.209405
     12          6           0       -6.832745   -0.147000   -0.215746
     13          6           0       -7.914169   -1.066594    0.352287
     14          1           0       -5.236311   -1.591683   -0.117089
     15          1           0       -5.364120   -0.562905    1.306429
     16          1           0       -6.888253   -0.144134   -1.311887
     17          1           0       -7.016247    0.884831    0.110241
     18          1           0       -7.887673   -1.062216    1.446764
     19          1           0       -7.758953   -2.097028    0.016556
     20          1           0       -8.914081   -0.753669    0.035880
     21          6           0        5.505681   -0.185329    0.393533
     22          6           0        6.415749   -0.912979   -0.596564
     23          6           0        7.669251   -1.486982    0.064531
     24          1           0        6.071325    0.624050    0.875091
     25          1           0        5.214101   -0.881138    1.192424
     26          1           0        6.704408   -0.216390   -1.394094
     27          1           0        5.847819   -1.720599   -1.075960
     28          1           0        7.398478   -2.202685    0.847507
     29          1           0        8.259934   -0.689930    0.527566
     30          1           0        8.305543   -2.002844   -0.661335
     31          6           0        4.248368    0.394056   -0.252378
     32          6           0        3.338301    1.121705    0.737718
     33          6           0        2.084798    1.695709    0.076624
     34          1           0        4.539949    1.089863   -1.051269
     35          1           0        3.682725   -0.415323   -0.733937
     36          1           0        3.906231    1.929325    1.217114
     37          1           0        3.049641    0.425116    1.535248
     38          1           0        1.494116    0.898655   -0.386412
     39          1           0        2.355573    2.411412   -0.706352
     40          1           0        1.448506    2.211570    0.802490
 ---------------------------------------------------------------------

 SCF Done:  E(RHF) =  -470.733045431     A.U. after   11 cycles
 E2 =    -0.1582203395D+01 EUMP2 =    -0.47231524882577D+03

 The electronic state is 1-A.
 Alpha  occ. eigenvalues --  -11.21597 -11.21583 -11.21583 -11.21554 -11.21398
 Alpha  occ. eigenvalues --  -11.21376 -11.21338 -11.21315 -11.21068 -11.21058
 Alpha  occ. eigenvalues --  -11.21023 -11.20959  -1.08422  -1.08397  -1.03530
 Alpha  occ. eigenvalues --   -1.03481  -0.96007  -0.95902  -0.87059  -0.86884
 Alpha  occ. eigenvalues --   -0.79637  -0.79501  -0.78237  -0.78209  -0.65056
 Alpha  occ. eigenvalues --   -0.65029  -0.60948  -0.60889  -0.59389  -0.59268
 Alpha  occ. eigenvalues --   -0.57614  -0.57529  -0.55273  -0.55225  -0.52863
 Alpha  occ. eigenvalues --   -0.52535  -0.52390  -0.52262  -0.49881  -0.49879
 Alpha  occ. eigenvalues --   -0.47935  -0.47831  -0.46608  -0.46591  -0.45777
 Alpha  occ. eigenvalues --   -0.45753  -0.45702  -0.45681  -0.43835  -0.43635
 Alpha virt. eigenvalues --    0.22392   0.23002   0.23618   0.24868   0.26473
 Alpha virt. eigenvalues --    0.26672   0.27013   0.27486   0.27598   0.28879
 Alpha virt. eigenvalues --    0.30334   0.31297   0.31728   0.31787   0.32159

 Mulliken charges:
               1
     1  C   -0.298450
     2  C   -0.299410
     3  C   -0.480599
     4  H    0.149554
     5  H    0.149461
     6  H    0.151296
     7  H    0.151570
     8  H    0.154994
     9  H    0.154506
    10  H    0.166880
    11  C   -0.298168
    12  C   -0.299594
    13  C   -0.475676
    14  H    0.149376
    15  H    0.149533
    16  H    0.151909
    17  H    0.151904
    18  H    0.155131
    19  H    0.155124
    20  H    0.160194
    21  C   -0.298264
    22  C   -0.299646
    23  C   -0.475701
    24  H    0.149663
    25  H    0.149471
    26  H    0.151944
    27  H    0.151908
    28  H    0.155164
    29  H    0.155179
    30  H    0.160237
    31  C   -0.298462
    32  C   -0.299830
    33  C   -0.478954
    34  H    0.149606
    35  H    0.149643
    36  H    0.151860
    37  H    0.151622
    38  H    0.158621
    39  H    0.155418
    40  H    0.160985
 Sum of Mulliken charges =  -0.00000

 Dipole moment (field-independent basis, Debye):
    X=              0.0231    Y=              0.0139    Z=             -0.0037  Tot=              0.0272
 Quadrupole moment (field-independent basis, Debye-Ang):
   XX=            -86.4256   YY=            -84.1920   ZZ=            -84.3003
   XY=              0.3391   XZ=             -0.1957   YZ=              0.6913

 Normal termination of Gaussian 16 at Wed May  5 18:18:52 2021.
