 Gaussian 16, Revision A.03,
 Gaussian 16:  EM64L-G16RevA.03 25-Dec-2016

 -------------
 #p 6-31g* mp2
 -------------

 ------------------------------------------------------
 Input file generated by CHIRIPA (05-May-2021 14:55:23)
 ------------------------------------------------------
 Symbolic Z-matrix:
 Charge =  0 Multiplicity = 1

                         Standard orientation:
 ---------------------------------------------------------------------
 Center     Atomic      Atomic             Coordinates (Angstroms)
 Number     Number       Type             X           Y           Z
 ---------------------------------------------------------------------
      1          6           0       -2.026978   -2.043756   -0.958470
      2          6           0       -3.330911   -2.047548   -0.452244
      3          6           0       -3.939877   -0.855094   -0.050048
      4          6           0       -3.212587    0.328259   -0.168430
      5          6           0       -1.911988    0.364609   -0.668841
      6          6           0       -1.322919   -0.839812   -1.064965
      7          1           0       -1.561646   -2.974732   -1.268548
      8          1           0       -3.880080   -2.981052   -0.368403
      9          1           0       -4.948052   -0.829289    0.345345
     10          1           0       -1.389712    1.310927   -0.740452
     11          1           0       -0.310133   -0.833855   -1.457742
     12          7           0       -3.846740    1.596991    0.254143
     13          8           0       -3.184753    2.626225    0.139746
     14          8           0       -4.993769    1.538166    0.691752
     15          6           0        4.469835    0.018466   -0.254388
     16          6           0        5.555772    1.006050    0.173867
     17          6           0        6.531398    1.338281   -0.955544
     18          1           0        4.944100   -0.904723   -0.614584
     19          1           0        3.917005    0.438683   -1.105969
     20          1           0        6.105492    0.584698    1.025271
     21          1           0        5.078862    1.926922    0.533265
     22          1           0        6.001301    1.782120   -1.804429
     23          1           0        7.033763    0.432269   -1.309628
     24          1           0        7.299289    2.045840   -0.627575
     25          6           0        3.486827   -0.323505    0.863860
     26          6           0        2.400889   -1.311090    0.435606
     27          6           0        1.425263   -1.643321    1.565017
     28          1           0        4.039657   -0.743723    1.715442
     29          1           0        3.012561    0.599683    1.224056
     30          1           0        2.877800   -2.231962    0.076207
     31          1           0        1.851170   -0.889739   -0.415798
     32          1           0        0.922899   -0.737310    1.919101
     33          1           0        1.955362   -2.087159    2.413901
     34          1           0        0.657372   -2.350880    1.237047
 ---------------------------------------------------------------------

 SCF Done:  E(RHF) =  -669.535311716     A.U. after   15 cycles
 E2 =    -0.2092004300D+01 EUMP2 =    -0.67162731601658D+03

 The electronic state is 1-A.
 Alpha  occ. eigenvalues --  -20.60775 -20.60770 -15.85828 -11.31200 -11.27759
 Alpha  occ. eigenvalues --  -11.27756 -11.27504 -11.26784 -11.26759 -11.22392
 Alpha  occ. eigenvalues --  -11.21966 -11.21937 -11.21853 -11.21634 -11.21373
 Alpha  occ. eigenvalues --   -1.59850  -1.39404  -1.19368  -1.08969  -1.08761
 Alpha  occ. eigenvalues --   -1.04775  -1.04044  -0.96463  -0.95598  -0.87476
 Alpha  occ. eigenvalues --   -0.86171  -0.82432  -0.80133  -0.78776  -0.77476
 Alpha  occ. eigenvalues --   -0.72047  -0.71173  -0.70476  -0.65645  -0.65021
 Alpha  occ. eigenvalues --   -0.64771  -0.62181  -0.61388  -0.59847  -0.58086
 Alpha  occ. eigenvalues --   -0.55747  -0.55269  -0.53273  -0.53021  -0.52868
 Alpha  occ. eigenvalues --   -0.52831  -0.50393  -0.48813  -0.48801  -0.48426
 Alpha  occ. eigenvalues --   -0.47163  -0.46305  -0.46225  -0.44808  -0.44296
 Alpha  occ. eigenvalues --   -0.37332  -0.36352
 Alpha virt. eigenvalues --    0.05034   0.11210   0.16461   0.20085   0.22669
 Alpha virt. eigenvalues --    0.24001   0.25214   0.26590   0.27174   0.28098
 Alpha virt. eigenvalues --    0.28639   0.29973   0.31165   0.31438   0.32225

 Mulliken charges:
               1
     1  C   -0.173119
     2  C   -0.218435
     3  C   -0.170951
     4  C    0.158875
     5  C   -0.173373
     6  C   -0.216778
     7  H    0.225963
     8  H    0.223525
     9  H    0.275645
    10  H    0.275107
    11  H    0.228796
    12  N    0.488083
    13  O   -0.460570
    14  O   -0.460318
    15  C   -0.298261
    16  C   -0.300258
    17  C   -0.476017
    18  H    0.149734
    19  H    0.147065
    20  H    0.153053
    21  H    0.153760
    22  H    0.155281
    23  H    0.155116
    24  H    0.162041
    25  C   -0.298401
    26  C   -0.302901
    27  C   -0.475057
    28  H    0.152384
    29  H    0.152264
    30  H    0.152318
    31  H    0.141470
    32  H    0.159577
    33  H    0.157475
    34  H    0.156908
 Sum of Mulliken charges =  -0.00000

 Dipole moment (field-independent basis, Debye):
    X=              2.3161    Y=             -4.4552    Z=             -1.4110  Tot=              5.2157
 Quadrupole moment (field-independent basis, Debye-Ang):
   XX=           -105.6224   YY=            -96.4586   ZZ=            -95.0729
   XY=             17.0431   XZ=              4.1610   YZ=             -0.4368

 Normal termination of Gaussian 16 at Wed May  5 16:03:28 2021.
