 Gaussian 16, Revision A.03,
 Gaussian 16:  EM64L-G16RevA.03 25-Dec-2016

 -------------
 #p 6-31g* mp2
 -------------

 ------------------------------------------------------
 Input file generated by CHIRIPA (05-May-2021 14:57:27)
 ------------------------------------------------------
 Symbolic Z-matrix:
 Charge =  0 Multiplicity = 1

                         Standard orientation:
 ---------------------------------------------------------------------
 Center     Atomic      Atomic             Coordinates (Angstroms)
 Number     Number       Type             X           Y           Z
 ---------------------------------------------------------------------
      1          6           0        5.695971    1.046852    0.584198
      2          6           0        5.796511   -0.025736   -0.307973
      3          6           0        4.666697   -0.776858   -0.645440
      4          6           0        3.446648   -0.426083   -0.069483
      5          6           0        3.314273    0.636940    0.822565
      6          6           0        4.457357    1.374190    1.145629
      7          1           0        6.578792    1.624954    0.840756
      8          1           0        6.757139   -0.282230   -0.745522
      9          1           0        4.716115   -1.612182   -1.333343
     10          1           0        2.343015    0.868611    1.242569
     11          1           0        4.376298    2.206655    1.838792
     12          7           0        2.243541   -1.213919   -0.419121
     13          8           0        1.180206   -0.884611    0.101947
     14          8           0        2.386661   -2.145815   -1.207615
     15          6           0       -5.373623   -1.442606    0.606823
     16          6           0       -4.040723   -1.620228    0.991986
     17          6           0       -3.074427   -0.663300    0.667778
     18          6           0       -3.477811    0.464343   -0.045660
     19          6           0       -4.797927    0.669868   -0.443586
     20          6           0       -5.747312   -0.300140   -0.108472
     21          1           0       -6.117696   -2.191052    0.862910
     22          1           0       -3.747638   -2.506499    1.547564
     23          1           0       -2.035584   -0.775610    0.953447
     24          1           0       -5.059811    1.563703   -0.996663
     25          1           0       -6.781730   -0.159557   -0.408907
     26          7           0       -2.463789    1.484322   -0.394657
     27          8           0       -2.844734    2.469035   -1.023831
     28          8           0       -1.307254    1.279757   -0.032418
 ---------------------------------------------------------------------

 SCF Done:  E(RHF) =  -868.338455406     A.U. after   16 cycles
 E2 =    -0.2599508091D+01 EUMP2 =    -0.87093796349716D+03

 The electronic state is 1-A.
 Alpha  occ. eigenvalues --  -20.60304 -20.60225 -20.59963 -20.59892 -15.85303
 Alpha  occ. eigenvalues --  -15.84973 -11.30648 -11.30341 -11.27267 -11.27159
 Alpha  occ. eigenvalues --  -11.27010 -11.26998 -11.26808 -11.26746 -11.26283
 Alpha  occ. eigenvalues --  -11.26221 -11.26020 -11.25921  -1.59335  -1.59011
 Alpha  occ. eigenvalues --   -1.38883  -1.38553  -1.18833  -1.18539  -1.08242
 Alpha  occ. eigenvalues --   -1.07950  -1.04232  -1.03938  -0.95078  -0.94769
 Alpha  occ. eigenvalues --   -0.85633  -0.85339  -0.81918  -0.81583  -0.76959
 Alpha  occ. eigenvalues --   -0.76598  -0.71597  -0.71140  -0.70637  -0.70326
 Alpha  occ. eigenvalues --   -0.69948  -0.69654  -0.64492  -0.64246  -0.64190
 Alpha  occ. eigenvalues --   -0.63951  -0.61570  -0.61261  -0.54762  -0.54480
 Alpha  occ. eigenvalues --   -0.52568  -0.52327  -0.52284  -0.52028  -0.48323
 Alpha  occ. eigenvalues --   -0.48289  -0.47981  -0.47916  -0.44329  -0.43902
 Alpha  occ. eigenvalues --   -0.36831  -0.36556  -0.35834  -0.35543
 Alpha virt. eigenvalues --    0.05564   0.05920   0.11820   0.12107   0.17045
 Alpha virt. eigenvalues --    0.17383   0.21866   0.22233   0.27835   0.28077
 Alpha virt. eigenvalues --    0.28625   0.29252   0.31367   0.31734   0.32874

 Mulliken charges:
               1
     1  C   -0.170828
     2  C   -0.219068
     3  C   -0.171231
     4  C    0.157344
     5  C   -0.169300
     6  C   -0.219124
     7  H    0.223965
     8  H    0.221403
     9  H    0.273778
    10  H    0.283268
    11  H    0.223477
    12  N    0.490767
    13  O   -0.457938
    14  O   -0.465486
    15  C   -0.170927
    16  C   -0.220047
    17  C   -0.171625
    18  C    0.155915
    19  C   -0.171571
    20  C   -0.219519
    21  H    0.222792
    22  H    0.223328
    23  H    0.291198
    24  H    0.272848
    25  H    0.220184
    26  N    0.487746
    27  O   -0.467299
    28  O   -0.454052
 Sum of Mulliken charges =  -0.00000

 Dipole moment (field-independent basis, Debye):
    X=              0.8031    Y=             -0.8208    Z=              2.5531  Tot=              2.7995
 Quadrupole moment (field-independent basis, Debye-Ang):
   XX=            -49.6326   YY=           -108.8186   ZZ=           -103.6038
   XY=             15.4110   XZ=             -0.2240   YZ=              0.6446

 Normal termination of Gaussian 16 at Thu May  6 09:59:37 2021.
