 Gaussian 16, Revision A.03,
 Gaussian 16:  EM64L-G16RevA.03 25-Dec-2016

 -------------
 #p 6-31g* mp2
 -------------

 ------------------------------------------------------
 Input file generated by CHIRIPA (05-May-2021 14:51:13)
 ------------------------------------------------------
 Symbolic Z-matrix:
 Charge =  0 Multiplicity = 1

                         Standard orientation:
 ---------------------------------------------------------------------
 Center     Atomic      Atomic             Coordinates (Angstroms)
 Number     Number       Type             X           Y           Z
 ---------------------------------------------------------------------
      1          6           0        4.128321    0.125117   -0.094465
      2          6           0        5.234223   -0.156714   -1.112077
      3          6           0        6.086066    1.076081   -1.416008
      4          1           0        3.486272    0.931677   -0.474175
      5          1           0        4.581063    0.497331    0.834985
      6          1           0        4.779631   -0.529597   -2.038857
      7          1           0        5.873601   -0.962828   -0.729987
      8          1           0        6.566253    1.446761   -0.504626
      9          1           0        5.466067    1.882454   -1.820933
     10          1           0        6.870428    0.852117   -2.145719
     11          6           0        3.268186   -1.097662    0.219711
     12          6           0        2.162284   -0.815831    1.237324
     13          6           0        1.310440   -2.048626    1.541255
     14          1           0        2.815444   -1.469876   -0.709739
     15          1           0        3.910235   -1.904222    0.599421
     16          1           0        1.522906   -0.009717    0.855233
     17          1           0        2.616876   -0.442948    2.164103
     18          1           0        1.930440   -2.854999    1.946179
     19          1           0        0.830254   -2.419306    0.629872
     20          1           0        0.526079   -1.824662    2.270965
     21          6           0       -3.003359    0.798267   -0.119304
     22          6           0       -2.550063    1.505296    1.158435
     23          6           0       -1.157987    2.124389    1.029426
     24          1           0       -2.275307    0.016710   -0.376320
     25          1           0       -2.996402    1.517336   -0.950138
     26          1           0       -2.559199    0.785444    1.986895
     27          1           0       -3.279377    2.285132    1.412545
     28          1           0       -1.138257    2.863123    0.221661
     29          1           0       -0.413987    1.354914    0.799274
     30          1           0       -0.853804    2.624613    1.954147
     31          6           0       -4.393149    0.174278   -0.005942
     32          6           0       -4.846444   -0.532751   -1.283681
     33          6           0       -6.238519   -1.151844   -1.154672
     34          1           0       -4.400104   -0.544791    0.824892
     35          1           0       -5.121200    0.955834    0.251074
     36          1           0       -4.117129   -1.312587   -1.537791
     37          1           0       -4.837308    0.187102   -2.112141
     38          1           0       -6.982521   -0.382369   -0.924521
     39          1           0       -6.258250   -1.890578   -0.346907
     40          1           0       -6.542703   -1.652068   -2.079393
 ---------------------------------------------------------------------

 SCF Done:  E(RHF) =  -470.733339409     A.U. after   11 cycles
 E2 =    -0.1582588449D+01 EUMP2 =    -0.47231592785744D+03

 The electronic state is 1-A.
 Alpha  occ. eigenvalues --  -11.21610 -11.21606 -11.21605 -11.21596 -11.21410
 Alpha  occ. eigenvalues --  -11.21406 -11.21350 -11.21345 -11.21117 -11.21072
 Alpha  occ. eigenvalues --  -11.21063 -11.21062  -1.08442  -1.08428  -1.03557
 Alpha  occ. eigenvalues --   -1.03518  -0.96001  -0.95972  -0.87020  -0.86987
 Alpha  occ. eigenvalues --   -0.79655  -0.79549  -0.78271  -0.78223  -0.65127
 Alpha  occ. eigenvalues --   -0.65014  -0.61073  -0.60819  -0.59364  -0.59343
 Alpha  occ. eigenvalues --   -0.57638  -0.57559  -0.55342  -0.55210  -0.52690
 Alpha  occ. eigenvalues --   -0.52672  -0.52438  -0.52393  -0.50047  -0.49843
 Alpha  occ. eigenvalues --   -0.48024  -0.47832  -0.46794  -0.46472  -0.45865
 Alpha  occ. eigenvalues --   -0.45754  -0.45731  -0.45561  -0.43793  -0.43786
 Alpha virt. eigenvalues --    0.21163   0.23134   0.23611   0.25043   0.25807
 Alpha virt. eigenvalues --    0.26822   0.27029   0.27563   0.28149   0.28741
 Alpha virt. eigenvalues --    0.30445   0.31367   0.31646   0.31767   0.32234

 Mulliken charges:
               1
     1  C   -0.298479
     2  C   -0.299670
     3  C   -0.475730
     4  H    0.150084
     5  H    0.149635
     6  H    0.151908
     7  H    0.151881
     8  H    0.155197
     9  H    0.155324
    10  H    0.160206
    11  C   -0.297544
    12  C   -0.307873
    13  C   -0.475803
    14  H    0.149313
    15  H    0.149657
    16  H    0.159151
    17  H    0.152421
    18  H    0.155680
    19  H    0.154578
    20  H    0.160138
    21  C   -0.298423
    22  C   -0.299000
    23  C   -0.483461
    24  H    0.149533
    25  H    0.149381
    26  H    0.151906
    27  H    0.151962
    28  H    0.155001
    29  H    0.162262
    30  H    0.160612
    31  C   -0.298318
    32  C   -0.299663
    33  C   -0.475719
    34  H    0.149717
    35  H    0.149664
    36  H    0.151932
    37  H    0.151841
    38  H    0.155175
    39  H    0.155280
    40  H    0.160241
 Sum of Mulliken charges =  -0.00000

 Dipole moment (field-independent basis, Debye):
    X=              0.0085    Y=              0.0034    Z=              0.0059  Tot=              0.0109
 Quadrupole moment (field-independent basis, Debye-Ang):
   XX=            -85.6744   YY=            -84.8686   ZZ=            -84.1998
   XY=             -1.5755   XZ=              0.8136   YZ=             -0.2702

 Normal termination of Gaussian 16 at Thu May  6 03:58:54 2021.
