 Gaussian 16, Revision A.03,
 Gaussian 16:  EM64L-G16RevA.03 25-Dec-2016

 -------------
 #p 6-31g* mp2
 -------------

 ------------------------------------------------------
 Input file generated by CHIRIPA (05-May-2021 14:53:14)
 ------------------------------------------------------
 Symbolic Z-matrix:
 Charge =  0 Multiplicity = 1

                         Standard orientation:
 ---------------------------------------------------------------------
 Center     Atomic      Atomic             Coordinates (Angstroms)
 Number     Number       Type             X           Y           Z
 ---------------------------------------------------------------------
      1          6           0       -5.233515    0.026260    0.228398
      2          6           0       -5.657539   -1.134802   -0.671671
      3          6           0       -7.026427   -1.703724   -0.297148
      4          1           0       -5.217261   -0.314659    1.272647
      5          1           0       -5.990150    0.820979    0.170789
      6          1           0       -4.899638   -1.926516   -0.613451
      7          1           0       -5.672599   -0.791131   -1.713919
      8          1           0       -7.798567   -0.931324   -0.373291
      9          1           0       -7.021214   -2.073160    0.733430
     10          1           0       -7.309860   -2.532610   -0.953253
     11          6           0       -3.867128    0.605661   -0.133557
     12          6           0       -3.443104    1.766722    0.766512
     13          6           0       -2.074216    2.335644    0.391989
     14          1           0       -3.110492   -0.189058   -0.075948
     15          1           0       -3.883382    0.946580   -1.177806
     16          1           0       -3.428044    1.423051    1.808759
     17          1           0       -4.201005    2.558437    0.708291
     18          1           0       -2.079429    2.705081   -0.638589
     19          1           0       -1.302076    1.563244    0.468132
     20          1           0       -1.790783    3.164531    1.048094
     21          6           0        1.038088   -0.389163    0.068465
     22          6           0        1.820408   -1.418391    0.602494
     23          6           0        3.215790   -1.350124    0.549613
     24          6           0        3.798259   -0.233085   -0.047248
     25          6           0        3.046030    0.808482   -0.588155
     26          6           0        1.652313    0.719035   -0.524111
     27          1           0       -0.045231   -0.450421    0.113880
     28          1           0        1.346120   -2.280227    1.063293
     29          1           0        3.845449   -2.132693    0.955240
     30          1           0        3.547572    1.655016   -1.041204
     31          1           0        1.047271    1.519838   -0.939662
     32          7           0        5.274605   -0.149603   -0.109139
     33          8           0        5.763489    0.845136   -0.640293
     34          8           0        5.914927   -1.080489    0.374674
 ---------------------------------------------------------------------

 SCF Done:  E(RHF) =  -669.535259609     A.U. after   15 cycles
 E2 =    -0.2091639042D+01 EUMP2 =    -0.67162689865085D+03

 The electronic state is 1-A.
 Alpha  occ. eigenvalues --  -20.60731 -20.60725 -15.85783 -11.31148 -11.27713
 Alpha  occ. eigenvalues --  -11.27699 -11.27437 -11.26734 -11.26692 -11.22607
 Alpha  occ. eigenvalues --  -11.22413 -11.22298 -11.22288 -11.22166 -11.21641
 Alpha  occ. eigenvalues --   -1.59806  -1.39360  -1.19315  -1.09328  -1.08714
 Alpha  occ. eigenvalues --   -1.04716  -1.04408  -0.96879  -0.95551  -0.87898
 Alpha  occ. eigenvalues --   -0.86112  -0.82382  -0.80484  -0.79124  -0.77424
 Alpha  occ. eigenvalues --   -0.72002  -0.71129  -0.70462  -0.65962  -0.64970
 Alpha  occ. eigenvalues --   -0.64725  -0.62078  -0.61790  -0.60242  -0.58469
 Alpha  occ. eigenvalues --   -0.56214  -0.55212  -0.53547  -0.53326  -0.53030
 Alpha  occ. eigenvalues --   -0.52783  -0.50817  -0.48798  -0.48759  -0.48746
 Alpha  occ. eigenvalues --   -0.47506  -0.46664  -0.46575  -0.44765  -0.44656
 Alpha  occ. eigenvalues --   -0.37289  -0.36315
 Alpha virt. eigenvalues --    0.05088   0.11291   0.16547   0.19206   0.22354
 Alpha virt. eigenvalues --    0.23678   0.24771   0.25808   0.26497   0.27950
 Alpha virt. eigenvalues --    0.29204   0.29828   0.30952   0.31300   0.31425

 Mulliken charges:
               1
     1  C   -0.298870
     2  C   -0.300003
     3  C   -0.476200
     4  H    0.150745
     5  H    0.152492
     6  H    0.150456
     7  H    0.153174
     8  H    0.156643
     9  H    0.155840
    10  H    0.162086
    11  C   -0.299016
    12  C   -0.300503
    13  C   -0.482001
    14  H    0.141528
    15  H    0.151867
    16  H    0.154360
    17  H    0.156815
    18  H    0.155918
    19  H    0.147994
    20  H    0.167047
    21  C   -0.175222
    22  C   -0.219098
    23  C   -0.170976
    24  C    0.158453
    25  C   -0.171285
    26  C   -0.220009
    27  H    0.229286
    28  H    0.223214
    29  H    0.275388
    30  H    0.275594
    31  H    0.227210
    32  N    0.488063
    33  O   -0.460436
    34  O   -0.460552
 Sum of Mulliken charges =  -0.00000

 Dipole moment (field-independent basis, Debye):
    X=             -5.4449    Y=             -0.2237    Z=              0.2342  Tot=              5.4545
 Quadrupole moment (field-independent basis, Debye-Ang):
   XX=           -134.5597   YY=            -90.4540   ZZ=            -93.9599
   XY=             -1.2278   XZ=              1.6246   YZ=             -2.7375

 Normal termination of Gaussian 16 at Thu May  6 05:49:45 2021.
