 Gaussian 16, Revision A.03,
 Gaussian 16:  EM64L-G16RevA.03 25-Dec-2016

 -------------
 #p 6-31g* mp2
 -------------

 ------------------------------------------------------
 Input file generated by CHIRIPA (05-May-2021 14:51:10)
 ------------------------------------------------------
 Symbolic Z-matrix:
 Charge =  0 Multiplicity = 1

                         Standard orientation:
 ---------------------------------------------------------------------
 Center     Atomic      Atomic             Coordinates (Angstroms)
 Number     Number       Type             X           Y           Z
 ---------------------------------------------------------------------
      1          6           0        2.743188   -0.639235    0.810990
      2          6           0        1.277557   -1.058707    0.929119
      3          6           0        1.077991   -2.253563    1.862011
      4          1           0        3.333904   -1.491747    0.448742
      5          1           0        3.128784   -0.393851    1.810239
      6          1           0        0.894446   -1.301897   -0.070231
      7          1           0        0.690230   -0.205041    1.290946
      8          1           0        1.433771   -2.018647    2.870394
      9          1           0        1.639147   -3.121735    1.501483
     10          1           0        0.023060   -2.536598    1.931814
     11          6           0        2.958807    0.554014   -0.118198
     12          6           0        4.424438    0.973485   -0.236327
     13          6           0        4.624004    2.168341   -1.169218
     14          1           0        2.573211    0.308630   -1.117447
     15          1           0        2.368091    1.406525    0.244050
     16          1           0        5.011765    0.119820   -0.598154
     17          1           0        4.807549    1.216676    0.763023
     18          1           0        4.062847    3.036514   -0.808690
     19          1           0        4.268224    1.933426   -2.177601
     20          1           0        5.678935    2.451377   -1.239022
     21          6           0       -3.450451    0.510420   -0.273995
     22          6           0       -3.159293    1.740402    0.586444
     23          6           0       -4.368195    2.666683    0.721922
     24          1           0       -3.777392    0.837091   -1.270660
     25          1           0       -4.291394   -0.044474    0.164530
     26          1           0       -2.318254    2.292061    0.147194
     27          1           0       -2.832824    1.410763    1.581116
     28          1           0       -5.209481    2.137461    1.181011
     29          1           0       -4.691988    3.023766   -0.261059
     30          1           0       -4.137895    3.539399    1.340944
     31          6           0       -2.251544   -0.425198   -0.418797
     32          6           0       -2.542701   -1.655181   -1.279236
     33          6           0       -1.333799   -2.581462   -1.414715
     34          1           0       -1.410601    0.129695   -0.857322
     35          1           0       -1.924602   -0.751870    0.577866
     36          1           0       -2.869171   -1.325541   -2.273908
     37          1           0       -3.383741   -2.206840   -0.839986
     38          1           0       -1.010007   -2.938544   -0.431733
     39          1           0       -0.492514   -2.052239   -1.873803
     40          1           0       -1.564100   -3.454178   -2.033736
 ---------------------------------------------------------------------

 SCF Done:  E(RHF) =  -470.731578259     A.U. after   11 cycles
 E2 =    -0.1584948937D+01 EUMP2 =    -0.47231652719551D+03

 The electronic state is 1-A.
 Alpha  occ. eigenvalues --  -11.21605 -11.21603 -11.21580 -11.21388 -11.21374
 Alpha  occ. eigenvalues --  -11.21357 -11.21304 -11.21272 -11.21074 -11.21065
 Alpha  occ. eigenvalues --  -11.21062 -11.21047  -1.08458  -1.08340  -1.03599
 Alpha  occ. eigenvalues --   -1.03421  -0.96012  -0.95923  -0.87014  -0.86955
 Alpha  occ. eigenvalues --   -0.79763  -0.79450  -0.78430  -0.77942  -0.65074
 Alpha  occ. eigenvalues --   -0.65003  -0.60961  -0.60929  -0.59546  -0.59142
 Alpha  occ. eigenvalues --   -0.57685  -0.57455  -0.55338  -0.55175  -0.52687
 Alpha  occ. eigenvalues --   -0.52653  -0.52439  -0.52346  -0.49983  -0.49832
 Alpha  occ. eigenvalues --   -0.48188  -0.47719  -0.46668  -0.46476  -0.46100
 Alpha  occ. eigenvalues --   -0.45739  -0.45567  -0.45186  -0.43779  -0.43728
 Alpha virt. eigenvalues --    0.21140   0.23111   0.23362   0.24295   0.25400
 Alpha virt. eigenvalues --    0.26025   0.26792   0.27912   0.28422   0.29722
 Alpha virt. eigenvalues --    0.30559   0.31336   0.31631   0.31876   0.32458

 Mulliken charges:
               1
     1  C   -0.297786
     2  C   -0.306808
     3  C   -0.478643
     4  H    0.148997
     5  H    0.148682
     6  H    0.162747
     7  H    0.152561
     8  H    0.155291
     9  H    0.155356
    10  H    0.159226
    11  C   -0.298084
    12  C   -0.299491
    13  C   -0.475680
    14  H    0.148211
    15  H    0.149545
    16  H    0.151942
    17  H    0.152017
    18  H    0.155060
    19  H    0.154925
    20  H    0.160225
    21  C   -0.298180
    22  C   -0.299765
    23  C   -0.475612
    24  H    0.149475
    25  H    0.149176
    26  H    0.151932
    27  H    0.151545
    28  H    0.155199
    29  H    0.155254
    30  H    0.160142
    31  C   -0.301535
    32  C   -0.299232
    33  C   -0.482063
    34  H    0.151143
    35  H    0.153577
    36  H    0.151697
    37  H    0.151576
    38  H    0.161758
    39  H    0.155012
    40  H    0.160606
 Sum of Mulliken charges =  -0.00000

 Dipole moment (field-independent basis, Debye):
    X=             -0.0237    Y=             -0.0136    Z=             -0.0165  Tot=              0.0319
 Quadrupole moment (field-independent basis, Debye-Ang):
   XX=            -85.5792   YY=            -85.4640   ZZ=            -83.9986
   XY=              0.4133   XZ=             -0.0486   YZ=              0.5036

 Normal termination of Gaussian 16 at Wed May  5 23:01:45 2021.
