 Gaussian 16, Revision A.03,
 Gaussian 16:  EM64L-G16RevA.03 25-Dec-2016

 -------------
 #p 6-31g* mp2
 -------------

 ------------------------------------------------------
 Input file generated by CHIRIPA (05-May-2021 14:53:11)
 ------------------------------------------------------
 Symbolic Z-matrix:
 Charge =  0 Multiplicity = 1

                         Standard orientation:
 ---------------------------------------------------------------------
 Center     Atomic      Atomic             Coordinates (Angstroms)
 Number     Number       Type             X           Y           Z
 ---------------------------------------------------------------------
      1          6           0       -4.171986   -0.631070    0.048882
      2          6           0       -5.651504   -0.979924    0.214147
      3          6           0       -5.869270   -2.401557    0.733117
      4          1           0       -3.707112   -1.349629   -0.639964
      5          1           0       -3.663874   -0.751307    1.015712
      6          1           0       -6.156953   -0.857730   -0.752397
      7          1           0       -6.112954   -0.260335    0.902530
      8          1           0       -5.390753   -2.532932    1.709008
      9          1           0       -5.435002   -3.133721    0.044678
     10          1           0       -6.933926   -2.629839    0.843828
     11          6           0       -3.938104    0.786896   -0.469193
     12          6           0       -2.458586    1.135750   -0.634458
     13          6           0       -2.240820    2.557383   -1.153428
     14          1           0       -4.446216    0.907133   -1.436023
     15          1           0       -4.402978    1.505455    0.219654
     16          1           0       -1.997136    0.416161   -1.322841
     17          1           0       -1.953136    1.013556    0.332086
     18          1           0       -2.675088    3.289547   -0.464989
     19          1           0       -2.719337    2.688758   -2.129319
     20          1           0       -1.176164    2.785665   -1.264139
     21          6           0        1.843268    1.567822    1.563598
     22          6           0        2.768445    0.713180    2.172002
     23          6           0        3.507988   -0.193244    1.406483
     24          6           0        3.296075   -0.218325    0.028894
     25          6           0        2.381647    0.620297   -0.606580
     26          6           0        1.653157    1.518738    0.178691
     27          1           0        1.273066    2.268854    2.165943
     28          1           0        2.918168    0.749096    3.247334
     29          1           0        4.230714   -0.866243    1.851630
     30          1           0        2.254324    0.561278   -1.680696
     31          1           0        0.935331    2.181273   -0.296514
     32          7           0        4.073145   -1.173692   -0.791982
     33          8           0        3.867936   -1.176188   -2.003807
     34          8           0        4.872708   -1.901921   -0.208016
 ---------------------------------------------------------------------

 SCF Done:  E(RHF) =  -669.535506287     A.U. after   15 cycles
 E2 =    -0.2091205710D+01 EUMP2 =    -0.67162671199710D+03

 The electronic state is 1-A.
 Alpha  occ. eigenvalues --  -20.60747 -20.60742 -15.85800 -11.31164 -11.27734
 Alpha  occ. eigenvalues --  -11.27725 -11.27477 -11.26752 -11.26723 -11.22332
 Alpha  occ. eigenvalues --  -11.22046 -11.21941 -11.21927 -11.21775 -11.21321
 Alpha  occ. eigenvalues --   -1.59822  -1.39376  -1.19336  -1.08950  -1.08731
 Alpha  occ. eigenvalues --   -1.04740  -1.04087  -0.96547  -0.95567  -0.87562
 Alpha  occ. eigenvalues --   -0.86137  -0.82400  -0.80148  -0.78723  -0.77449
 Alpha  occ. eigenvalues --   -0.72019  -0.71145  -0.70446  -0.65577  -0.64988
 Alpha  occ. eigenvalues --   -0.64780  -0.62140  -0.61471  -0.59931  -0.58145
 Alpha  occ. eigenvalues --   -0.55813  -0.55242  -0.53352  -0.53064  -0.53046
 Alpha  occ. eigenvalues --   -0.52642  -0.50464  -0.48778  -0.48774  -0.48464
 Alpha  occ. eigenvalues --   -0.47169  -0.46272  -0.46174  -0.44782  -0.44336
 Alpha  occ. eigenvalues --   -0.37315  -0.36332
 Alpha virt. eigenvalues --    0.05085   0.11255   0.16558   0.19766   0.22617
 Alpha virt. eigenvalues --    0.23773   0.25886   0.26139   0.27018   0.28208
 Alpha virt. eigenvalues --    0.28708   0.29832   0.30903   0.31572   0.32091

 Mulliken charges:
               1
     1  C   -0.298761
     2  C   -0.300102
     3  C   -0.476020
     4  H    0.152102
     5  H    0.149280
     6  H    0.152871
     7  H    0.151624
     8  H    0.155159
     9  H    0.156686
    10  H    0.161222
    11  C   -0.298791
    12  C   -0.301159
    13  C   -0.479276
    14  H    0.151603
    15  H    0.149538
    16  H    0.155145
    17  H    0.150022
    18  H    0.156993
    19  H    0.161434
    20  H    0.150310
    21  C   -0.173538
    22  C   -0.218457
    23  C   -0.171096
    24  C    0.158746
    25  C   -0.173275
    26  C   -0.222494
    27  H    0.225905
    28  H    0.223226
    29  H    0.275498
    30  H    0.275641
    31  H    0.232906
    32  N    0.488110
    33  O   -0.460479
    34  O   -0.460572
 Sum of Mulliken charges =  -0.00000

 Dipole moment (field-independent basis, Debye):
    X=             -2.9013    Y=              3.3070    Z=              2.8792  Tot=              5.2577
 Quadrupole moment (field-independent basis, Debye-Ang):
   XX=           -111.9812   YY=            -97.3213   ZZ=            -90.5328
   XY=             10.6033   XZ=             12.0172   YZ=             -1.3548

 Normal termination of Gaussian 16 at Thu May  6 02:29:52 2021.
