 Gaussian 16, Revision A.03,
 Gaussian 16:  EM64L-G16RevA.03 25-Dec-2016

 -------------
 #p 6-31g* mp2
 -------------

 ------------------------------------------------------
 Input file generated by CHIRIPA (05-May-2021 14:53:11)
 ------------------------------------------------------
 Symbolic Z-matrix:
 Charge =  0 Multiplicity = 1

                         Standard orientation:
 ---------------------------------------------------------------------
 Center     Atomic      Atomic             Coordinates (Angstroms)
 Number     Number       Type             X           Y           Z
 ---------------------------------------------------------------------
      1          6           0        3.546906   -0.029763    0.051362
      2          6           0        3.819291   -1.522147   -0.139896
      3          6           0        4.897654   -2.052176    0.805618
      4          1           0        4.479685    0.529540   -0.103713
      5          1           0        3.243944    0.150117    1.092156
      6          1           0        4.120313   -1.699356   -1.180376
      7          1           0        2.885713   -2.077945    0.015464
      8          1           0        4.601515   -1.904354    1.849194
      9          1           0        5.843129   -1.523613    0.646559
     10          1           0        5.076422   -3.120936    0.651822
     11          6           0        2.471234    0.514831   -0.886762
     12          6           0        2.198849    2.007215   -0.695503
     13          6           0        1.120486    2.537244   -1.641017
     14          1           0        2.774197    0.334951   -1.927556
     15          1           0        1.538455   -0.044472   -0.731686
     16          1           0        3.132427    2.563014   -0.850864
     17          1           0        1.897828    2.184424    0.344977
     18          1           0        0.175011    2.008681   -1.481958
     19          1           0        1.416625    2.389422   -2.684593
     20          1           0        0.941718    3.606004   -1.487222
     21          6           0       -0.946480    1.449999    1.632397
     22          6           0       -0.421710    0.201273    1.283366
     23          6           0       -1.190782   -0.715004    0.559825
     24          6           0       -2.486604   -0.347979    0.200062
     25          6           0       -3.037689    0.888471    0.532914
     26          6           0       -2.250495    1.789015    1.256719
     27          1           0       -0.342007    2.155675    2.194563
     28          1           0        0.590691   -0.064716    1.573777
     29          1           0       -0.809446   -1.688509    0.276473
     30          1           0       -4.050215    1.125110    0.229252
     31          1           0       -2.660650    2.758080    1.526403
     32          7           0       -3.310379   -1.309672   -0.566059
     33          8           0       -4.449201   -0.962251   -0.871051
     34          8           0       -2.801633   -2.392660   -0.847045
 ---------------------------------------------------------------------

 SCF Done:  E(RHF) =  -669.534053716     A.U. after   15 cycles
 E2 =    -0.2095342555D+01 EUMP2 =    -0.67162939627063D+03

 The electronic state is 1-A.
 Alpha  occ. eigenvalues --  -20.60830 -20.60825 -15.85885 -11.31294 -11.27849
 Alpha  occ. eigenvalues --  -11.27842 -11.27583 -11.26876 -11.26851 -11.22267
 Alpha  occ. eigenvalues --  -11.22231 -11.22158 -11.21925 -11.21621 -11.21431
 Alpha  occ. eigenvalues --   -1.59905  -1.39457  -1.19472  -1.09131  -1.08828
 Alpha  occ. eigenvalues --   -1.04884  -1.04105  -0.96547  -0.95679  -0.87556
 Alpha  occ. eigenvalues --   -0.86266  -0.82520  -0.80186  -0.78917  -0.77560
 Alpha  occ. eigenvalues --   -0.72102  -0.71229  -0.70567  -0.66021  -0.65118
 Alpha  occ. eigenvalues --   -0.64696  -0.62193  -0.61532  -0.59911  -0.58158
 Alpha  occ. eigenvalues --   -0.55884  -0.55327  -0.53219  -0.53181  -0.52994
 Alpha  occ. eigenvalues --   -0.52882  -0.50487  -0.48864  -0.48854  -0.48479
 Alpha  occ. eigenvalues --   -0.47238  -0.46439  -0.46398  -0.44852  -0.44385
 Alpha  occ. eigenvalues --   -0.37410  -0.36399
 Alpha virt. eigenvalues --    0.04933   0.11101   0.16302   0.18840   0.22967
 Alpha virt. eigenvalues --    0.23774   0.25227   0.25450   0.26917   0.28593
 Alpha virt. eigenvalues --    0.29646   0.30833   0.31268   0.31450   0.32196

 Mulliken charges:
               1
     1  C   -0.300893
     2  C   -0.299300
     3  C   -0.475791
     4  H    0.154111
     5  H    0.139607
     6  H    0.156935
     7  H    0.147484
     8  H    0.153075
     9  H    0.157062
    10  H    0.163615
    11  C   -0.305116
    12  C   -0.296376
    13  C   -0.478823
    14  H    0.154922
    15  H    0.151178
    16  H    0.153819
    17  H    0.139736
    18  H    0.162513
    19  H    0.157560
    20  H    0.157725
    21  C   -0.171237
    22  C   -0.218799
    23  C   -0.173264
    24  C    0.158426
    25  C   -0.171408
    26  C   -0.218705
    27  H    0.226468
    28  H    0.230686
    29  H    0.276230
    30  H    0.276148
    31  H    0.224269
    32  N    0.488132
    33  O   -0.460009
    34  O   -0.459981
 Sum of Mulliken charges =  -0.00000

 Dipole moment (field-independent basis, Debye):
    X=              2.8964    Y=              3.3603    Z=              2.6091  Tot=              5.1467
 Quadrupole moment (field-independent basis, Debye-Ang):
   XX=           -106.2338   YY=            -95.6210   ZZ=            -94.2489
   XY=            -12.1163   XZ=             -7.4331   YZ=             -0.0655

 Normal termination of Gaussian 16 at Thu May  6 05:40:03 2021.
