 Gaussian 16, Revision A.03,
 Gaussian 16:  EM64L-G16RevA.03 25-Dec-2016

 -------------
 #p 6-31g* mp2
 -------------

 ------------------------------------------------------
 Input file generated by CHIRIPA (05-May-2021 14:57:25)
 ------------------------------------------------------
 Symbolic Z-matrix:
 Charge =  0 Multiplicity = 1

                         Standard orientation:
 ---------------------------------------------------------------------
 Center     Atomic      Atomic             Coordinates (Angstroms)
 Number     Number       Type             X           Y           Z
 ---------------------------------------------------------------------
      1          6           0       -2.530030   -2.306530   -0.467059
      2          6           0       -3.445070   -1.753811    0.435008
      3          6           0       -3.573889   -0.366933    0.555512
      4          6           0       -2.768232    0.441251   -0.245141
      5          6           0       -1.847390   -0.079272   -1.153104
      6          6           0       -1.735511   -1.468973   -1.256843
      7          1           0       -2.436539   -3.384987   -0.554157
      8          1           0       -4.063404   -2.401837    1.049638
      9          1           0       -4.274197    0.087580    1.245733
     10          1           0       -1.244705    0.592339   -1.752377
     11          1           0       -1.024031   -1.895432   -1.958252
     12          7           0       -2.895640    1.910971   -0.126443
     13          8           0       -2.174288    2.601346   -0.843150
     14          8           0       -3.714444    2.344734    0.681052
     15          6           0        0.973685   -1.868587    0.922736
     16          6           0        1.056570   -0.638426    1.583308
     17          6           0        2.035212    0.294254    1.227057
     18          6           0        2.918694   -0.037616    0.201088
     19          6           0        2.861654   -1.254863   -0.475924
     20          6           0        1.874903   -2.172344   -0.102963
     21          1           0        0.210303   -2.587213    1.205971
     22          1           0        0.358006   -0.399821    2.380253
     23          1           0        2.121915    1.254008    1.721802
     24          1           0        3.572074   -1.464231   -1.266422
     25          1           0        1.812896   -3.126927   -0.617718
     26          7           0        3.959030    0.941725   -0.184903
     27          8           0        4.725511    0.625298   -1.092107
     28          8           0        3.988268    2.007216    0.427068
 ---------------------------------------------------------------------

 SCF Done:  E(RHF) =  -868.336141357     A.U. after   16 cycles
 E2 =    -0.2602966366D+01 EUMP2 =    -0.87093910772389D+03

 The electronic state is 1-A.
 Alpha  occ. eigenvalues --  -20.61274 -20.61255 -20.60887 -20.60864 -15.86323
 Alpha  occ. eigenvalues --  -15.85942 -11.31856 -11.31416 -11.28427 -11.28347
 Alpha  occ. eigenvalues --  -11.28230 -11.28102 -11.27995 -11.27825 -11.27534
 Alpha  occ. eigenvalues --  -11.27453 -11.27129 -11.26978  -1.60342  -1.59954
 Alpha  occ. eigenvalues --   -1.39888  -1.39504  -1.20048  -1.19636  -1.09440
 Alpha  occ. eigenvalues --   -1.09003  -1.05444  -1.05062  -0.96229  -0.95815
 Alpha  occ. eigenvalues --   -0.86854  -0.86450  -0.83035  -0.82646  -0.78045
 Alpha  occ. eigenvalues --   -0.77667  -0.72532  -0.72156  -0.71676  -0.71284
 Alpha  occ. eigenvalues --   -0.71173  -0.70750  -0.65686  -0.65470  -0.65276
 Alpha  occ. eigenvalues --   -0.65063  -0.62773  -0.62397  -0.55999  -0.55617
 Alpha  occ. eigenvalues --   -0.54132  -0.53537  -0.53153  -0.53032  -0.49309
 Alpha  occ. eigenvalues --   -0.49279  -0.48926  -0.48901  -0.45254  -0.44885
 Alpha  occ. eigenvalues --   -0.38416  -0.37787  -0.36668  -0.36488
 Alpha virt. eigenvalues --    0.04434   0.04860   0.10293   0.11208   0.15800
 Alpha virt. eigenvalues --    0.16362   0.20161   0.21557   0.26171   0.27040
 Alpha virt. eigenvalues --    0.27344   0.28625   0.29878   0.30986   0.31883

 Mulliken charges:
               1
     1  C   -0.181047
     2  C   -0.220513
     3  C   -0.173801
     4  C    0.157351
     5  C   -0.167249
     6  C   -0.212942
     7  H    0.223218
     8  H    0.224345
     9  H    0.277011
    10  H    0.279840
    11  H    0.223988
    12  N    0.487212
    13  O   -0.455939
    14  O   -0.459825
    15  C   -0.162887
    16  C   -0.220130
    17  C   -0.168950
    18  C    0.157166
    19  C   -0.171832
    20  C   -0.226734
    21  H    0.222522
    22  H    0.225640
    23  H    0.280057
    24  H    0.275570
    25  H    0.217887
    26  N    0.488225
    27  O   -0.461370
    28  O   -0.456812
 Sum of Mulliken charges =  -0.00000

 Dipole moment (field-independent basis, Debye):
    X=             -3.2344    Y=             -8.3461    Z=              0.9496  Tot=              9.0012
 Quadrupole moment (field-independent basis, Debye-Ang):
   XX=           -126.8063   YY=           -108.4595   ZZ=            -99.8736
   XY=              3.9656   XZ=              0.3389   YZ=              2.3986

 Normal termination of Gaussian 16 at Thu May  6 01:56:36 2021.
