 Gaussian 16, Revision A.03,
 Gaussian 16:  EM64L-G16RevA.03 25-Dec-2016

 -------------
 #p 6-31g* mp2
 -------------

 ------------------------------------------------------
 Input file generated by CHIRIPA (05-May-2021 14:57:22)
 ------------------------------------------------------
 Symbolic Z-matrix:
 Charge =  0 Multiplicity = 1

                         Standard orientation:
 ---------------------------------------------------------------------
 Center     Atomic      Atomic             Coordinates (Angstroms)
 Number     Number       Type             X           Y           Z
 ---------------------------------------------------------------------
      1          6           0        0.734553   -1.104460   -0.356390
      2          6           0        1.805736   -1.996675   -0.242183
      3          6           0        3.114568   -1.522086   -0.114617
      4          6           0        3.316871   -0.142859   -0.104898
      5          6           0        2.270478    0.771381   -0.216790
      6          6           0        0.969928    0.274289   -0.343352
      7          1           0       -0.278962   -1.481873   -0.455097
      8          1           0        1.625919   -3.067942   -0.252005
      9          1           0        3.962241   -2.190481   -0.024528
     10          1           0        2.481116    1.833869   -0.203810
     11          1           0        0.139963    0.969534   -0.431872
     12          7           0        4.698088    0.371479    0.029619
     13          8           0        4.849818    1.591143    0.035490
     14          8           0        5.602804   -0.454787    0.126634
     15          6           0       -2.461746    2.671415    0.136593
     16          6           0       -3.239732    2.152518   -0.903600
     17          6           0       -3.593396    0.800029   -0.919160
     18          6           0       -3.149892   -0.008629    0.126148
     19          6           0       -2.373631    0.478665    1.176506
     20          6           0       -2.031936    1.834308    1.171502
     21          1           0       -2.191661    3.723286    0.140693
     22          1           0       -3.574942    2.800280   -1.708638
     23          1           0       -4.194687    0.372114   -1.712102
     24          1           0       -2.054363   -0.191783    1.965167
     25          1           0       -1.427636    2.234544    1.980624
     26          7           0       -3.517964   -1.442118    0.120560
     27          8           0       -3.114670   -2.133670    1.053163
     28          8           0       -4.202784   -1.846992   -0.816315
 ---------------------------------------------------------------------

 SCF Done:  E(RHF) =  -868.337620180     A.U. after   16 cycles
 E2 =    -0.2602937907D+01 EUMP2 =    -0.87094055808749D+03

 The electronic state is 1-A.
 Alpha  occ. eigenvalues --  -20.62026 -20.62017 -20.60793 -20.60779 -15.87059
 Alpha  occ. eigenvalues --  -15.85836 -11.32450 -11.31138 -11.28972 -11.28968
 Alpha  occ. eigenvalues --  -11.28694 -11.27964 -11.27940 -11.27704 -11.27648
 Alpha  occ. eigenvalues --  -11.27314 -11.26614 -11.26562  -1.61104  -1.59865
 Alpha  occ. eigenvalues --   -1.40648  -1.39421  -1.20643  -1.19279  -1.10015
 Alpha  occ. eigenvalues --   -1.08674  -1.05999  -1.04666  -0.96828  -0.95528
 Alpha  occ. eigenvalues --   -0.87376  -0.86060  -0.83627  -0.82364  -0.78685
 Alpha  occ. eigenvalues --   -0.77441  -0.73253  -0.72493  -0.72055  -0.71655
 Alpha  occ. eigenvalues --   -0.71188  -0.70337  -0.66235  -0.65927  -0.64918
 Alpha  occ. eigenvalues --   -0.64696  -0.63290  -0.62060  -0.56444  -0.55132
 Alpha  occ. eigenvalues --   -0.54465  -0.54021  -0.53005  -0.52584  -0.50030
 Alpha  occ. eigenvalues --   -0.50016  -0.48819  -0.48801  -0.46023  -0.44842
 Alpha  occ. eigenvalues --   -0.38636  -0.37833  -0.37051  -0.36203
 Alpha virt. eigenvalues --    0.03775   0.05070   0.09966   0.11350   0.15268
 Alpha virt. eigenvalues --    0.16636   0.20392   0.21599   0.26360   0.27186
 Alpha virt. eigenvalues --    0.27605   0.27828   0.30157   0.31016   0.31721

 Mulliken charges:
               1
     1  C   -0.175552
     2  C   -0.218789
     3  C   -0.172013
     4  C    0.158841
     5  C   -0.175701
     6  C   -0.225817
     7  H    0.229225
     8  H    0.228073
     9  H    0.275656
    10  H    0.270997
    11  H    0.230168
    12  N    0.488102
    13  O   -0.462815
    14  O   -0.459778
    15  C   -0.175103
    16  C   -0.218247
    17  C   -0.171025
    18  C    0.150570
    19  C   -0.173727
    20  C   -0.226929
    21  H    0.231638
    22  H    0.229155
    23  H    0.279524
    24  H    0.280357
    25  H    0.230795
    26  N    0.486723
    27  O   -0.459275
    28  O   -0.455051
 Sum of Mulliken charges =  -0.00000

 Dipole moment (field-independent basis, Debye):
    X=             -3.9497    Y=              3.2461    Z=             -0.4307  Tot=              5.1306
 Quadrupole moment (field-independent basis, Debye-Ang):
   XX=           -144.1225   YY=            -99.9335   ZZ=           -101.8499
   XY=            -24.1929   XZ=              1.6863   YZ=              0.0960

 Normal termination of Gaussian 16 at Thu May  6 01:45:00 2021.
