 Gaussian 16, Revision A.03,
 Gaussian 16:  EM64L-G16RevA.03 25-Dec-2016

 -------------
 #p 6-31g* mp2
 -------------

 ------------------------------------------------------
 Input file generated by CHIRIPA (05-May-2021 14:53:12)
 ------------------------------------------------------
 Symbolic Z-matrix:
 Charge =  0 Multiplicity = 1

                         Standard orientation:
 ---------------------------------------------------------------------
 Center     Atomic      Atomic             Coordinates (Angstroms)
 Number     Number       Type             X           Y           Z
 ---------------------------------------------------------------------
      1          6           0        3.009140    1.115606    0.315744
      2          6           0        2.355770    1.939740   -0.794164
      3          6           0        1.378157    2.985305   -0.256706
      4          1           0        2.225793    0.618844    0.904420
      5          1           0        3.535549    1.791806    1.003524
      6          1           0        1.831910    1.262066   -1.480418
      7          1           0        3.140772    2.434445   -1.380386
      8          1           0        1.890894    3.684415    0.411835
      9          1           0        0.574594    2.505375    0.311234
     10          1           0        0.922630    3.563002   -1.067028
     11          6           0        3.989066    0.066102   -0.205805
     12          6           0        4.642436   -0.758033    0.904103
     13          6           0        5.620049   -1.803597    0.366645
     14          1           0        3.462657   -0.610099   -0.893585
     15          1           0        4.772413    0.562863   -0.794481
     16          1           0        3.857434   -1.252737    1.490324
     17          1           0        5.166297   -0.080358    1.590356
     18          1           0        6.423612   -1.323667   -0.201295
     19          1           0        5.107313   -2.502708   -0.301896
     20          1           0        6.075576   -2.381294    1.176967
     21          6           0       -4.611765    1.105745    0.575206
     22          6           0       -3.339796    1.614472    0.292696
     23          6           0       -2.291733    0.755378   -0.050911
     24          6           0       -2.552108   -0.613130   -0.102706
     25          6           0       -3.808442   -1.150465    0.173309
     26          6           0       -4.841624   -0.272669    0.514718
     27          1           0       -5.420146    1.780374    0.841275
     28          1           0       -3.158385    2.684520    0.338890
     29          1           0       -1.297347    1.122325   -0.274436
     30          1           0       -3.958719   -2.221858    0.119005
     31          1           0       -5.828439   -0.670572    0.733614
     32          7           0       -1.450447   -1.532514   -0.465304
     33          8           0       -1.705641   -2.734188   -0.503963
     34          8           0       -0.352632   -1.034045   -0.703984
 ---------------------------------------------------------------------

 SCF Done:  E(RHF) =  -669.536107903     A.U. after   15 cycles
 E2 =    -0.2091787887D+01 EUMP2 =    -0.67162789579055D+03

 The electronic state is 1-A.
 Alpha  occ. eigenvalues --  -20.60919 -20.60910 -15.85957 -11.31244 -11.27813
 Alpha  occ. eigenvalues --  -11.27775 -11.27545 -11.26818 -11.26797 -11.21194
 Alpha  occ. eigenvalues --  -11.21102 -11.20867 -11.20713 -11.20554 -11.20383
 Alpha  occ. eigenvalues --   -1.59981  -1.39538  -1.19414  -1.08825  -1.07777
 Alpha  occ. eigenvalues --   -1.04807  -1.03025  -0.95674  -0.95507  -0.86540
 Alpha  occ. eigenvalues --   -0.86205  -0.82504  -0.79081  -0.77572  -0.77550
 Alpha  occ. eigenvalues --   -0.72183  -0.71296  -0.70533  -0.65073  -0.64838
 Alpha  occ. eigenvalues --   -0.64357  -0.62191  -0.60385  -0.58900  -0.57102
 Alpha  occ. eigenvalues --   -0.55346  -0.54786  -0.53141  -0.52889  -0.52248
 Alpha  occ. eigenvalues --   -0.51935  -0.49453  -0.48931  -0.48915  -0.47405
 Alpha  occ. eigenvalues --   -0.46068  -0.45144  -0.45028  -0.44873  -0.43230
 Alpha  occ. eigenvalues --   -0.37396  -0.36406
 Alpha virt. eigenvalues --    0.04946   0.11228   0.16453   0.20168   0.23174
 Alpha virt. eigenvalues --    0.24374   0.26606   0.27367   0.28134   0.28304
 Alpha virt. eigenvalues --    0.29536   0.30781   0.31544   0.31947   0.32543

 Mulliken charges:
               1
     1  C   -0.297381
     2  C   -0.303252
     3  C   -0.479459
     4  H    0.156419
     5  H    0.143853
     6  H    0.166817
     7  H    0.149900
     8  H    0.156870
     9  H    0.145115
    10  H    0.156628
    11  C   -0.300508
    12  C   -0.299643
    13  C   -0.475976
    14  H    0.161781
    15  H    0.145224
    16  H    0.155304
    17  H    0.147747
    18  H    0.152617
    19  H    0.158851
    20  H    0.157972
    21  C   -0.170429
    22  C   -0.221629
    23  C   -0.179950
    24  C    0.158170
    25  C   -0.170179
    26  C   -0.218931
    27  H    0.225912
    28  H    0.224573
    29  H    0.288743
    30  H    0.275583
    31  H    0.223649
    32  N    0.489086
    33  O   -0.459260
    34  O   -0.464217
 Sum of Mulliken charges =  -0.00000

 Dipole moment (field-independent basis, Debye):
    X=             -3.9620    Y=              3.0746    Z=              1.2048  Tot=              5.1578
 Quadrupole moment (field-independent basis, Debye-Ang):
   XX=            -73.7424   YY=            -96.5209   ZZ=            -95.9496
   XY=             -2.4049   XZ=             -3.3560   YZ=             -1.6414

 Normal termination of Gaussian 16 at Thu May  6 15:19:33 2021.
