 Gaussian 16, Revision A.03,
 Gaussian 16:  EM64L-G16RevA.03 25-Dec-2016

 -------------
 #p 6-31g* mp2
 -------------

 ------------------------------------------------------
 Input file generated by CHIRIPA (05-May-2021 14:53:16)
 ------------------------------------------------------
 Symbolic Z-matrix:
 Charge =  0 Multiplicity = 1

                         Standard orientation:
 ---------------------------------------------------------------------
 Center     Atomic      Atomic             Coordinates (Angstroms)
 Number     Number       Type             X           Y           Z
 ---------------------------------------------------------------------
      1          6           0       -3.852888    0.200926   -0.707889
      2          6           0       -2.940331    1.393772   -0.420931
      3          6           0       -1.933509    1.651102   -1.542486
      4          1           0       -3.236577   -0.695362   -0.862076
      5          1           0       -4.389590    0.377138   -1.650383
      6          1           0       -2.406544    1.215982    0.521448
      7          1           0       -3.558895    2.287286   -0.267220
      8          1           0       -2.451017    1.854018   -2.485679
      9          1           0       -1.292118    0.776627   -1.692530
     10          1           0       -1.291324    2.508111   -1.316669
     11          6           0       -4.864895   -0.068952    0.404197
     12          6           0       -5.777452   -1.261797    0.117240
     13          6           0       -6.784274   -1.519127    1.238795
     14          1           0       -4.328193   -0.245164    1.346692
     15          1           0       -5.481206    0.827336    0.558385
     16          1           0       -5.158888   -2.155311   -0.036472
     17          1           0       -6.311239   -1.084008   -0.825139
     18          1           0       -7.425664   -0.644653    1.388839
     19          1           0       -6.266766   -1.722043    2.181987
     20          1           0       -7.426459   -2.376137    1.012978
     21          6           0        2.224010    2.110742    0.661545
     22          6           0        1.773370    1.313136   -0.395465
     23          6           0        2.420240    0.113082   -0.705268
     24          6           0        3.519595   -0.260595    0.066142
     25          6           0        3.992462    0.512403    1.125463
     26          6           0        3.330166    1.708539    1.417303
     27          1           0        1.715515    3.041452    0.895231
     28          1           0        0.914568    1.622991   -0.984101
     29          1           0        2.092446   -0.523525   -1.518104
     30          1           0        4.851226    0.177164    1.694284
     31          1           0        3.682347    2.325966    2.238764
     32          7           0        4.212571   -1.528965   -0.252324
     33          8           0        5.178853   -1.835920    0.442453
     34          8           0        3.776324   -2.192142   -1.190685
 ---------------------------------------------------------------------

 SCF Done:  E(RHF) =  -669.535083479     A.U. after   15 cycles
 E2 =    -0.2091392886D+01 EUMP2 =    -0.67162647636541D+03

 The electronic state is 1-A.
 Alpha  occ. eigenvalues --  -20.60717 -20.60712 -15.85768 -11.31116 -11.27679
 Alpha  occ. eigenvalues --  -11.27658 -11.27403 -11.26701 -11.26575 -11.22449
 Alpha  occ. eigenvalues --  -11.22265 -11.21986 -11.21937 -11.21822 -11.21339
 Alpha  occ. eigenvalues --   -1.59793  -1.39347  -1.19277  -1.09012  -1.08677
 Alpha  occ. eigenvalues --   -1.04678  -1.04166  -0.96647  -0.95518  -0.87686
 Alpha  occ. eigenvalues --   -0.86068  -0.82350  -0.80245  -0.78770  -0.77400
 Alpha  occ. eigenvalues --   -0.71987  -0.71115  -0.70395  -0.65657  -0.64927
 Alpha  occ. eigenvalues --   -0.64710  -0.62137  -0.61479  -0.60035  -0.58221
 Alpha  occ. eigenvalues --   -0.55944  -0.55169  -0.53481  -0.53065  -0.53007
 Alpha  occ. eigenvalues --   -0.52627  -0.50533  -0.48744  -0.48739  -0.48551
 Alpha  occ. eigenvalues --   -0.47238  -0.46326  -0.46212  -0.44756  -0.44401
 Alpha  occ. eigenvalues --   -0.37262  -0.36273
 Alpha virt. eigenvalues --    0.05122   0.11347   0.16596   0.20391   0.22603
 Alpha virt. eigenvalues --    0.23964   0.25876   0.26417   0.26575   0.27743
 Alpha virt. eigenvalues --    0.29158   0.30477   0.30834   0.31221   0.31988

 Mulliken charges:
               1
     1  C   -0.299699
     2  C   -0.299791
     3  C   -0.481839
     4  H    0.152148
     5  H    0.151184
     6  H    0.153048
     7  H    0.154364
     8  H    0.162654
     9  H    0.153981
    10  H    0.152855
    11  C   -0.298963
    12  C   -0.300336
    13  C   -0.476080
    14  H    0.150479
    15  H    0.149959
    16  H    0.153656
    17  H    0.152536
    18  H    0.155181
    19  H    0.155825
    20  H    0.161815
    21  C   -0.173784
    22  C   -0.225140
    23  C   -0.174635
    24  C    0.159017
    25  C   -0.171687
    26  C   -0.218341
    27  H    0.224875
    28  H    0.236850
    29  H    0.275071
    30  H    0.275216
    31  H    0.222951
    32  N    0.488023
    33  O   -0.460711
    34  O   -0.460683
 Sum of Mulliken charges =  -0.00000

 Dipole moment (field-independent basis, Debye):
    X=             -2.7024    Y=              4.4399    Z=              1.1155  Tot=              5.3160
 Quadrupole moment (field-independent basis, Debye-Ang):
   XX=           -109.8856   YY=            -97.4221   ZZ=            -92.4443
   XY=             16.4618   XZ=              7.5672   YZ=              0.6782

 Normal termination of Gaussian 16 at Thu May  6 17:11:44 2021.
