 Gaussian 16, Revision A.03,
 Gaussian 16:  EM64L-G16RevA.03 25-Dec-2016

 -------------
 #p 6-31g* mp2
 -------------

 ------------------------------------------------------
 Input file generated by CHIRIPA (05-May-2021 14:53:13)
 ------------------------------------------------------
 Symbolic Z-matrix:
 Charge =  0 Multiplicity = 1

                         Standard orientation:
 ---------------------------------------------------------------------
 Center     Atomic      Atomic             Coordinates (Angstroms)
 Number     Number       Type             X           Y           Z
 ---------------------------------------------------------------------
      1          6           0        4.251188   -0.098813   -0.131225
      2          6           0        4.227015   -1.623258   -0.015173
      3          6           0        5.625811   -2.229478    0.101710
      4          1           0        4.850326    0.186448   -1.006785
      5          1           0        4.761453    0.320749    0.746836
      6          1           0        3.715725   -2.039749   -0.892518
      7          1           0        3.627706   -1.904930    0.860102
      8          1           0        6.141012   -1.841736    0.986485
      9          1           0        6.229532   -1.977321   -0.776093
     10          1           0        5.585131   -3.320122    0.183564
     11          6           0        2.860298    0.521931   -0.248828
     12          6           0        2.884472    2.046376   -0.364881
     13          6           0        1.485676    2.652595   -0.481764
     14          1           0        2.350034    0.102369   -1.126890
     15          1           0        2.261160    0.236669    0.626731
     16          1           0        3.483781    2.328047   -1.240156
     17          1           0        3.395761    2.462866    0.512464
     18          1           0        0.881955    2.400439    0.396040
     19          1           0        0.970475    2.264854   -1.366538
     20          1           0        1.526356    3.743240   -0.563618
     21          6           0       -1.906111    2.136286    0.704028
     22          6           0       -1.413488    1.018010    1.384692
     23          6           0       -1.889269   -0.262007    1.085131
     24          6           0       -2.862208   -0.387787    0.094748
     25          6           0       -3.372820    0.706964   -0.601013
     26          6           0       -2.882483    1.977474   -0.284909
     27          1           0       -1.530860    3.126941    0.943161
     28          1           0       -0.655211    1.138345    2.153184
     29          1           0       -1.525368   -1.144869    1.596548
     30          1           0       -4.128559    0.555385   -1.362133
     31          1           0       -3.266892    2.844146   -0.815148
     32          7           0       -3.373601   -1.737852   -0.231141
     33          8           0       -4.230889   -1.821966   -1.107850
     34          8           0       -2.907459   -2.686354    0.396307
 ---------------------------------------------------------------------

 SCF Done:  E(RHF) =  -669.533999939     A.U. after   15 cycles
 E2 =    -0.2092838673D+01 EUMP2 =    -0.67162683861185D+03

 The electronic state is 1-A.
 Alpha  occ. eigenvalues --  -20.60746 -20.60740 -15.85802 -11.31157 -11.27755
 Alpha  occ. eigenvalues --  -11.27749 -11.27473 -11.26748 -11.26734 -11.22129
 Alpha  occ. eigenvalues --  -11.21828 -11.21810 -11.21705 -11.21683 -11.21225
 Alpha  occ. eigenvalues --   -1.59822  -1.39376  -1.19350  -1.08832  -1.08732
 Alpha  occ. eigenvalues --   -1.04759  -1.03919  -0.96397  -0.95571  -0.87417
 Alpha  occ. eigenvalues --   -0.86159  -0.82410  -0.79998  -0.78608  -0.77455
 Alpha  occ. eigenvalues --   -0.72022  -0.71147  -0.70468  -0.65473  -0.65008
 Alpha  occ. eigenvalues --   -0.64770  -0.62124  -0.61309  -0.59762  -0.57996
 Alpha  occ. eigenvalues --   -0.55726  -0.55238  -0.53342  -0.53066  -0.52853
 Alpha  occ. eigenvalues --   -0.52573  -0.50327  -0.48779  -0.48775  -0.48289
 Alpha  occ. eigenvalues --   -0.47025  -0.46158  -0.46066  -0.44784  -0.44176
 Alpha  occ. eigenvalues --   -0.37222  -0.36338
 Alpha virt. eigenvalues --    0.05070   0.11162   0.16488   0.20491   0.22707
 Alpha virt. eigenvalues --    0.24056   0.25727   0.26821   0.26950   0.28154
 Alpha virt. eigenvalues --    0.28851   0.30329   0.31233   0.31494   0.31827

 Mulliken charges:
               1
     1  C   -0.298716
     2  C   -0.299870
     3  C   -0.476029
     4  H    0.150892
     5  H    0.148738
     6  H    0.154540
     7  H    0.151170
     8  H    0.154625
     9  H    0.155633
    10  H    0.162218
    11  C   -0.296879
    12  C   -0.300279
    13  C   -0.476813
    14  H    0.153166
    15  H    0.143962
    16  H    0.154212
    17  H    0.150655
    18  H    0.149089
    19  H    0.159725
    20  H    0.156793
    21  C   -0.165115
    22  C   -0.218072
    23  C   -0.171322
    24  C    0.157744
    25  C   -0.170698
    26  C   -0.220654
    27  H    0.227312
    28  H    0.222515
    29  H    0.275502
    30  H    0.275568
    31  H    0.223489
    32  N    0.488152
    33  O   -0.460694
    34  O   -0.460559
 Sum of Mulliken charges =  -0.00000

 Dipole moment (field-independent basis, Debye):
    X=              1.8382    Y=              4.7171    Z=              1.0732  Tot=              5.1751
 Quadrupole moment (field-independent basis, Debye-Ang):
   XX=           -104.4989   YY=            -98.6851   ZZ=            -91.5575
   XY=            -15.5875   XZ=             -1.0017   YZ=             -1.4730

 Normal termination of Gaussian 16 at Thu May  6 02:34:07 2021.
