 Gaussian 16, Revision A.03,
 Gaussian 16:  EM64L-G16RevA.03 25-Dec-2016

 -------------
 #p 6-31g* mp2
 -------------

 ------------------------------------------------------
 Input file generated by CHIRIPA (05-May-2021 14:51:11)
 ------------------------------------------------------
 Symbolic Z-matrix:
 Charge =  0 Multiplicity = 1

                         Standard orientation:
 ---------------------------------------------------------------------
 Center     Atomic      Atomic             Coordinates (Angstroms)
 Number     Number       Type             X           Y           Z
 ---------------------------------------------------------------------
      1          6           0       -3.916457    0.888789   -0.243506
      2          6           0       -3.209121    2.098297    0.368665
      3          6           0       -3.854357    3.425469   -0.031432
      4          1           0       -3.912494    0.984855   -1.337901
      5          1           0       -4.970521    0.893380    0.066853
      6          1           0       -2.156375    2.090663    0.058368
      7          1           0       -3.214600    1.999245    1.461722
      8          1           0       -4.899634    3.458734    0.292437
      9          1           0       -3.835396    3.550672   -1.118890
     10          1           0       -3.332919    4.276745    0.417223
     11          6           0       -3.283010   -0.445296    0.147251
     12          6           0       -3.990346   -1.654803   -0.464919
     13          6           0       -3.345109   -2.981976   -0.064822
     14          1           0       -2.228945   -0.449886   -0.163107
     15          1           0       -3.286973   -0.541362    1.241646
     16          1           0       -3.984866   -1.555752   -1.557977
     17          1           0       -5.043091   -1.647170   -0.154623
     18          1           0       -3.364070   -3.107179    1.022636
     19          1           0       -2.299833   -3.015241   -0.388692
     20          1           0       -3.866548   -3.833252   -0.513477
     21          6           0        2.931791   -0.435395   -0.254594
     22          6           0        1.940472   -0.969609    0.779760
     23          6           0        0.608924   -1.392966    0.158838
     24          1           0        2.481284    0.419261   -0.777614
     25          1           0        3.110008   -1.208484   -1.014835
     26          1           0        1.765241   -0.196241    1.538583
     27          1           0        2.393466   -1.822973    1.300512
     28          1           0        0.763919   -2.181856   -0.584284
     29          1           0        0.132124   -0.545882   -0.344860
     30          1           0       -0.084739   -1.771660    0.915992
     31          6           0        4.267675   -0.008098    0.350848
     32          6           0        5.258995    0.526116   -0.683505
     33          6           0        6.590542    0.949472   -0.062584
     34          1           0        4.089459    0.764991    1.111090
     35          1           0        4.718183   -0.862754    0.873869
     36          1           0        4.806001    1.379480   -1.204258
     37          1           0        5.434227   -0.247253   -1.442329
     38          1           0        7.067342    0.102389    0.441115
     39          1           0        6.435547    1.738363    0.680538
     40          1           0        7.284205    1.328166   -0.819738
 ---------------------------------------------------------------------

 SCF Done:  E(RHF) =  -470.732727624     A.U. after   11 cycles
 E2 =    -0.1583293432D+01 EUMP2 =    -0.47231602105561D+03

 The electronic state is 1-A.
 Alpha  occ. eigenvalues --  -11.21627 -11.21619 -11.21586 -11.21512 -11.21431
 Alpha  occ. eigenvalues --  -11.21371 -11.21323 -11.21206 -11.21104 -11.21084
 Alpha  occ. eigenvalues --  -11.21060 -11.20976  -1.08460  -1.08357  -1.03566
 Alpha  occ. eigenvalues --   -1.03466  -0.96018  -0.95916  -0.87045  -0.86932
 Alpha  occ. eigenvalues --   -0.79686  -0.79497  -0.78295  -0.78134  -0.65118
 Alpha  occ. eigenvalues --   -0.64975  -0.60972  -0.60871  -0.59443  -0.59221
 Alpha  occ. eigenvalues --   -0.57636  -0.57520  -0.55431  -0.55099  -0.52748
 Alpha  occ. eigenvalues --   -0.52603  -0.52462  -0.52330  -0.50090  -0.49744
 Alpha  occ. eigenvalues --   -0.47955  -0.47848  -0.46722  -0.46564  -0.45899
 Alpha  occ. eigenvalues --   -0.45750  -0.45695  -0.45415  -0.43757  -0.43705
 Alpha virt. eigenvalues --    0.21742   0.23021   0.23677   0.24395   0.25607
 Alpha virt. eigenvalues --    0.26564   0.27000   0.27434   0.27759   0.29517
 Alpha virt. eigenvalues --    0.30422   0.31288   0.31747   0.31965   0.32226

 Mulliken charges:
               1
     1  C   -0.297823
     2  C   -0.299450
     3  C   -0.475615
     4  H    0.149105
     5  H    0.149162
     6  H    0.150695
     7  H    0.151921
     8  H    0.155327
     9  H    0.155089
    10  H    0.159955
    11  C   -0.307126
    12  C   -0.298689
    13  C   -0.479362
    14  H    0.161370
    15  H    0.148117
    16  H    0.151321
    17  H    0.151248
    18  H    0.154122
    19  H    0.160218
    20  H    0.159594
    21  C   -0.298686
    22  C   -0.300327
    23  C   -0.479737
    24  H    0.149512
    25  H    0.149527
    26  H    0.152453
    27  H    0.152181
    28  H    0.154678
    29  H    0.156185
    30  H    0.164695
    31  C   -0.298299
    32  C   -0.299648
    33  C   -0.475723
    34  H    0.149637
    35  H    0.149771
    36  H    0.151904
    37  H    0.151936
    38  H    0.155227
    39  H    0.155231
    40  H    0.160302
 Sum of Mulliken charges =  -0.00000

 Dipole moment (field-independent basis, Debye):
    X=              0.0548    Y=             -0.0155    Z=              0.0049  Tot=              0.0572
 Quadrupole moment (field-independent basis, Debye-Ang):
   XX=            -85.6994   YY=            -85.1421   ZZ=            -84.2317
   XY=             -0.3401   XZ=             -0.9069   YZ=              0.1917

 Normal termination of Gaussian 16 at Thu May  6 00:39:22 2021.
