 Gaussian 16, Revision A.03,
 Gaussian 16:  EM64L-G16RevA.03 25-Dec-2016

 -------------
 #p 6-31g* mp2
 -------------

 ------------------------------------------------------
 Input file generated by CHIRIPA (05-May-2021 14:57:21)
 ------------------------------------------------------
 Symbolic Z-matrix:
 Charge =  0 Multiplicity = 1

                         Standard orientation:
 ---------------------------------------------------------------------
 Center     Atomic      Atomic             Coordinates (Angstroms)
 Number     Number       Type             X           Y           Z
 ---------------------------------------------------------------------
      1          6           0        1.906001    2.474237   -0.468530
      2          6           0        1.732782    1.865474    0.778837
      3          6           0        2.426075    0.694655    1.099891
      4          6           0        3.288462    0.157330    0.145500
      5          6           0        3.482350    0.740360   -1.105809
      6          6           0        2.778693    1.910730   -1.405220
      7          1           0        1.363408    3.383583   -0.709526
      8          1           0        1.055695    2.300871    1.508239
      9          1           0        2.310776    0.202640    2.058037
     10          1           0        4.164223    0.282837   -1.812307
     11          1           0        2.915187    2.381330   -2.374731
     12          7           0        4.027906   -1.081926    0.473930
     13          8           0        4.781828   -1.535472   -0.384286
     14          8           0        3.839559   -1.576244    1.583350
     15          6           0       -1.176808   -1.798727   -0.675562
     16          6           0       -2.463923   -2.346138   -0.689616
     17          6           0       -3.573716   -1.559209   -0.367670
     18          6           0       -3.358958   -0.222636   -0.034893
     19          6           0       -2.089006    0.351809   -0.011917
     20          6           0       -0.993781   -0.453871   -0.337353
     21          1           0       -0.320353   -2.417315   -0.927013
     22          1           0       -2.609062   -3.390262   -0.951886
     23          1           0       -4.581128   -1.957369   -0.370631
     24          1           0       -1.975904    1.395898    0.253610
     25          1           0        0.004660   -0.026057   -0.325608
     26          7           0       -4.526135    0.620376    0.307784
     27          8           0       -4.310269    1.795151    0.597513
     28          8           0       -5.634733    0.090391    0.280157
 ---------------------------------------------------------------------

 SCF Done:  E(RHF) =  -868.337557332     A.U. after   16 cycles
 E2 =    -0.2601947313D+01 EUMP2 =    -0.87093950464516D+03

 The electronic state is 1-A.
 Alpha  occ. eigenvalues --  -20.61712 -20.61706 -20.60991 -20.60971 -15.86770
 Alpha  occ. eigenvalues --  -15.86031 -11.32290 -11.31328 -11.28836 -11.28832
 Alpha  occ. eigenvalues --  -11.28558 -11.27898 -11.27839 -11.27836 -11.27822
 Alpha  occ. eigenvalues --  -11.27497 -11.26827 -11.26676  -1.60791  -1.60059
 Alpha  occ. eigenvalues --   -1.40336  -1.39616  -1.20494  -1.19457  -1.09826
 Alpha  occ. eigenvalues --   -1.08852  -1.05881  -1.04842  -0.96625  -0.95714
 Alpha  occ. eigenvalues --   -0.87233  -0.86243  -0.83432  -0.82550  -0.78472
 Alpha  occ. eigenvalues --   -0.77632  -0.72969  -0.72252  -0.72135  -0.71488
 Alpha  occ. eigenvalues --   -0.71381  -0.70556  -0.66081  -0.65802  -0.65097
 Alpha  occ. eigenvalues --   -0.64875  -0.63165  -0.62263  -0.56291  -0.55376
 Alpha  occ. eigenvalues --   -0.54377  -0.53893  -0.53184  -0.52642  -0.49746
 Alpha  occ. eigenvalues --   -0.49723  -0.49018  -0.48989  -0.45704  -0.45039
 Alpha  occ. eigenvalues --   -0.38484  -0.37579  -0.37348  -0.36413
 Alpha virt. eigenvalues --    0.04016   0.04905   0.10046   0.11211   0.15454
 Alpha virt. eigenvalues --    0.16479   0.20181   0.21690   0.25806   0.27297
 Alpha virt. eigenvalues --    0.27816   0.28491   0.30175   0.31246   0.31570

 Mulliken charges:
               1
     1  C   -0.173327
     2  C   -0.231892
     3  C   -0.178251
     4  C    0.157379
     5  C   -0.172394
     6  C   -0.217640
     7  H    0.232536
     8  H    0.230530
     9  H    0.280553
    10  H    0.278996
    11  H    0.228888
    12  N    0.487381
    13  O   -0.458008
    14  O   -0.457668
    15  C   -0.173382
    16  C   -0.217825
    17  C   -0.171938
    18  C    0.159652
    19  C   -0.177334
    20  C   -0.226368
    21  H    0.229348
    22  H    0.224932
    23  H    0.275724
    24  H    0.266165
    25  H    0.238653
    26  N    0.488268
    27  O   -0.463832
    28  O   -0.459146
 Sum of Mulliken charges =  -0.00000

 Dipole moment (field-independent basis, Debye):
    X=              1.8341    Y=              1.3952    Z=             -2.4095  Tot=              3.3342
 Quadrupole moment (field-independent basis, Debye-Ang):
   XX=           -147.4348   YY=            -99.4226   ZZ=           -101.5983
   XY=             26.3594   XZ=             -2.0684   YZ=              1.2999

 Normal termination of Gaussian 16 at Thu May  6 22:37:19 2021.
