 Gaussian 16, Revision A.03,
 Gaussian 16:  EM64L-G16RevA.03 25-Dec-2016

 -------------
 #p 6-31g* mp2
 -------------

 ------------------------------------------------------
 Input file generated by CHIRIPA (05-May-2021 14:57:21)
 ------------------------------------------------------
 Symbolic Z-matrix:
 Charge =  0 Multiplicity = 1

                         Standard orientation:
 ---------------------------------------------------------------------
 Center     Atomic      Atomic             Coordinates (Angstroms)
 Number     Number       Type             X           Y           Z
 ---------------------------------------------------------------------
      1          6           0        0.610676   -1.955802    1.206762
      2          6           0        1.148836   -2.238532   -0.052987
      3          6           0        2.158258   -1.434419   -0.590592
      4          6           0        2.607934   -0.350748    0.162228
      5          6           0        2.091823   -0.043211    1.420139
      6          6           0        1.083054   -0.860974    1.938015
      7          1           0       -0.173214   -2.585758    1.616724
      8          1           0        0.783920   -3.088130   -0.623131
      9          1           0        2.592595   -1.630493   -1.563384
     10          1           0        2.476023    0.810663    1.964850
     11          1           0        0.666968   -0.639011    2.916611
     12          7           0        3.676218    0.507755   -0.396468
     13          8           0        4.055132    1.456602    0.286724
     14          8           0        4.114396    0.215548   -1.506986
     15          6           0       -3.661189   -1.703074   -0.442170
     16          6           0       -4.259506   -0.619229    0.208845
     17          6           0       -3.587666    0.601866    0.318870
     18          6           0       -2.313021    0.704475   -0.236146
     19          6           0       -1.690292   -0.357102   -0.890786
     20          6           0       -2.380749   -1.568788   -0.988943
     21          1           0       -4.190321   -2.647995   -0.523030
     22          1           0       -5.253812   -0.720634    0.634424
     23          1           0       -4.027381    1.457076    0.817552
     24          1           0       -0.698056   -0.225626   -1.305034
     25          1           0       -1.913626   -2.408825   -1.495085
     26          7           0       -1.591920    1.992213   -0.125949
     27          8           0       -0.469853    2.056953   -0.623355
     28          8           0       -2.162441    2.912417    0.455742
 ---------------------------------------------------------------------

 SCF Done:  E(RHF) =  -868.335501870     A.U. after   16 cycles
 E2 =    -0.2604683080D+01 EUMP2 =    -0.87094018495026D+03

 The electronic state is 1-A.
 Alpha  occ. eigenvalues --  -20.61042 -20.61026 -20.60486 -20.60453 -15.86090
 Alpha  occ. eigenvalues --  -15.85542 -11.31528 -11.31146 -11.28188 -11.28111
 Alpha  occ. eigenvalues --  -11.28004 -11.27863 -11.27728 -11.27606 -11.27228
 Alpha  occ. eigenvalues --  -11.27186 -11.26937 -11.26765  -1.60109  -1.59534
 Alpha  occ. eigenvalues --   -1.39659  -1.39086  -1.19786  -1.19381  -1.09159
 Alpha  occ. eigenvalues --   -1.08735  -1.05215  -1.04833  -0.95963  -0.95515
 Alpha  occ. eigenvalues --   -0.86596  -0.86225  -0.82797  -0.82360  -0.77824
 Alpha  occ. eigenvalues --   -0.77347  -0.72309  -0.71768  -0.71446  -0.70907
 Alpha  occ. eigenvalues --   -0.70826  -0.70488  -0.65435  -0.65275  -0.65033
 Alpha  occ. eigenvalues --   -0.64826  -0.62579  -0.62161  -0.55737  -0.55341
 Alpha  occ. eigenvalues --   -0.53882  -0.53375  -0.52926  -0.52696  -0.49074
 Alpha  occ. eigenvalues --   -0.49052  -0.48544  -0.48496  -0.45039  -0.44445
 Alpha  occ. eigenvalues --   -0.37995  -0.37772  -0.36575  -0.36014
 Alpha virt. eigenvalues --    0.04618   0.05278   0.10730   0.11198   0.16147
 Alpha virt. eigenvalues --    0.16584   0.20002   0.21834   0.25502   0.27820
 Alpha virt. eigenvalues --    0.28213   0.28373   0.29680   0.31605   0.32119

 Mulliken charges:
               1
     1  C   -0.164637
     2  C   -0.229790
     3  C   -0.177380
     4  C    0.166874
     5  C   -0.160254
     6  C   -0.222483
     7  H    0.223772
     8  H    0.215819
     9  H    0.275340
    10  H    0.280742
    11  H    0.224914
    12  N    0.489594
    13  O   -0.455442
    14  O   -0.462502
    15  C   -0.172412
    16  C   -0.220686
    17  C   -0.171122
    18  C    0.154715
    19  C   -0.161963
    20  C   -0.226192
    21  H    0.224964
    22  H    0.223906
    23  H    0.276505
    24  H    0.280941
    25  H    0.217116
    26  N    0.487534
    27  O   -0.457441
    28  O   -0.460430
 Sum of Mulliken charges =  -0.00000

 Dipole moment (field-independent basis, Debye):
    X=             -6.0774    Y=             -7.2055    Z=              1.7191  Tot=              9.5817
 Quadrupole moment (field-independent basis, Debye-Ang):
   XX=           -110.5592   YY=           -108.3081   ZZ=           -100.1905
   XY=              0.6297   XZ=              3.9139   YZ=              3.3303

 Normal termination of Gaussian 16 at Thu May  6 04:56:55 2021.
