 Gaussian 16, Revision A.03,
 Gaussian 16:  EM64L-G16RevA.03 25-Dec-2016

 -------------
 #p 6-31g* mp2
 -------------

 ------------------------------------------------------
 Input file generated by CHIRIPA (05-May-2021 14:57:26)
 ------------------------------------------------------
 Symbolic Z-matrix:
 Charge =  0 Multiplicity = 1

                         Standard orientation:
 ---------------------------------------------------------------------
 Center     Atomic      Atomic             Coordinates (Angstroms)
 Number     Number       Type             X           Y           Z
 ---------------------------------------------------------------------
      1          6           0        1.144972    1.417766   -0.678754
      2          6           0        2.416431    1.936079   -0.945710
      3          6           0        3.560651    1.170301   -0.703032
      4          6           0        3.395908   -0.115679   -0.190776
      5          6           0        2.142711   -0.660151    0.085516
      6          6           0        1.012404    0.123587   -0.164899
      7          1           0        0.261518    2.019617   -0.870276
      8          1           0        2.522406    2.940837   -1.344803
      9          1           0        4.556962    1.546797   -0.900597
     10          1           0        2.068901   -1.665100    0.483069
     11          1           0        0.026229   -0.281537    0.043377
     12          7           0        4.599878   -0.935881    0.070231
     13          8           0        4.427865   -2.065997    0.521768
     14          8           0        5.692765   -0.433108   -0.181671
     15          6           0       -1.780487    1.414330    1.751089
     16          6           0       -2.423997    1.985507    0.648286
     17          6           0       -3.211612    1.200644   -0.199182
     18          6           0       -3.334469   -0.158118    0.087106
     19          6           0       -2.705888   -0.756513    1.178023
     20          6           0       -1.923235    0.047553    2.011978
     21          1           0       -1.170576    2.031489    2.404173
     22          1           0       -2.314928    3.046688    0.443239
     23          1           0       -3.720881    1.616961   -1.059846
     24          1           0       -2.833487   -1.817267    1.356737
     25          1           0       -1.424639   -0.398742    2.867704
     26          7           0       -4.165655   -0.999182   -0.802916
     27          8           0       -4.257958   -2.193791   -0.529009
     28          8           0       -4.709097   -0.447872   -1.757571
 ---------------------------------------------------------------------

 SCF Done:  E(RHF) =  -868.336230516     A.U. after   16 cycles
 E2 =    -0.2603680345D+01 EUMP2 =    -0.87093991086026D+03

 The electronic state is 1-A.
 Alpha  occ. eigenvalues --  -20.61722 -20.61714 -20.60962 -20.60957 -15.86787
 Alpha  occ. eigenvalues --  -15.86013 -11.32445 -11.31396 -11.29060 -11.28997
 Alpha  occ. eigenvalues --  -11.28734 -11.28080 -11.27969 -11.27949 -11.27911
 Alpha  occ. eigenvalues --  -11.27631 -11.26997 -11.26784  -1.60794  -1.60037
 Alpha  occ. eigenvalues --   -1.40337  -1.39591  -1.20670  -1.19549  -1.09972
 Alpha  occ. eigenvalues --   -1.08936  -1.06087  -1.04944  -0.96742  -0.95780
 Alpha  occ. eigenvalues --   -0.87426  -0.86342  -0.83558  -0.82608  -0.78575
 Alpha  occ. eigenvalues --   -0.77664  -0.72987  -0.72231  -0.72130  -0.71646
 Alpha  occ. eigenvalues --   -0.71362  -0.70678  -0.66252  -0.66008  -0.65191
 Alpha  occ. eigenvalues --   -0.65006  -0.63369  -0.62345  -0.56467  -0.55465
 Alpha  occ. eigenvalues --   -0.54578  -0.54097  -0.53285  -0.52769  -0.49772
 Alpha  occ. eigenvalues --   -0.49732  -0.48990  -0.48982  -0.45679  -0.44993
 Alpha  occ. eigenvalues --   -0.38811  -0.37736  -0.37401  -0.36455
 Alpha virt. eigenvalues --    0.03887   0.04860   0.09768   0.11155   0.15271
 Alpha virt. eigenvalues --    0.16406   0.20066   0.21677   0.25711   0.27273
 Alpha virt. eigenvalues --    0.27418   0.28439   0.29831   0.31091   0.31808

 Mulliken charges:
               1
     1  C   -0.176697
     2  C   -0.218760
     3  C   -0.171876
     4  C    0.159257
     5  C   -0.176381
     6  C   -0.223142
     7  H    0.222597
     8  H    0.222010
     9  H    0.275550
    10  H    0.274416
    11  H    0.234515
    12  N    0.487973
    13  O   -0.460366
    14  O   -0.460089
    15  C   -0.167333
    16  C   -0.228424
    17  C   -0.172226
    18  C    0.160552
    19  C   -0.178775
    20  C   -0.227039
    21  H    0.232652
    22  H    0.225874
    23  H    0.279648
    24  H    0.280863
    25  H    0.230685
    26  N    0.488188
    27  O   -0.456461
    28  O   -0.457213
 Sum of Mulliken charges =  -0.00000

 Dipole moment (field-independent basis, Debye):
    X=             -1.6623    Y=              5.7881    Z=              2.3303  Tot=              6.4572
 Quadrupole moment (field-independent basis, Debye-Ang):
   XX=           -151.7963   YY=           -100.8865   ZZ=           -102.6412
   XY=              1.5521   XZ=            -13.0793   YZ=             -4.5544

 Normal termination of Gaussian 16 at Wed May  5 19:37:40 2021.
