 Gaussian 16, Revision A.03,
 Gaussian 16:  EM64L-G16RevA.03 25-Dec-2016

 -------------
 #p 6-31g* mp2
 -------------

 ------------------------------------------------------
 Input file generated by CHIRIPA (05-May-2021 14:53:12)
 ------------------------------------------------------
 Symbolic Z-matrix:
 Charge =  0 Multiplicity = 1

                         Standard orientation:
 ---------------------------------------------------------------------
 Center     Atomic      Atomic             Coordinates (Angstroms)
 Number     Number       Type             X           Y           Z
 ---------------------------------------------------------------------
      1          6           0        3.436035    0.040467   -0.102648
      2          6           0        2.538566   -0.854149    0.753037
      3          6           0        1.050344   -0.627666    0.485275
      4          1           0        3.183564    1.092447    0.088511
      5          1           0        3.221215   -0.144605   -1.164249
      6          1           0        2.755992   -0.668444    1.812686
      7          1           0        2.793334   -1.904116    0.559961
      8          1           0        0.812160   -0.832066   -0.563576
      9          1           0        0.774606    0.410627    0.696267
     10          1           0        0.427046   -1.277375    1.107560
     11          6           0        4.926642   -0.174318    0.153647
     12          6           0        5.824111    0.720297   -0.702038
     13          6           0        7.312333    0.493814   -0.434277
     14          1           0        5.141462    0.010754    1.215247
     15          1           0        5.179113   -1.226298   -0.037513
     16          1           0        5.569344    1.770264   -0.508962
     17          1           0        5.606686    0.534592   -1.761687
     18          1           0        7.588072   -0.544478   -0.645268
     19          1           0        7.550517    0.698215    0.614575
     20          1           0        7.935631    1.143523   -1.056562
     21          6           0       -3.610250    2.546915    0.137255
     22          6           0       -2.739052    1.903163    1.022195
     23          6           0       -2.540992    0.521405    0.944308
     24          6           0       -3.233455   -0.188886   -0.035117
     25          6           0       -4.108119    0.423736   -0.931189
     26          6           0       -4.290803    1.806452   -0.834899
     27          1           0       -3.758135    3.620669    0.204907
     28          1           0       -2.209192    2.475677    1.778185
     29          1           0       -1.872424   -0.002345    1.616706
     30          1           0       -4.622266   -0.173726   -1.674231
     31          1           0       -4.968003    2.303738   -1.523487
     32          7           0       -3.031917   -1.652198   -0.127314
     33          8           0       -3.653835   -2.255380   -0.999109
     34          8           0       -2.255850   -2.168252    0.673964
 ---------------------------------------------------------------------

 SCF Done:  E(RHF) =  -669.535673288     A.U. after   15 cycles
 E2 =    -0.2091925100D+01 EUMP2 =    -0.67162759838826D+03

 The electronic state is 1-A.
 Alpha  occ. eigenvalues --  -20.60808 -20.60800 -15.85842 -11.31156 -11.27744
 Alpha  occ. eigenvalues --  -11.27706 -11.27487 -11.26747 -11.26734 -11.21525
 Alpha  occ. eigenvalues --  -11.21342 -11.21267 -11.21200 -11.21005 -11.20693
 Alpha  occ. eigenvalues --   -1.59868  -1.39426  -1.19338  -1.08744  -1.08277
 Alpha  occ. eigenvalues --   -1.04738  -1.03354  -0.95820  -0.95571  -0.86837
 Alpha  occ. eigenvalues --   -0.86129  -0.82424  -0.79438  -0.78099  -0.77460
 Alpha  occ. eigenvalues --   -0.72074  -0.71181  -0.70455  -0.65000  -0.64914
 Alpha  occ. eigenvalues --   -0.64745  -0.62104  -0.60755  -0.59145  -0.57402
 Alpha  occ. eigenvalues --   -0.55272  -0.55092  -0.53089  -0.52896  -0.52392
 Alpha  occ. eigenvalues --   -0.52214  -0.49762  -0.48821  -0.48819  -0.47730
 Alpha  occ. eigenvalues --   -0.46471  -0.45637  -0.45566  -0.44858  -0.43529
 Alpha  occ. eigenvalues --   -0.37320  -0.36318
 Alpha virt. eigenvalues --    0.05030   0.11283   0.16503   0.21205   0.23016
 Alpha virt. eigenvalues --    0.24375   0.26639   0.26918   0.27606   0.27832
 Alpha virt. eigenvalues --    0.29166   0.30160   0.31607   0.31747   0.31985

 Mulliken charges:
               1
     1  C   -0.297834
     2  C   -0.300196
     3  C   -0.485186
     4  H    0.146089
     5  H    0.150190
     6  H    0.148960
     7  H    0.155808
     8  H    0.157539
     9  H    0.142444
    10  H    0.179827
    11  C   -0.298117
    12  C   -0.299346
    13  C   -0.475601
    14  H    0.148590
    15  H    0.150910
    16  H    0.150376
    17  H    0.152141
    18  H    0.155831
    19  H    0.154734
    20  H    0.159652
    21  C   -0.170284
    22  C   -0.220948
    23  C   -0.165962
    24  C    0.156540
    25  C   -0.170805
    26  C   -0.218848
    27  H    0.225456
    28  H    0.223325
    29  H    0.278272
    30  H    0.275378
    31  H    0.223255
    32  N    0.489350
    33  O   -0.460117
    34  O   -0.461424
 Sum of Mulliken charges =  -0.00000

 Dipole moment (field-independent basis, Debye):
    X=             -0.7929    Y=              5.0339    Z=              0.3167  Tot=              5.1058
 Quadrupole moment (field-independent basis, Debye-Ang):
   XX=            -90.1335   YY=            -96.7152   ZZ=            -91.7035
   XY=            -16.7642   XZ=              1.6970   YZ=              0.4368

 Normal termination of Gaussian 16 at Thu May  6 13:40:23 2021.
