 Gaussian 16, Revision A.03,
 Gaussian 16:  EM64L-G16RevA.03 25-Dec-2016

 -------------
 #p 6-31g* mp2
 -------------

 ------------------------------------------------------
 Input file generated by CHIRIPA (05-May-2021 14:57:25)
 ------------------------------------------------------
 Symbolic Z-matrix:
 Charge =  0 Multiplicity = 1

                         Standard orientation:
 ---------------------------------------------------------------------
 Center     Atomic      Atomic             Coordinates (Angstroms)
 Number     Number       Type             X           Y           Z
 ---------------------------------------------------------------------
      1          6           0        2.280831    2.319937    0.083588
      2          6           0        2.939149    1.853440   -1.059006
      3          6           0        3.591831    0.617147   -1.047395
      4          6           0        3.566121   -0.130010    0.129204
      5          6           0        2.918901    0.307520    1.283745
      6          6           0        2.272823    1.546851    1.249261
      7          1           0        1.776377    3.281499    0.065684
      8          1           0        2.947009    2.451693   -1.965690
      9          1           0        4.109136    0.231954   -1.917705
     10          1           0        2.928346   -0.311349    2.172750
     11          1           0        1.762367    1.906617    2.138107
     12          7           0        4.253591   -1.440426    0.153603
     13          8           0        4.216352   -2.079676    1.202703
     14          8           0        4.816651   -1.803467   -0.876834
     15          6           0       -1.098795    0.724608   -0.534421
     16          6           0       -2.064078    1.603039   -0.031320
     17          6           0       -3.371499    1.164847    0.199292
     18          6           0       -3.680396   -0.164325   -0.085619
     19          6           0       -2.740943   -1.063648   -0.587552
     20          6           0       -1.439707   -0.603589   -0.810444
     21          1           0       -0.085561    1.073500   -0.710568
     22          1           0       -1.802166    2.635078    0.183959
     23          1           0       -4.138450    1.823616    0.588175
     24          1           0       -3.032010   -2.086728   -0.792502
     25          1           0       -0.692116   -1.288022   -1.201221
     26          7           0       -5.061230   -0.639794    0.154434
     27          8           0       -5.308056   -1.815614   -0.104721
     28          8           0       -5.870556    0.172356    0.597198
 ---------------------------------------------------------------------

 SCF Done:  E(RHF) =  -868.336911660     A.U. after   16 cycles
 E2 =    -0.2601628225D+01 EUMP2 =    -0.87093853988481D+03

 The electronic state is 1-A.
 Alpha  occ. eigenvalues --  -20.61697 -20.61688 -20.60922 -20.60912 -15.86754
 Alpha  occ. eigenvalues --  -15.85978 -11.32366 -11.31370 -11.28936 -11.28889
 Alpha  occ. eigenvalues --  -11.28731 -11.28033 -11.28010 -11.27974 -11.27932
 Alpha  occ. eigenvalues --  -11.27574 -11.27043 -11.26897  -1.60768  -1.59996
 Alpha  occ. eigenvalues --   -1.40312  -1.39548  -1.20575  -1.19557  -1.09945
 Alpha  occ. eigenvalues --   -1.08932  -1.05965  -1.04976  -0.96719  -0.95760
 Alpha  occ. eigenvalues --   -0.87350  -0.86371  -0.83511  -0.82603  -0.78506
 Alpha  occ. eigenvalues --   -0.77654  -0.72960  -0.72193  -0.72103  -0.71666
 Alpha  occ. eigenvalues --   -0.71322  -0.70661  -0.66192  -0.65928  -0.65204
 Alpha  occ. eigenvalues --   -0.65002  -0.63265  -0.62330  -0.56487  -0.55829
 Alpha  occ. eigenvalues --   -0.54020  -0.53959  -0.53285  -0.53068  -0.49741
 Alpha  occ. eigenvalues --   -0.49705  -0.48955  -0.48946  -0.45661  -0.44948
 Alpha  occ. eigenvalues --   -0.38604  -0.37792  -0.37294  -0.36598
 Alpha virt. eigenvalues --    0.03957   0.04888   0.10009   0.11062   0.15317
 Alpha virt. eigenvalues --    0.16393   0.19866   0.21656   0.25990   0.26415
 Alpha virt. eigenvalues --    0.27727   0.28865   0.30022   0.31116   0.31682

 Mulliken charges:
               1
     1  C   -0.189311
     2  C   -0.220653
     3  C   -0.172287
     4  C    0.158224
     5  C   -0.170624
     6  C   -0.214740
     7  H    0.227156
     8  H    0.228071
     9  H    0.279488
    10  H    0.280561
    11  H    0.228727
    12  N    0.487538
    13  O   -0.456383
    14  O   -0.457705
    15  C   -0.176165
    16  C   -0.224421
    17  C   -0.170201
    18  C    0.157626
    19  C   -0.169846
    20  C   -0.222796
    21  H    0.236120
    22  H    0.215053
    23  H    0.274975
    24  H    0.277251
    25  H    0.226468
    26  N    0.488039
    27  O   -0.459142
    28  O   -0.461024
 Sum of Mulliken charges =  -0.00000

 Dipole moment (field-independent basis, Debye):
    X=              2.7815    Y=              6.1227    Z=             -0.8698  Tot=              6.7809
 Quadrupole moment (field-independent basis, Debye-Ang):
   XX=           -157.7481   YY=           -103.1157   ZZ=           -100.1975
   XY=              8.8454   XZ=              0.2409   YZ=              1.6539

 Normal termination of Gaussian 16 at Thu May  6 05:06:20 2021.
