 Gaussian 16, Revision A.03,
 Gaussian 16:  EM64L-G16RevA.03 25-Dec-2016

 -------------
 #p 6-31g* mp2
 -------------

 ------------------------------------------------------
 Input file generated by CHIRIPA (05-May-2021 14:57:22)
 ------------------------------------------------------
 Symbolic Z-matrix:
 Charge =  0 Multiplicity = 1

                         Standard orientation:
 ---------------------------------------------------------------------
 Center     Atomic      Atomic             Coordinates (Angstroms)
 Number     Number       Type             X           Y           Z
 ---------------------------------------------------------------------
      1          6           0       -3.055878    2.517246    0.901243
      2          6           0       -2.729306    2.352839   -0.448883
      3          6           0       -2.549263    1.074380   -0.985238
      4          6           0       -2.704188   -0.022528   -0.139022
      5          6           0       -3.029174    0.108688    1.210221
      6          6           0       -3.204508    1.396622    1.725034
      7          1           0       -3.193911    3.514064    1.309529
      8          1           0       -2.613246    3.221318   -1.091004
      9          1           0       -2.296102    0.918347   -2.026862
     10          1           0       -3.138202   -0.776155    1.825513
     11          1           0       -3.458093    1.521289    2.773937
     12          7           0       -2.516077   -1.380990   -0.695434
     13          8           0       -2.658194   -2.331242    0.071026
     14          8           0       -2.230081   -1.469778   -1.887474
     15          6           0        4.321621    1.698435   -0.442508
     16          6           0        3.221044    1.472965   -1.275824
     17          6           0        2.335482    0.423304   -1.014022
     18          6           0        2.581820   -0.385029    0.094674
     19          6           0        3.669450   -0.185890    0.943611
     20          6           0        4.541923    0.869749    0.662602
     21          1           0        5.004463    2.516158   -0.653342
     22          1           0        3.047472    2.114933   -2.134773
     23          1           0        1.475597    0.226251   -1.642660
     24          1           0        3.816312   -0.842703    1.792403
     25          1           0        5.395822    1.042492    1.311494
     26          7           0        1.651244   -1.499422    0.381998
     27          8           0        1.890357   -2.197323    1.365052
     28          8           0        0.700366   -1.653881   -0.381291
 ---------------------------------------------------------------------

 SCF Done:  E(RHF) =  -868.336379572     A.U. after   16 cycles
 E2 =    -0.2601656429D+01 EUMP2 =    -0.87093803600051D+03

 The electronic state is 1-A.
 Alpha  occ. eigenvalues --  -20.60451 -20.60439 -20.59574 -20.59524 -15.85507
 Alpha  occ. eigenvalues --  -15.84632 -11.31047 -11.30493 -11.27646 -11.27631
 Alpha  occ. eigenvalues --  -11.27433 -11.27166 -11.27067 -11.26969 -11.26707
 Alpha  occ. eigenvalues --  -11.26695 -11.26308 -11.26231  -1.59522  -1.58574
 Alpha  occ. eigenvalues --   -1.39073  -1.38141  -1.19243  -1.18710  -1.08607
 Alpha  occ. eigenvalues --   -1.08007  -1.04674  -1.04201  -0.95409  -0.94767
 Alpha  occ. eigenvalues --   -0.86063  -0.85571  -0.82244  -0.81621  -0.77263
 Alpha  occ. eigenvalues --   -0.76569  -0.71843  -0.70894  -0.70876  -0.70363
 Alpha  occ. eigenvalues --   -0.69830  -0.69667  -0.64886  -0.64680  -0.64362
 Alpha  occ. eigenvalues --   -0.64220  -0.62016  -0.61548  -0.55173  -0.54693
 Alpha  occ. eigenvalues --   -0.52995  -0.52772  -0.52490  -0.52307  -0.48486
 Alpha  occ. eigenvalues --   -0.48455  -0.47639  -0.47585  -0.44452  -0.43437
 Alpha  occ. eigenvalues --   -0.37241  -0.36703  -0.36289  -0.35835
 Alpha virt. eigenvalues --    0.05234   0.06051   0.11356   0.11807   0.16717
 Alpha virt. eigenvalues --    0.17419   0.21402   0.21889   0.27173   0.27714
 Alpha virt. eigenvalues --    0.28256   0.28929   0.30766   0.31458   0.32404

 Mulliken charges:
               1
     1  C   -0.173009
     2  C   -0.219207
     3  C   -0.174786
     4  C    0.164894
     5  C   -0.170595
     6  C   -0.218845
     7  H    0.221833
     8  H    0.218153
     9  H    0.271180
    10  H    0.278020
    11  H    0.221538
    12  N    0.498073
    13  O   -0.454304
    14  O   -0.463532
    15  C   -0.171421
    16  C   -0.218976
    17  C   -0.171708
    18  C    0.157996
    19  C   -0.171218
    20  C   -0.218780
    21  H    0.224344
    22  H    0.221509
    23  H    0.277922
    24  H    0.275592
    25  H    0.222644
    26  N    0.489760
    27  O   -0.459371
    28  O   -0.457709
 Sum of Mulliken charges =  -0.00000

 Dipole moment (field-independent basis, Debye):
    X=              2.6638    Y=              8.3214    Z=              0.9814  Tot=              8.7923
 Quadrupole moment (field-independent basis, Debye-Ang):
   XX=            -84.5841   YY=           -108.4037   ZZ=            -98.9354
   XY=             -3.7836   XZ=             -6.2159   YZ=             -3.1570

 Normal termination of Gaussian 16 at Thu May  6 11:16:12 2021.
