 Gaussian 16, Revision A.03,
 Gaussian 16:  EM64L-G16RevA.03 25-Dec-2016

 -------------
 #p 6-31g* mp2
 -------------

 ------------------------------------------------------
 Input file generated by CHIRIPA (05-May-2021 14:51:10)
 ------------------------------------------------------
 Symbolic Z-matrix:
 Charge =  0 Multiplicity = 1

                         Standard orientation:
 ---------------------------------------------------------------------
 Center     Atomic      Atomic             Coordinates (Angstroms)
 Number     Number       Type             X           Y           Z
 ---------------------------------------------------------------------
      1          6           0       -2.817040   -0.476980   -0.444174
      2          6           0       -4.070923    0.153089    0.163094
      3          6           0       -4.744419    1.153379   -0.776915
      4          1           0       -2.105532    0.317787   -0.706940
      5          1           0       -3.085801   -0.979121   -1.383864
      6          1           0       -3.800129    0.652711    1.102064
      7          1           0       -4.779450   -0.643283    0.424622
      8          1           0       -5.042531    0.664577   -1.710083
      9          1           0       -4.057645    1.967935   -1.028792
     10          1           0       -5.638590    1.591705   -0.322835
     11          6           0       -2.132551   -1.479188    0.483610
     12          6           0       -0.878668   -2.109257   -0.123658
     13          6           0       -0.205172   -3.109547    0.816351
     14          1           0       -1.863790   -0.977047    1.423300
     15          1           0       -2.844059   -2.273955    0.746376
     16          1           0       -0.170141   -1.312885   -0.385186
     17          1           0       -1.149462   -2.608879   -1.062628
     18          1           0       -0.891946   -3.924103    1.068228
     19          1           0        0.092940   -2.620746    1.749519
     20          1           0        0.688998   -3.547874    0.362271
     21          6           0        2.752143    0.424263   -0.466700
     22          6           0        3.979470   -0.272378    0.121811
     23          6           0        4.522773   -1.377899   -0.783971
     24          1           0        1.966673   -0.322070   -0.648272
     25          1           0        3.013891    0.847258   -1.446473
     26          1           0        3.715865   -0.692741    1.100803
     27          1           0        4.762041    0.475729    0.302181
     28          1           0        4.812986   -0.970250   -1.757727
     29          1           0        3.760865   -2.145359   -0.954568
     30          1           0        5.399931   -1.862546   -0.344003
     31          6           0        2.197448    1.531905    0.427263
     32          6           0        0.970121    2.228546   -0.161247
     33          6           0        0.426818    3.334067    0.744535
     34          1           0        1.935699    1.108909    1.407038
     35          1           0        2.982918    2.278238    0.608836
     36          1           0        0.187550    1.480439   -0.341618
     37          1           0        1.233726    2.648908   -1.140238
     38          1           0        1.188726    4.101527    0.915132
     39          1           0        0.136605    2.926419    1.718290
     40          1           0       -0.450339    3.818714    0.304567
 ---------------------------------------------------------------------

 SCF Done:  E(RHF) =  -470.733092162     A.U. after   11 cycles
 E2 =    -0.1584339927D+01 EUMP2 =    -0.47231743208880D+03

 The electronic state is 1-A.
 Alpha  occ. eigenvalues --  -11.21668 -11.21657 -11.21622 -11.21611 -11.21450
 Alpha  occ. eigenvalues --  -11.21441 -11.21388 -11.21369 -11.21151 -11.21139
 Alpha  occ. eigenvalues --  -11.21083 -11.21079  -1.08509  -1.08442  -1.03581
 Alpha  occ. eigenvalues --   -1.03564  -0.96036  -0.96006  -0.87043  -0.87029
 Alpha  occ. eigenvalues --   -0.79669  -0.79613  -0.78413  -0.78171  -0.65390
 Alpha  occ. eigenvalues --   -0.64856  -0.61025  -0.60924  -0.59406  -0.59372
 Alpha  occ. eigenvalues --   -0.57678  -0.57588  -0.55409  -0.55212  -0.52728
 Alpha  occ. eigenvalues --   -0.52702  -0.52471  -0.52419  -0.50024  -0.49909
 Alpha  occ. eigenvalues --   -0.48004  -0.47930  -0.46827  -0.46726  -0.46191
 Alpha  occ. eigenvalues --   -0.45800  -0.45774  -0.45110  -0.43831  -0.43814
 Alpha virt. eigenvalues --    0.19421   0.22141   0.24353   0.24525   0.25436
 Alpha virt. eigenvalues --    0.26621   0.27170   0.27327   0.27703   0.29552
 Alpha virt. eigenvalues --    0.31119   0.31553   0.31585   0.31726   0.32596

 Mulliken charges:
               1
     1  C   -0.304583
     2  C   -0.299376
     3  C   -0.475756
     4  H    0.155070
     5  H    0.149881
     6  H    0.152119
     7  H    0.152012
     8  H    0.155225
     9  H    0.155260
    10  H    0.160372
    11  C   -0.297128
    12  C   -0.310328
    13  C   -0.475657
    14  H    0.149078
    15  H    0.150067
    16  H    0.160285
    17  H    0.152570
    18  H    0.155942
    19  H    0.154849
    20  H    0.160104
    21  C   -0.307065
    22  C   -0.299059
    23  C   -0.475922
    24  H    0.157847
    25  H    0.149732
    26  H    0.152171
    27  H    0.151920
    28  H    0.155224
    29  H    0.155215
    30  H    0.160373
    31  C   -0.297438
    32  C   -0.308302
    33  C   -0.475363
    34  H    0.149056
    35  H    0.150112
    36  H    0.158197
    37  H    0.152540
    38  H    0.155783
    39  H    0.154906
    40  H    0.160068
 Sum of Mulliken charges =  -0.00000

 Dipole moment (field-independent basis, Debye):
    X=             -0.0032    Y=             -0.0019    Z=             -0.0082  Tot=              0.0090
 Quadrupole moment (field-independent basis, Debye-Ang):
   XX=            -84.6545   YY=            -84.9577   ZZ=            -85.0331
   XY=              1.7511   XZ=             -0.1180   YZ=             -0.0484

 Normal termination of Gaussian 16 at Thu May  6 05:24:12 2021.
