 Gaussian 16, Revision A.03,
 Gaussian 16:  EM64L-G16RevA.03 25-Dec-2016

 -------------
 #p 6-31g* mp2
 -------------

 ------------------------------------------------------
 Input file generated by CHIRIPA (05-May-2021 14:57:24)
 ------------------------------------------------------
 Symbolic Z-matrix:
 Charge =  0 Multiplicity = 1

                         Standard orientation:
 ---------------------------------------------------------------------
 Center     Atomic      Atomic             Coordinates (Angstroms)
 Number     Number       Type             X           Y           Z
 ---------------------------------------------------------------------
      1          6           0        5.243477   -0.046574   -1.782334
      2          6           0        5.647413    0.150908   -0.457812
      3          6           0        4.708758    0.150757    0.578274
      4          6           0        3.368412   -0.050766    0.252464
      5          6           0        2.934766   -0.250263   -1.057285
      6          6           0        3.890828   -0.246178   -2.077323
      7          1           0        5.979408   -0.044929   -2.580957
      8          1           0        6.697220    0.306168   -0.225769
      9          1           0        4.993946    0.301224    1.612414
     10          1           0        1.881120   -0.402447   -1.257504
     11          1           0        3.574241   -0.399798   -3.105048
     12          7           0        2.365486   -0.053009    1.340827
     13          8           0        1.190673   -0.232735    1.027537
     14          8           0        2.773196    0.125003    2.486568
     15          6           0       -3.726994   -2.464429   -0.008192
     16          6           0       -2.781342   -1.814180    0.791456
     17          6           0       -2.665405   -0.421222    0.763601
     18          6           0       -3.515021    0.293521   -0.079362
     19          6           0       -4.467137   -0.325360   -0.887911
     20          6           0       -4.565395   -1.719259   -0.843851
     21          1           0       -3.810191   -3.546877    0.019741
     22          1           0       -2.128907   -2.390329    1.441399
     23          1           0       -1.942084    0.107750    1.372216
     24          1           0       -5.103585    0.275959   -1.525694
     25          1           0       -5.300721   -2.221570   -1.465963
     26          7           0       -3.401640    1.768681   -0.117429
     27          8           0       -4.161914    2.375588   -0.868619
     28          8           0       -2.554646    2.290072    0.604643
 ---------------------------------------------------------------------

 SCF Done:  E(RHF) =  -868.339385645     A.U. after   16 cycles
 E2 =    -0.2598605001D+01 EUMP2 =    -0.87093799064566D+03

 The electronic state is 1-A.
 Alpha  occ. eigenvalues --  -20.61101 -20.61080 -20.60023 -20.59986 -15.86133
 Alpha  occ. eigenvalues --  -15.85055 -11.31342 -11.30325 -11.27894 -11.27891
 Alpha  occ. eigenvalues --  -11.27619 -11.27000 -11.26882 -11.26872 -11.26726
 Alpha  occ. eigenvalues --  -11.26717 -11.26016 -11.25819  -1.60152  -1.59090
 Alpha  occ. eigenvalues --   -1.39712  -1.38639  -1.19501  -1.18522  -1.08927
 Alpha  occ. eigenvalues --   -1.07955  -1.04884  -1.03886  -0.95789  -0.94786
 Alpha  occ. eigenvalues --   -0.86290  -0.85303  -0.82631  -0.81602  -0.77690
 Alpha  occ. eigenvalues --   -0.76639  -0.72377  -0.71452  -0.71275  -0.70614
 Alpha  occ. eigenvalues --   -0.70417  -0.69633  -0.65162  -0.64889  -0.64169
 Alpha  occ. eigenvalues --   -0.63890  -0.62233  -0.61195  -0.55396  -0.54454
 Alpha  occ. eigenvalues --   -0.53218  -0.52977  -0.52267  -0.51963  -0.49128
 Alpha  occ. eigenvalues --   -0.49096  -0.48046  -0.48016  -0.45147  -0.44064
 Alpha  occ. eigenvalues --   -0.37475  -0.36561  -0.36478  -0.35489
 Alpha virt. eigenvalues --    0.04840   0.05854   0.11179   0.12145   0.16357
 Alpha virt. eigenvalues --    0.17335   0.21308   0.22280   0.27237   0.28045
 Alpha virt. eigenvalues --    0.28344   0.29203   0.30892   0.31793   0.32411

 Mulliken charges:
               1
     1  C   -0.170209
     2  C   -0.218589
     3  C   -0.170372
     4  C    0.158397
     5  C   -0.169959
     6  C   -0.218476
     7  H    0.226331
     8  H    0.224101
     9  H    0.275955
    10  H    0.275650
    11  H    0.224193
    12  N    0.491454
    13  O   -0.468804
    14  O   -0.458102
    15  C   -0.172195
    16  C   -0.221315
    17  C   -0.170327
    18  C    0.154745
    19  C   -0.172652
    20  C   -0.220184
    21  H    0.222092
    22  H    0.228179
    23  H    0.293475
    24  H    0.272138
    25  H    0.219276
    26  N    0.487358
    27  O   -0.465882
    28  O   -0.456279
 Sum of Mulliken charges =  -0.00000

 Dipole moment (field-independent basis, Debye):
    X=              3.5355    Y=             -5.1439    Z=             -3.5480  Tot=              7.1796
 Quadrupole moment (field-independent basis, Debye-Ang):
   XX=            -74.4183   YY=           -109.5731   ZZ=           -102.9052
   XY=             18.6504   XZ=             -7.5859   YZ=              1.1343

 Normal termination of Gaussian 16 at Thu May  6 08:14:42 2021.
