 Gaussian 16, Revision A.03,
 Gaussian 16:  EM64L-G16RevA.03 25-Dec-2016

 -------------
 #p 6-31g* mp2
 -------------

 ------------------------------------------------------
 Input file generated by CHIRIPA (05-May-2021 14:53:11)
 ------------------------------------------------------
 Symbolic Z-matrix:
 Charge =  0 Multiplicity = 1

                         Standard orientation:
 ---------------------------------------------------------------------
 Center     Atomic      Atomic             Coordinates (Angstroms)
 Number     Number       Type             X           Y           Z
 ---------------------------------------------------------------------
      1          6           0        4.638120    0.177672   -0.144943
      2          6           0        6.029250   -0.431584   -0.322565
      3          6           0        7.099928    0.617447   -0.624191
      4          1           0        4.367145    0.728827   -1.055847
      5          1           0        4.669677    0.915245    0.668927
      6          1           0        5.994757   -1.168791   -1.134940
      7          1           0        6.296866   -0.981513    0.588794
      8          1           0        7.163563    1.347782    0.188928
      9          1           0        6.859737    1.159440   -1.544600
     10          1           0        8.086602    0.160122   -0.747433
     11          6           0        3.557008   -0.858517    0.157115
     12          6           0        2.165878   -0.249261    0.334737
     13          6           0        1.095201   -1.298292    0.636363
     14          1           0        3.525452   -1.596090   -0.656755
     15          1           0        3.827984   -1.409672    1.068019
     16          1           0        1.898263    0.300668   -0.576622
     17          1           0        2.200372    0.487946    1.147111
     18          1           0        1.335391   -1.840285    1.556771
     19          1           0        1.031566   -2.028627   -0.176756
     20          1           0        0.108527   -0.840967    0.759604
     21          6           0       -2.057541    2.457861    0.498697
     22          6           0       -1.858026    1.355592    1.336383
     23          6           0       -2.486602    0.136193    1.067113
     24          6           0       -3.311789    0.054050   -0.053427
     25          6           0       -3.530476    1.134284   -0.906983
     26          6           0       -2.891658    2.343890   -0.618344
     27          1           0       -1.565269    3.401316    0.715395
     28          1           0       -1.210782    1.441199    2.204595
     29          1           0       -2.349710   -0.733014    1.698902
     30          1           0       -4.181398    1.018337   -1.765049
     31          1           0       -3.048444    3.198263   -1.270655
     32          7           0       -3.982656   -1.231690   -0.348743
     33          8           0       -4.704821   -1.278215   -1.342197
     34          8           0       -3.773614   -2.168581    0.418833
 ---------------------------------------------------------------------

 SCF Done:  E(RHF) =  -669.534835154     A.U. after   15 cycles
 E2 =    -0.2092323750D+01 EUMP2 =    -0.67162715890454D+03

 The electronic state is 1-A.
 Alpha  occ. eigenvalues --  -20.60784 -20.60778 -15.85840 -11.31235 -11.27809
 Alpha  occ. eigenvalues --  -11.27800 -11.27553 -11.26830 -11.26820 -11.21905
 Alpha  occ. eigenvalues --  -11.21796 -11.21641 -11.21579 -11.21264 -11.21192
 Alpha  occ. eigenvalues --   -1.59859  -1.39411  -1.19424  -1.08802  -1.08663
 Alpha  occ. eigenvalues --   -1.04843  -1.03750  -0.96195  -0.95632  -0.87213
 Alpha  occ. eigenvalues --   -0.86218  -0.82468  -0.79821  -0.78480  -0.77509
 Alpha  occ. eigenvalues --   -0.72057  -0.71184  -0.70523  -0.65295  -0.65074
 Alpha  occ. eigenvalues --   -0.64822  -0.62201  -0.61148  -0.59592  -0.57834
 Alpha  occ. eigenvalues --   -0.55470  -0.55317  -0.53458  -0.52926  -0.52723
 Alpha  occ. eigenvalues --   -0.52441  -0.50126  -0.48819  -0.48809  -0.48132
 Alpha  occ. eigenvalues --   -0.46858  -0.46018  -0.45949  -0.44812  -0.44022
 Alpha  occ. eigenvalues --   -0.37395  -0.36350
 Alpha virt. eigenvalues --    0.04998   0.11173   0.16412   0.21076   0.22699
 Alpha virt. eigenvalues --    0.24160   0.26327   0.26817   0.27232   0.28059
 Alpha virt. eigenvalues --    0.28574   0.30559   0.31231   0.31637   0.32091

 Mulliken charges:
               1
     1  C   -0.298081
     2  C   -0.299840
     3  C   -0.475753
     4  H    0.149256
     5  H    0.147668
     6  H    0.153116
     7  H    0.152373
     8  H    0.154494
     9  H    0.155059
    10  H    0.161117
    11  C   -0.298488
    12  C   -0.297781
    13  C   -0.483473
    14  H    0.151880
    15  H    0.150090
    16  H    0.152341
    17  H    0.144870
    18  H    0.153883
    19  H    0.160479
    20  H    0.161908
    21  C   -0.170713
    22  C   -0.216634
    23  C   -0.173443
    24  C    0.158989
    25  C   -0.171191
    26  C   -0.218474
    27  H    0.226130
    28  H    0.225002
    29  H    0.277713
    30  H    0.275881
    31  H    0.223725
    32  N    0.488229
    33  O   -0.460465
    34  O   -0.459864
 Sum of Mulliken charges =  -0.00000

 Dipole moment (field-independent basis, Debye):
    X=              2.3220    Y=              4.5247    Z=              0.9948  Tot=              5.1821
 Quadrupole moment (field-independent basis, Debye-Ang):
   XX=           -110.8378   YY=            -94.2555   ZZ=            -90.9591
   XY=            -16.6793   XZ=             -1.3428   YZ=             -1.7945

 Normal termination of Gaussian 16 at Wed May  5 15:26:38 2021.
