 Gaussian 16, Revision A.03,
 Gaussian 16:  EM64L-G16RevA.03 25-Dec-2016

 -------------
 #p 6-31g* mp2
 -------------

 ------------------------------------------------------
 Input file generated by CHIRIPA (05-May-2021 14:57:21)
 ------------------------------------------------------
 Symbolic Z-matrix:
 Charge =  0 Multiplicity = 1

                         Standard orientation:
 ---------------------------------------------------------------------
 Center     Atomic      Atomic             Coordinates (Angstroms)
 Number     Number       Type             X           Y           Z
 ---------------------------------------------------------------------
      1          6           0        3.294724    2.513321   -0.157389
      2          6           0        3.847048    1.517836   -0.970080
      3          6           0        3.572782    0.168838   -0.726087
      4          6           0        2.738288   -0.150382    0.343963
      5          6           0        2.172862    0.818447    1.171582
      6          6           0        2.460863    2.161071    0.908969
      7          1           0        3.513115    3.558779   -0.354161
      8          1           0        4.494977    1.788463   -1.798931
      9          1           0        3.987022   -0.622125   -1.339439
     10          1           0        1.530578    0.517745    1.990403
     11          1           0        2.030521    2.932051    1.541772
     12          7           0        2.440665   -1.575131    0.612124
     13          8           0        1.702431   -1.830254    1.561103
     14          8           0        2.951256   -2.409749   -0.131748
     15          6           0       -0.835833   -1.419803   -1.179728
     16          6           0       -1.893204   -2.068394   -0.533341
     17          6           0       -2.979618   -1.338584   -0.041781
     18          6           0       -2.976005    0.044665   -0.214696
     19          6           0       -1.937499    0.719761   -0.854258
     20          6           0       -0.861310   -0.030245   -1.337845
     21          1           0        0.004148   -1.994581   -1.558487
     22          1           0       -1.876100   -3.147432   -0.409123
     23          1           0       -3.811415   -1.815210    0.462557
     24          1           0       -1.982807    1.796571   -0.963096
     25          1           0       -0.041526    0.476131   -1.839426
     26          7           0       -4.120730    0.827973    0.301477
     27          8           0       -4.093689    2.045627    0.136484
     28          8           0       -5.023330    0.209442    0.861269
 ---------------------------------------------------------------------

 SCF Done:  E(RHF) =  -868.339322570     A.U. after   16 cycles
 E2 =    -0.2601186956D+01 EUMP2 =    -0.87094050952653D+03

 The electronic state is 1-A.
 Alpha  occ. eigenvalues --  -20.61708 -20.61649 -20.60601 -20.60580 -15.86697
 Alpha  occ. eigenvalues --  -15.85641 -11.31954 -11.30879 -11.28546 -11.28452
 Alpha  occ. eigenvalues --  -11.28205 -11.27509 -11.27474 -11.27426 -11.27363
 Alpha  occ. eigenvalues --  -11.27041 -11.26445 -11.26297  -1.60754  -1.59672
 Alpha  occ. eigenvalues --   -1.40304  -1.39229  -1.20125  -1.19020  -1.09532
 Alpha  occ. eigenvalues --   -1.08424  -1.05490  -1.04403  -0.96381  -0.95289
 Alpha  occ. eigenvalues --   -0.86884  -0.85799  -0.83204  -0.82128  -0.78272
 Alpha  occ. eigenvalues --   -0.77208  -0.72918  -0.72140  -0.71860  -0.71193
 Alpha  occ. eigenvalues --   -0.70995  -0.70046  -0.65757  -0.65462  -0.64666
 Alpha  occ. eigenvalues --   -0.64391  -0.62819  -0.61763  -0.55973  -0.54857
 Alpha  occ. eigenvalues --   -0.53880  -0.53553  -0.52716  -0.52462  -0.49695
 Alpha  occ. eigenvalues --   -0.49674  -0.48626  -0.48605  -0.45726  -0.44664
 Alpha  occ. eigenvalues --   -0.38150  -0.37173  -0.36887  -0.35938
 Alpha virt. eigenvalues --    0.04199   0.05328   0.10493   0.11686   0.15737
 Alpha virt. eigenvalues --    0.16845   0.20802   0.21803   0.26748   0.27606
 Alpha virt. eigenvalues --    0.27667   0.28622   0.30453   0.31348   0.31994

 Mulliken charges:
               1
     1  C   -0.171722
     2  C   -0.220257
     3  C   -0.176655
     4  C    0.155159
     5  C   -0.167928
     6  C   -0.220810
     7  H    0.229007
     8  H    0.225571
     9  H    0.275354
    10  H    0.279823
    11  H    0.228592
    12  N    0.486374
    13  O   -0.454358
    14  O   -0.465348
    15  C   -0.175925
    16  C   -0.212344
    17  C   -0.171715
    18  C    0.157867
    19  C   -0.174232
    20  C   -0.221523
    21  H    0.234476
    22  H    0.228906
    23  H    0.275295
    24  H    0.270985
    25  H    0.221372
    26  N    0.488085
    27  O   -0.464071
    28  O   -0.459977
 Sum of Mulliken charges =  -0.00000

 Dipole moment (field-independent basis, Debye):
    X=              5.2053    Y=              2.1659    Z=             -2.5983  Tot=              6.2078
 Quadrupole moment (field-independent basis, Debye-Ang):
   XX=           -121.9693   YY=           -102.9068   ZZ=           -102.0698
   XY=             24.1858   XZ=             -0.9423   YZ=              2.0773

 Normal termination of Gaussian 16 at Wed May  5 16:13:12 2021.
