 Gaussian 16, Revision A.03,
 Gaussian 16:  EM64L-G16RevA.03 25-Dec-2016

 -------------
 #p 6-31g* mp2
 -------------

 ------------------------------------------------------
 Input file generated by CHIRIPA (05-May-2021 14:51:13)
 ------------------------------------------------------
 Symbolic Z-matrix:
 Charge =  0 Multiplicity = 1

                         Standard orientation:
 ---------------------------------------------------------------------
 Center     Atomic      Atomic             Coordinates (Angstroms)
 Number     Number       Type             X           Y           Z
 ---------------------------------------------------------------------
      1          6           0        3.295996    0.837305   -0.313577
      2          6           0        4.353860    1.481209    0.583248
      3          6           0        4.387606    3.004643    0.457534
      4          1           0        3.490964    1.116218   -1.358153
      5          1           0        2.309580    1.249092   -0.059001
      6          1           0        5.337808    1.067312    0.327998
      7          1           0        4.156464    1.200575    1.625791
      8          1           0        3.419248    3.435384    0.732026
      9          1           0        4.607304    3.301364   -0.573141
     10          1           0        5.150866    3.444272    1.107165
     11          6           0        3.250062   -0.685357   -0.199036
     12          6           0        2.192198   -1.329260   -1.095861
     13          6           0        2.158453   -2.852694   -0.970147
     14          1           0        4.236479   -1.097144   -0.453612
     15          1           0        3.055094   -0.964269    0.845541
     16          1           0        2.389595   -1.048626   -2.138404
     17          1           0        1.208251   -0.915364   -0.840611
     18          1           0        1.938754   -3.149416    0.060528
     19          1           0        3.126811   -3.283435   -1.244639
     20          1           0        1.395193   -3.292323   -1.619778
     21          6           0       -3.085409   -0.756293    0.548532
     22          6           0       -1.579359   -0.940317    0.738101
     23          6           0       -1.219771   -2.306247    1.323527
     24          1           0       -3.588914   -0.886095    1.516303
     25          1           0       -3.464693   -1.549882   -0.110067
     26          1           0       -1.202789   -0.145805    1.395035
     27          1           0       -1.079361   -0.809873   -0.230198
     28          1           0       -1.567995   -3.110406    0.667274
     29          1           0       -1.692125   -2.442565    2.301740
     30          1           0       -0.138314   -2.416439    1.450683
     31          6           0       -3.460650    0.604345   -0.035920
     32          6           0       -4.966699    0.788368   -0.225489
     33          6           0       -5.326287    2.154299   -0.810914
     34          1           0       -3.081365    1.397934    0.622680
     35          1           0       -2.957144    0.734147   -1.003689
     36          1           0       -5.466698    0.657924    0.742811
     37          1           0       -5.343270   -0.006143   -0.882421
     38          1           0       -4.853934    2.290618   -1.789126
     39          1           0       -4.978063    2.958459   -0.154661
     40          1           0       -6.407744    2.264492   -0.938070
 ---------------------------------------------------------------------

 SCF Done:  E(RHF) =  -470.732920992     A.U. after   11 cycles
 E2 =    -0.1583512306D+01 EUMP2 =    -0.47231643329828D+03

 The electronic state is 1-A.
 Alpha  occ. eigenvalues --  -11.21647 -11.21622 -11.21588 -11.21541 -11.21437
 Alpha  occ. eigenvalues --  -11.21385 -11.21377 -11.21326 -11.21098 -11.21086
 Alpha  occ. eigenvalues --  -11.21061 -11.21039  -1.08473  -1.08401  -1.03596
 Alpha  occ. eigenvalues --   -1.03478  -0.96037  -0.95931  -0.87049  -0.86951
 Alpha  occ. eigenvalues --   -0.79709  -0.79507  -0.78322  -0.78178  -0.65172
 Alpha  occ. eigenvalues --   -0.64991  -0.61158  -0.60806  -0.59368  -0.59289
 Alpha  occ. eigenvalues --   -0.57620  -0.57563  -0.55367  -0.55158  -0.52713
 Alpha  occ. eigenvalues --   -0.52646  -0.52443  -0.52355  -0.50036  -0.49835
 Alpha  occ. eigenvalues --   -0.48037  -0.47862  -0.46884  -0.46437  -0.45946
 Alpha  occ. eigenvalues --   -0.45767  -0.45745  -0.45405  -0.43797  -0.43760
 Alpha virt. eigenvalues --    0.20445   0.23081   0.23601   0.25326   0.25718
 Alpha virt. eigenvalues --    0.26349   0.26756   0.27719   0.28356   0.29164
 Alpha virt. eigenvalues --    0.29837   0.30617   0.31444   0.31954   0.32528

 Mulliken charges:
               1
     1  C   -0.298534
     2  C   -0.299638
     3  C   -0.475697
     4  H    0.149546
     5  H    0.149974
     6  H    0.151892
     7  H    0.151858
     8  H    0.155181
     9  H    0.155157
    10  H    0.160180
    11  C   -0.297660
    12  C   -0.308906
    13  C   -0.476416
    14  H    0.149478
    15  H    0.148945
    16  H    0.151576
    17  H    0.160958
    18  H    0.156792
    19  H    0.154897
    20  H    0.159848
    21  C   -0.297605
    22  C   -0.305086
    23  C   -0.478236
    24  H    0.149772
    25  H    0.149726
    26  H    0.151202
    27  H    0.156549
    28  H    0.155801
    29  H    0.155113
    30  H    0.163198
    31  C   -0.298454
    32  C   -0.299669
    33  C   -0.475744
    34  H    0.149399
    35  H    0.149792
    36  H    0.151992
    37  H    0.152020
    38  H    0.155276
    39  H    0.155183
    40  H    0.160338
 Sum of Mulliken charges =  -0.00000

 Dipole moment (field-independent basis, Debye):
    X=             -0.0289    Y=             -0.0037    Z=             -0.0012  Tot=              0.0291
 Quadrupole moment (field-independent basis, Debye-Ang):
   XX=            -84.5701   YY=            -86.7516   ZZ=            -83.5001
   XY=              0.1848   XZ=             -0.7420   YZ=              0.7852

 Normal termination of Gaussian 16 at Wed May  5 15:22:06 2021.
