 Gaussian 16, Revision A.03,
 Gaussian 16:  EM64L-G16RevA.03 25-Dec-2016

 -------------
 #p 6-31g* mp2
 -------------

 ------------------------------------------------------
 Input file generated by CHIRIPA (05-May-2021 14:51:08)
 ------------------------------------------------------
 Symbolic Z-matrix:
 Charge =  0 Multiplicity = 1

                         Standard orientation:
 ---------------------------------------------------------------------
 Center     Atomic      Atomic             Coordinates (Angstroms)
 Number     Number       Type             X           Y           Z
 ---------------------------------------------------------------------
      1          6           0       -2.726744   -0.176567   -0.153387
      2          6           0       -2.879103   -0.991735   -1.438016
      3          6           0       -3.248356   -2.451355   -1.171640
      4          1           0       -1.958001   -0.641188    0.479153
      5          1           0       -3.666719   -0.220285    0.414003
      6          1           0       -1.939575   -0.945352   -2.003482
      7          1           0       -3.647438   -0.525010   -2.067656
      8          1           0       -4.196661   -2.515849   -0.628354
      9          1           0       -2.479095   -2.938579   -0.563815
     10          1           0       -3.352235   -3.015702   -2.103616
     11          6           0       -2.357721    1.284631   -0.403287
     12          6           0       -2.205362    2.099799    0.881342
     13          6           0       -1.836109    3.559419    0.614966
     14          1           0       -1.417746    1.328349   -0.970676
     15          1           0       -3.126464    1.749252   -1.035827
     16          1           0       -1.437028    1.633074    1.510982
     17          1           0       -3.144890    2.053416    1.446808
     18          1           0       -2.605370    4.046643    0.007141
     19          1           0       -0.887804    3.623913    0.071680
     20          1           0       -1.732230    4.123766    1.546943
     21          6           0        2.072345   -1.153223    0.338402
     22          6           0        1.244687   -1.148264    1.624070
     23          6           0        0.309495   -2.353272    1.729739
     24          1           0        1.394812   -1.170273   -0.526239
     25          1           0        2.660615   -2.080186    0.292860
     26          1           0        0.659203   -0.220952    1.667844
     27          1           0        1.924268   -1.131031    2.485748
     28          1           0        0.880768   -3.287037    1.711526
     29          1           0       -0.391485   -2.371787    0.888974
     30          1           0       -0.272579   -2.329684    2.656288
     31          6           0        3.012120    0.045159    0.218272
     32          6           0        3.839778    0.040200   -1.067396
     33          6           0        4.774970    1.245208   -1.173065
     34          1           0        2.423850    0.972122    0.263814
     35          1           0        3.689653    0.062209    1.082913
     36          1           0        3.160197    0.022967   -1.929075
     37          1           0        4.425263   -0.887112   -1.111170
     38          1           0        5.475950    1.263724   -0.332301
     39          1           0        4.203698    2.178973   -1.154852
     40          1           0        5.357044    1.221619   -2.099615
 ---------------------------------------------------------------------

 SCF Done:  E(RHF) =  -470.732867385     A.U. after   11 cycles
 E2 =    -0.1584404680D+01 EUMP2 =    -0.47231727206434D+03

 The electronic state is 1-A.
 Alpha  occ. eigenvalues --  -11.21696 -11.21651 -11.21644 -11.21630 -11.21480
 Alpha  occ. eigenvalues --  -11.21421 -11.21418 -11.21338 -11.21139 -11.21109
 Alpha  occ. eigenvalues --  -11.21108 -11.21085  -1.08523  -1.08442  -1.03611
 Alpha  occ. eigenvalues --   -1.03555  -0.96054  -0.96002  -0.87072  -0.87018
 Alpha  occ. eigenvalues --   -0.79704  -0.79585  -0.78315  -0.78276  -0.65415
 Alpha  occ. eigenvalues --   -0.64866  -0.61111  -0.60867  -0.59419  -0.59369
 Alpha  occ. eigenvalues --   -0.57673  -0.57597  -0.55388  -0.55267  -0.52740
 Alpha  occ. eigenvalues --   -0.52699  -0.52488  -0.52417  -0.50061  -0.49934
 Alpha  occ. eigenvalues --   -0.48030  -0.47926  -0.46879  -0.46461  -0.45988
 Alpha  occ. eigenvalues --   -0.45786  -0.45735  -0.45522  -0.43853  -0.43808
 Alpha virt. eigenvalues --    0.19014   0.22363   0.23566   0.24442   0.25797
 Alpha virt. eigenvalues --    0.26158   0.26976   0.27962   0.28642   0.29513
 Alpha virt. eigenvalues --    0.30224   0.31323   0.31579   0.31753   0.32338

 Mulliken charges:
               1
     1  C   -0.307239
     2  C   -0.299634
     3  C   -0.479747
     4  H    0.159440
     5  H    0.149641
     6  H    0.151000
     7  H    0.152298
     8  H    0.155639
     9  H    0.158560
    10  H    0.160515
    11  C   -0.297415
    12  C   -0.303564
    13  C   -0.475458
    14  H    0.148521
    15  H    0.149886
    16  H    0.154654
    17  H    0.152424
    18  H    0.155457
    19  H    0.154662
    20  H    0.160508
    21  C   -0.298376
    22  C   -0.305018
    23  C   -0.482683
    24  H    0.149205
    25  H    0.150138
    26  H    0.155355
    27  H    0.152938
    28  H    0.156206
    29  H    0.160607
    30  H    0.161075
    31  C   -0.298391
    32  C   -0.299722
    33  C   -0.475743
    34  H    0.149194
    35  H    0.150030
    36  H    0.151862
    37  H    0.152152
    38  H    0.155324
    39  H    0.155228
    40  H    0.160474
 Sum of Mulliken charges =  -0.00000

 Dipole moment (field-independent basis, Debye):
    X=              0.0094    Y=             -0.0166    Z=              0.0241  Tot=              0.0307
 Quadrupole moment (field-independent basis, Debye-Ang):
   XX=            -83.7265   YY=            -86.2500   ZZ=            -84.6039
   XY=             -1.5241   XZ=              0.5370   YZ=             -0.0711

 Normal termination of Gaussian 16 at Wed May  5 19:40:43 2021.
