 Gaussian 16, Revision A.03,
 Gaussian 16:  EM64L-G16RevA.03 25-Dec-2016

 -------------
 #p 6-31g* mp2
 -------------

 ------------------------------------------------------
 Input file generated by CHIRIPA (05-May-2021 14:55:22)
 ------------------------------------------------------
 Symbolic Z-matrix:
 Charge =  0 Multiplicity = 1

                         Standard orientation:
 ---------------------------------------------------------------------
 Center     Atomic      Atomic             Coordinates (Angstroms)
 Number     Number       Type             X           Y           Z
 ---------------------------------------------------------------------
      1          6           0        0.249234   -1.438936    0.422129
      2          6           0        1.210785   -1.450451    1.437910
      3          6           0        2.481648   -0.910627    1.218718
      4          6           0        2.758188   -0.364931   -0.033892
      5          6           0        1.821508   -0.338576   -1.065990
      6          6           0        0.557122   -0.884013   -0.824381
      7          1           0       -0.735487   -1.860464    0.601110
      8          1           0        0.974470   -1.880746    2.406953
      9          1           0        3.244874   -0.906411    1.987409
     10          1           0        2.086526    0.097367   -2.021572
     11          1           0       -0.187657   -0.873694   -1.615103
     12          7           0        4.100165    0.209528   -0.277806
     13          8           0        4.318936    0.684374   -1.390145
     14          8           0        4.907826    0.174065    0.647971
     15          6           0       -3.130577    1.224709    0.397846
     16          6           0       -2.115261    2.173246   -0.240431
     17          6           0       -1.892319    3.441886    0.583366
     18          1           0       -4.085436    1.752554    0.526562
     19          1           0       -2.785356    0.953050    1.405030
     20          1           0       -2.461607    2.441941   -1.246643
     21          1           0       -1.162764    1.643023   -0.367817
     22          1           0       -1.523473    3.191975    1.583415
     23          1           0       -2.829698    3.995432    0.699596
     24          1           0       -1.162922    4.105703    0.108827
     25          6           0       -3.364178   -0.048111   -0.413995
     26          6           0       -4.379494   -0.996648    0.224281
     27          6           0       -4.602436   -2.265289   -0.599515
     28          1           0       -3.709399    0.223548   -1.421179
     29          1           0       -2.409319   -0.575957   -0.542711
     30          1           0       -5.331992   -0.466424    0.351668
     31          1           0       -4.033147   -1.265342    1.230493
     32          1           0       -3.665057   -2.818835   -0.715746
     33          1           0       -4.971282   -2.015377   -1.599565
     34          1           0       -5.331833   -2.929106   -0.124975
 ---------------------------------------------------------------------

 SCF Done:  E(RHF) =  -669.534569055     A.U. after   15 cycles
 E2 =    -0.2093835061D+01 EUMP2 =    -0.67162840411531D+03

 The electronic state is 1-A.
 Alpha  occ. eigenvalues --  -20.60808 -20.60803 -15.85862 -11.31255 -11.27827
 Alpha  occ. eigenvalues --  -11.27823 -11.27562 -11.26843 -11.26826 -11.22582
 Alpha  occ. eigenvalues --  -11.22415 -11.22127 -11.22057 -11.22049 -11.21429
 Alpha  occ. eigenvalues --   -1.59883  -1.39435  -1.19438  -1.09283  -1.08817
 Alpha  occ. eigenvalues --   -1.04843  -1.04264  -0.96729  -0.95657  -0.87736
 Alpha  occ. eigenvalues --   -0.86247  -0.82486  -0.80358  -0.79090  -0.77519
 Alpha  occ. eigenvalues --   -0.72081  -0.71206  -0.70586  -0.65997  -0.65076
 Alpha  occ. eigenvalues --   -0.64781  -0.62184  -0.61669  -0.60105  -0.58324
 Alpha  occ. eigenvalues --   -0.56059  -0.55317  -0.53402  -0.53166  -0.53139
 Alpha  occ. eigenvalues --   -0.52920  -0.50674  -0.48844  -0.48834  -0.48658
 Alpha  occ. eigenvalues --   -0.47418  -0.46585  -0.46504  -0.44835  -0.44540
 Alpha  occ. eigenvalues --   -0.37381  -0.36408
 Alpha virt. eigenvalues --    0.04989   0.11094   0.16407   0.19086   0.22856
 Alpha virt. eigenvalues --    0.23435   0.25444   0.25811   0.27181   0.28019
 Alpha virt. eigenvalues --    0.29568   0.30279   0.31001   0.31305   0.31860

 Mulliken charges:
               1
     1  C   -0.172762
     2  C   -0.219257
     3  C   -0.170554
     4  C    0.158484
     5  C   -0.172089
     6  C   -0.218942
     7  H    0.228638
     8  H    0.223829
     9  H    0.275935
    10  H    0.276317
    11  H    0.227172
    12  N    0.488109
    13  O   -0.460083
    14  O   -0.460184
    15  C   -0.297051
    16  C   -0.306593
    17  C   -0.475789
    18  H    0.152851
    19  H    0.148443
    20  H    0.151133
    21  H    0.156847
    22  H    0.156017
    23  H    0.155499
    24  H    0.163587
    25  C   -0.303905
    26  C   -0.300979
    27  C   -0.475494
    28  H    0.152830
    29  H    0.140464
    30  H    0.157405
    31  H    0.149119
    32  H    0.148056
    33  H    0.158647
    34  H    0.164298
 Sum of Mulliken charges =  -0.00000

 Dipole moment (field-independent basis, Debye):
    X=             -4.7890    Y=             -1.9549    Z=              0.8693  Tot=              5.2451
 Quadrupole moment (field-independent basis, Debye-Ang):
   XX=           -120.0013   YY=            -94.3219   ZZ=            -90.4712
   XY=             -4.9101   XZ=              4.2745   YZ=             -2.2165

 Normal termination of Gaussian 16 at Thu May  6 15:55:21 2021.
