 Gaussian 16, Revision A.03,
 Gaussian 16:  EM64L-G16RevA.03 25-Dec-2016

 -------------
 #p 6-31g* mp2
 -------------

 ------------------------------------------------------
 Input file generated by CHIRIPA (05-May-2021 14:55:24)
 ------------------------------------------------------
 Symbolic Z-matrix:
 Charge =  0 Multiplicity = 1

                         Standard orientation:
 ---------------------------------------------------------------------
 Center     Atomic      Atomic             Coordinates (Angstroms)
 Number     Number       Type             X           Y           Z
 ---------------------------------------------------------------------
      1          6           0       -5.782575    1.415361   -0.278924
      2          6           0       -5.195921    0.768064   -1.371337
      3          6           0       -4.055697   -0.022490   -1.199692
      4          6           0       -3.526089   -0.144391    0.084032
      5          6           0       -4.087619    0.487936    1.192245
      6          6           0       -5.227530    1.273481    0.997131
      7          1           0       -6.668207    2.027537   -0.421378
      8          1           0       -5.624812    0.876450   -2.363481
      9          1           0       -3.581264   -0.534716   -2.027916
     10          1           0       -3.637277    0.360929    2.169220
     11          1           0       -5.681008    1.775016    1.847345
     12          7           0       -2.319151   -0.978663    0.278168
     13          8           0       -1.871817   -1.070049    1.419298
     14          8           0       -1.843340   -1.525383   -0.714474
     15          6           0        4.182048   -0.337170    0.280339
     16          6           0        3.008263   -0.626664   -0.655827
     17          6           0        1.843720   -1.319036    0.052874
     18          1           0        4.529628   -1.279916    0.724594
     19          1           0        3.832590    0.290162    1.112041
     20          1           0        3.360138   -1.252117   -1.486254
     21          1           0        2.663560    0.316856   -1.098053
     22          1           0        1.465146   -0.696554    0.870062
     23          1           0        2.165681   -2.274443    0.479654
     24          1           0        1.015537   -1.516567   -0.634844
     25          6           0        5.353970    0.354814   -0.413551
     26          6           0        6.527756    0.644309    0.522615
     27          6           0        7.692298    1.336681   -0.186085
     28          1           0        5.703429   -0.272517   -1.245253
     29          1           0        5.006391    1.297561   -0.857805
     30          1           0        6.872458   -0.299212    0.964841
     31          1           0        6.175881    1.269762    1.353043
     32          1           0        7.370338    2.292088   -0.612866
     33          1           0        8.070873    0.714199   -1.003273
     34          1           0        8.520482    1.534212    0.501632
 ---------------------------------------------------------------------

 SCF Done:  E(RHF) =  -669.536276072     A.U. after   15 cycles
 E2 =    -0.2091171443D+01 EUMP2 =    -0.67162744751497D+03

 The electronic state is 1-A.
 Alpha  occ. eigenvalues --  -20.60955 -20.60949 -15.85971 -11.31302 -11.27862
 Alpha  occ. eigenvalues --  -11.27859 -11.27600 -11.26869 -11.26860 -11.21012
 Alpha  occ. eigenvalues --  -11.20649 -11.20599 -11.20421 -11.20334 -11.19163
 Alpha  occ. eigenvalues --   -1.59997  -1.39556  -1.19467  -1.08870  -1.07548
 Alpha  occ. eigenvalues --   -1.04863  -1.02533  -0.95713  -0.94937  -0.86264
 Alpha  occ. eigenvalues --   -0.85941  -0.82545  -0.78632  -0.77597  -0.77319
 Alpha  occ. eigenvalues --   -0.72191  -0.71310  -0.70575  -0.65122  -0.64866
 Alpha  occ. eigenvalues --   -0.64196  -0.62210  -0.59949  -0.58388  -0.56538
 Alpha  occ. eigenvalues --   -0.55367  -0.54250  -0.53196  -0.52956  -0.51603
 Alpha  occ. eigenvalues --   -0.51367  -0.49019  -0.48930  -0.48794  -0.46917
 Alpha  occ. eigenvalues --   -0.45711  -0.44985  -0.44831  -0.44767  -0.42718
 Alpha  occ. eigenvalues --   -0.37445  -0.36464
 Alpha virt. eigenvalues --    0.04912   0.11191   0.16403   0.21327   0.23664
 Alpha virt. eigenvalues --    0.25388   0.27244   0.27467   0.28199   0.28305
 Alpha virt. eigenvalues --    0.29172   0.30895   0.32333   0.32428   0.32557

 Mulliken charges:
               1
     1  C   -0.170593
     2  C   -0.218554
     3  C   -0.170780
     4  C    0.158570
     5  C   -0.170799
     6  C   -0.218581
     7  H    0.226005
     8  H    0.223841
     9  H    0.275758
    10  H    0.275871
    11  H    0.223838
    12  N    0.489083
    13  O   -0.458288
    14  O   -0.459672
    15  C   -0.296827
    16  C   -0.300410
    17  C   -0.481251
    18  H    0.148522
    19  H    0.147949
    20  H    0.147652
    21  H    0.146430
    22  H    0.156768
    23  H    0.150036
    24  H    0.181981
    25  C   -0.297153
    26  C   -0.298881
    27  C   -0.475139
    28  H    0.148109
    29  H    0.147399
    30  H    0.151442
    31  H    0.150887
    32  H    0.153912
    33  H    0.154444
    34  H    0.158428
 Sum of Mulliken charges =  -0.00000

 Dipole moment (field-independent basis, Debye):
    X=             -4.6566    Y=              2.8725    Z=             -0.6601  Tot=              5.5110
 Quadrupole moment (field-independent basis, Debye-Ang):
   XX=            -67.4604   YY=            -95.5911   ZZ=            -90.2352
   XY=            -11.0608   XZ=              2.3622   YZ=              1.9625

 Normal termination of Gaussian 16 at Thu May  6 03:09:07 2021.
