 Gaussian 16, Revision A.03,
 Gaussian 16:  EM64L-G16RevA.03 25-Dec-2016

 -------------
 #p 6-31g* mp2
 -------------

 ------------------------------------------------------
 Input file generated by CHIRIPA (05-May-2021 14:55:18)
 ------------------------------------------------------
 Symbolic Z-matrix:
 Charge =  0 Multiplicity = 1

                         Standard orientation:
 ---------------------------------------------------------------------
 Center     Atomic      Atomic             Coordinates (Angstroms)
 Number     Number       Type             X           Y           Z
 ---------------------------------------------------------------------
      1          6           0        1.610621    2.645841   -0.831102
      2          6           0        2.197070    1.673315   -1.647674
      3          6           0        2.627956    0.458112   -1.107149
      4          6           0        2.456148    0.247820    0.260166
      5          6           0        1.875480    1.197106    1.099791
      6          6           0        1.451977    2.405057    0.537612
      7          1           0        1.278766    3.587024   -1.259405
      8          1           0        2.321546    1.857573   -2.710970
      9          1           0        3.085165   -0.312138   -1.716322
     10          1           0        1.764794    0.984575    2.156199
     11          1           0        0.996868    3.158515    1.174182
     12          7           0        2.908400   -1.034823    0.843858
     13          8           0        2.745726   -1.195730    2.051452
     14          8           0        3.416986   -1.854963    0.082710
     15          6           0       -2.292140   -0.629019   -0.308405
     16          6           0       -1.834560   -1.940295   -0.948061
     17          6           0       -0.319004   -2.007775   -1.138673
     18          1           0       -1.962053    0.211541   -0.934062
     19          1           0       -1.793734   -0.509782    0.663588
     20          1           0       -2.334736   -2.057695   -1.917935
     21          1           0       -2.165940   -2.777840   -0.320907
     22          1           0        0.194773   -1.915990   -0.176277
     23          1           0        0.025018   -1.191753   -1.782379
     24          1           0       -0.013778   -2.953449   -1.597365
     25          6           0       -3.804787   -0.546571   -0.111350
     26          6           0       -4.262367    0.764705    0.528306
     27          6           0       -5.777921    0.832185    0.718920
     28          1           0       -4.303192   -0.665809   -1.083342
     29          1           0       -4.134874   -1.387131    0.514308
     30          1           0       -3.930985    1.602251   -0.098847
     31          1           0       -3.762189    0.882105    1.498181
     32          1           0       -6.121945    0.016163    1.362624
     33          1           0       -6.291699    0.740400   -0.243478
     34          1           0       -6.083148    1.777859    1.177612
 ---------------------------------------------------------------------

 SCF Done:  E(RHF) =  -669.535258270     A.U. after   15 cycles
 E2 =    -0.2093067927D+01 EUMP2 =    -0.67162832619685D+03

 The electronic state is 1-A.
 Alpha  occ. eigenvalues --  -20.60781 -20.60766 -15.85813 -11.31151 -11.27752
 Alpha  occ. eigenvalues --  -11.27732 -11.27502 -11.26773 -11.26760 -11.21774
 Alpha  occ. eigenvalues --  -11.21493 -11.21450 -11.21366 -11.21222 -11.20853
 Alpha  occ. eigenvalues --   -1.59849  -1.39401  -1.19350  -1.08751  -1.08460
 Alpha  occ. eigenvalues --   -1.04758  -1.03539  -0.95982  -0.95586  -0.87003
 Alpha  occ. eigenvalues --   -0.86151  -0.82420  -0.79622  -0.78278  -0.77464
 Alpha  occ. eigenvalues --   -0.72042  -0.71184  -0.70466  -0.65091  -0.65008
 Alpha  occ. eigenvalues --   -0.64763  -0.62106  -0.60936  -0.59352  -0.57609
 Alpha  occ. eigenvalues --   -0.55274  -0.55263  -0.53193  -0.52852  -0.52654
 Alpha  occ. eigenvalues --   -0.52319  -0.49931  -0.48801  -0.48796  -0.47917
 Alpha  occ. eigenvalues --   -0.46659  -0.45804  -0.45742  -0.44799  -0.43783
 Alpha  occ. eigenvalues --   -0.37299  -0.36328
 Alpha virt. eigenvalues --    0.05047   0.11264   0.16527   0.21388   0.22812
 Alpha virt. eigenvalues --    0.24234   0.26510   0.27165   0.27328   0.27863
 Alpha virt. eigenvalues --    0.28430   0.30777   0.31294   0.31765   0.32053

 Mulliken charges:
               1
     1  C   -0.170719
     2  C   -0.220010
     3  C   -0.169031
     4  C    0.158977
     5  C   -0.171580
     6  C   -0.217621
     7  H    0.225487
     8  H    0.223310
     9  H    0.276095
    10  H    0.275335
    11  H    0.223519
    12  N    0.489761
    13  O   -0.461229
    14  O   -0.458867
    15  C   -0.297772
    16  C   -0.300350
    17  C   -0.476465
    18  H    0.146703
    19  H    0.149671
    20  H    0.150053
    21  H    0.154526
    22  H    0.156318
    23  H    0.150543
    24  H    0.164952
    25  C   -0.298261
    26  C   -0.298991
    27  C   -0.475586
    28  H    0.149069
    29  H    0.151417
    30  H    0.148693
    31  H    0.150997
    32  H    0.156592
    33  H    0.155279
    34  H    0.159183
 Sum of Mulliken charges =  -0.00000

 Dipole moment (field-independent basis, Debye):
    X=             -1.5375    Y=              4.4582    Z=             -2.0527  Tot=              5.1432
 Quadrupole moment (field-independent basis, Debye-Ang):
   XX=           -104.1459   YY=            -92.3561   ZZ=            -91.1395
   XY=             10.4915   XZ=             -6.9353   YZ=              1.7793

 Normal termination of Gaussian 16 at Wed May  5 22:05:05 2021.
