 Gaussian 16, Revision A.03,
 Gaussian 16:  EM64L-G16RevA.03 25-Dec-2016

 -------------
 #p 6-31g* mp2
 -------------

 ------------------------------------------------------
 Input file generated by CHIRIPA (05-May-2021 14:57:22)
 ------------------------------------------------------
 Symbolic Z-matrix:
 Charge =  0 Multiplicity = 1

                         Standard orientation:
 ---------------------------------------------------------------------
 Center     Atomic      Atomic             Coordinates (Angstroms)
 Number     Number       Type             X           Y           Z
 ---------------------------------------------------------------------
      1          6           0       -1.507872   -1.107376    0.560430
      2          6           0       -2.631184   -1.472844    1.309511
      3          6           0       -3.881544   -0.911239    1.034288
      4          6           0       -3.972853    0.016931   -0.001788
      5          6           0       -2.872205    0.401435   -0.766001
      6          6           0       -1.631749   -0.173050   -0.473113
      7          1           0       -0.540409   -1.548647    0.781091
      8          1           0       -2.537950   -2.198202    2.112759
      9          1           0       -4.767531   -1.176190    1.598421
     10          1           0       -2.996442    1.127161   -1.560548
     11          1           0       -0.761084    0.112662   -1.056513
     12          7           0       -5.291311    0.618294   -0.302505
     13          8           0       -5.345332    1.433773   -1.220499
     14          8           0       -6.245732    0.262778    0.385482
     15          6           0        4.154075    2.504064    0.536686
     16          6           0        2.848318    2.027028    0.381909
     17          6           0        2.615661    0.687030    0.058142
     18          6           0        3.717028   -0.151958   -0.104277
     19          6           0        5.029732    0.293391    0.043247
     20          6           0        5.238702    1.637251    0.367159
     21          1           0        4.325608    3.546506    0.788253
     22          1           0        2.004065    2.697927    0.512966
     23          1           0        1.615151    0.291312   -0.067580
     24          1           0        5.851127   -0.399408   -0.093718
     25          1           0        6.253858    2.004955    0.486743
     26          7           0        3.483263   -1.572597   -0.447112
     27          8           0        4.470622   -2.291473   -0.584867
     28          8           0        2.317105   -1.940320   -0.571579
 ---------------------------------------------------------------------

 SCF Done:  E(RHF) =  -868.338825089     A.U. after   16 cycles
 E2 =    -0.2599791164D+01 EUMP2 =    -0.87093861625309D+03

 The electronic state is 1-A.
 Alpha  occ. eigenvalues --  -20.61863 -20.61794 -20.60694 -20.60686 -15.86865
 Alpha  occ. eigenvalues --  -15.85748 -11.32088 -11.31063 -11.28718 -11.28566
 Alpha  occ. eigenvalues --  -11.28272 -11.27686 -11.27634 -11.27605 -11.27546
 Alpha  occ. eigenvalues --  -11.27243 -11.26666 -11.26561  -1.60885  -1.59771
 Alpha  occ. eigenvalues --   -1.40452  -1.39326  -1.20225  -1.19235  -1.09632
 Alpha  occ. eigenvalues --   -1.08611  -1.05612  -1.04647  -0.96504  -0.95451
 Alpha  occ. eigenvalues --   -0.87017  -0.86035  -0.83347  -0.82298  -0.78439
 Alpha  occ. eigenvalues --   -0.77380  -0.73095  -0.72194  -0.71965  -0.71337
 Alpha  occ. eigenvalues --   -0.71096  -0.70244  -0.65878  -0.65630  -0.64876
 Alpha  occ. eigenvalues --   -0.64659  -0.62974  -0.61983  -0.56080  -0.55022
 Alpha  occ. eigenvalues --   -0.53933  -0.53711  -0.52958  -0.52719  -0.49862
 Alpha  occ. eigenvalues --   -0.49808  -0.48723  -0.48719  -0.45883  -0.44743
 Alpha  occ. eigenvalues --   -0.38166  -0.37211  -0.37162  -0.36269
 Alpha virt. eigenvalues --    0.04080   0.05177   0.10431   0.11310   0.15632
 Alpha virt. eigenvalues --    0.16689   0.18993   0.22004   0.25193   0.27034
 Alpha virt. eigenvalues --    0.28057   0.29026   0.30728   0.31189   0.31644

 Mulliken charges:
               1
     1  C   -0.176209
     2  C   -0.219548
     3  C   -0.170460
     4  C    0.157663
     5  C   -0.171006
     6  C   -0.225763
     7  H    0.242663
     8  H    0.225075
     9  H    0.275372
    10  H    0.274142
    11  H    0.220917
    12  N    0.488140
    13  O   -0.461647
    14  O   -0.460490
    15  C   -0.169786
    16  C   -0.220275
    17  C   -0.176700
    18  C    0.158986
    19  C   -0.169492
    20  C   -0.218101
    21  H    0.229325
    22  H    0.226616
    23  H    0.272045
    24  H    0.277729
    25  H    0.226811
    26  N    0.489801
    27  O   -0.453550
    28  O   -0.472256
 Sum of Mulliken charges =  -0.00000

 Dipole moment (field-independent basis, Debye):
    X=              5.8402    Y=              2.8775    Z=              2.3488  Tot=              6.9213
 Quadrupole moment (field-independent basis, Debye-Ang):
   XX=           -129.0246   YY=           -105.4620   ZZ=           -103.6089
   XY=             28.1004   XZ=             -1.5752   YZ=             -2.9254

 Normal termination of Gaussian 16 at Fri May  7 06:22:02 2021.
