 Gaussian 16, Revision A.03,
 Gaussian 16:  EM64L-G16RevA.03 25-Dec-2016

 -------------
 #p 6-31g* mp2
 -------------

 ------------------------------------------------------
 Input file generated by CHIRIPA (05-May-2021 14:53:14)
 ------------------------------------------------------
 Symbolic Z-matrix:
 Charge =  0 Multiplicity = 1

                         Standard orientation:
 ---------------------------------------------------------------------
 Center     Atomic      Atomic             Coordinates (Angstroms)
 Number     Number       Type             X           Y           Z
 ---------------------------------------------------------------------
      1          6           0       -3.933654    0.128340   -0.225375
      2          6           0       -3.841729   -1.284024   -0.803961
      3          6           0       -5.142240   -1.736346   -1.468694
      4          1           0       -4.752993    0.165686    0.505539
      5          1           0       -4.199143    0.829558   -1.028621
      6          1           0       -3.575136   -1.982168   -0.000133
      7          1           0       -3.022391   -1.318061   -1.533441
      8          1           0       -5.409895   -1.062946   -2.289361
      9          1           0       -5.965781   -1.730827   -0.747341
     10          1           0       -5.054272   -2.748619   -1.875419
     11          6           0       -2.641307    0.594715    0.442503
     12          6           0       -2.733232    2.007079    1.021089
     13          6           0       -1.432722    2.459401    1.685823
     14          1           0       -2.375818   -0.106502    1.245749
     15          1           0       -1.821968    0.557370   -0.288411
     16          1           0       -3.552571    2.041116    1.750570
     17          1           0       -2.999825    2.705224    0.217262
     18          1           0       -0.609180    2.453882    0.964469
     19          1           0       -1.165066    1.786001    2.506489
     20          1           0       -1.520689    3.471674    2.092547
     21          6           0        3.194002    1.733876   -1.466457
     22          6           0        4.153310    0.757411   -1.178763
     23          6           0        3.817867   -0.363934   -0.414164
     24          6           0        2.507858   -0.477374    0.048757
     25          6           0        1.529637    0.478450   -0.221014
     26          6           0        1.887531    1.591529   -0.987508
     27          1           0        3.463302    2.601753   -2.061151
     28          1           0        5.168704    0.865335   -1.549401
     29          1           0        4.540732   -1.134926   -0.176559
     30          1           0        0.525570    0.343205    0.162361
     31          1           0        1.140444    2.348287   -1.209375
     32          7           0        2.140857   -1.660117    0.859206
     33          8           0        0.979874   -1.736704    1.255300
     34          8           0        3.021133   -2.488168    1.082998
 ---------------------------------------------------------------------

 SCF Done:  E(RHF) =  -669.535060794     A.U. after   15 cycles
 E2 =    -0.2092812245D+01 EUMP2 =    -0.67162787303864D+03

 The electronic state is 1-A.
 Alpha  occ. eigenvalues --  -20.60730 -20.60724 -15.85780 -11.31118 -11.27719
 Alpha  occ. eigenvalues --  -11.27632 -11.27466 -11.26729 -11.26715 -11.21923
 Alpha  occ. eigenvalues --  -11.21613 -11.21543 -11.21484 -11.21423 -11.20960
 Alpha  occ. eigenvalues --   -1.59803  -1.39356  -1.19308  -1.08710  -1.08583
 Alpha  occ. eigenvalues --   -1.04718  -1.03675  -0.96145  -0.95545  -0.87163
 Alpha  occ. eigenvalues --   -0.86112  -0.82385  -0.79751  -0.78400  -0.77395
 Alpha  occ. eigenvalues --   -0.72001  -0.71125  -0.70429  -0.65253  -0.64952
 Alpha  occ. eigenvalues --   -0.64717  -0.62129  -0.61024  -0.59506  -0.57741
 Alpha  occ. eigenvalues --   -0.55459  -0.55223  -0.53064  -0.52875  -0.52772
 Alpha  occ. eigenvalues --   -0.52544  -0.50099  -0.48760  -0.48755  -0.48030
 Alpha  occ. eigenvalues --   -0.46763  -0.45899  -0.45779  -0.44766  -0.43922
 Alpha  occ. eigenvalues --   -0.37296  -0.36302
 Alpha virt. eigenvalues --    0.05077   0.11322   0.16506   0.19791   0.23049
 Alpha virt. eigenvalues --    0.23979   0.25754   0.26842   0.27253   0.28108
 Alpha virt. eigenvalues --    0.29091   0.30131   0.31530   0.31800   0.32299

 Mulliken charges:
               1
     1  C   -0.297815
     2  C   -0.300336
     3  C   -0.476077
     4  H    0.151384
     5  H    0.147176
     6  H    0.159276
     7  H    0.151321
     8  H    0.153223
     9  H    0.155307
    10  H    0.161856
    11  C   -0.304308
    12  C   -0.299853
    13  C   -0.480290
    14  H    0.164294
    15  H    0.139021
    16  H    0.155937
    17  H    0.149410
    18  H    0.143438
    19  H    0.164879
    20  H    0.162593
    21  C   -0.170445
    22  C   -0.219282
    23  C   -0.169924
    24  C    0.157252
    25  C   -0.179224
    26  C   -0.223841
    27  H    0.225456
    28  H    0.223290
    29  H    0.275410
    30  H    0.291374
    31  H    0.223473
    32  N    0.487448
    33  O   -0.460732
    34  O   -0.460690
 Sum of Mulliken charges =  -0.00000

 Dipole moment (field-independent basis, Debye):
    X=              1.1639    Y=              4.0491    Z=             -2.7157  Tot=              5.0125
 Quadrupole moment (field-independent basis, Debye-Ang):
   XX=            -84.2401   YY=            -98.9572   ZZ=            -95.0670
   XY=              8.0509   XZ=             -8.8004   YZ=              1.1547

 Normal termination of Gaussian 16 at Thu May  6 08:56:05 2021.
