 Gaussian 16, Revision A.03,
 Gaussian 16:  EM64L-G16RevA.03 25-Dec-2016

 -------------
 #p 6-31g* mp2
 -------------

 ------------------------------------------------------
 Input file generated by CHIRIPA (05-May-2021 14:57:22)
 ------------------------------------------------------
 Symbolic Z-matrix:
 Charge =  0 Multiplicity = 1

                         Standard orientation:
 ---------------------------------------------------------------------
 Center     Atomic      Atomic             Coordinates (Angstroms)
 Number     Number       Type             X           Y           Z
 ---------------------------------------------------------------------
      1          6           0       -2.255946    2.667554   -0.141716
      2          6           0       -3.115947    2.240101    0.875242
      3          6           0       -3.579137    0.921363    0.905812
      4          6           0       -3.160337    0.052845   -0.100952
      5          6           0       -2.304214    0.448687   -1.127428
      6          6           0       -1.853533    1.772062   -1.138048
      7          1           0       -1.900988    3.693783   -0.157714
      8          1           0       -3.430119    2.933361    1.650310
      9          1           0       -4.245554    0.563935    1.681410
     10          1           0       -2.008444   -0.265472   -1.886319
     11          1           0       -1.185711    2.101250   -1.929056
     12          7           0       -3.644074   -1.345698   -0.079149
     13          8           0       -3.260411   -2.091376   -0.977705
     14          8           0       -4.397730   -1.669716    0.836084
     15          6           0        0.658191   -0.966127    0.282319
     16          6           0        1.236824   -0.759512   -0.974270
     17          6           0        2.578125   -0.381021   -1.084734
     18          6           0        3.314802   -0.217333    0.087359
     19          6           0        2.766858   -0.415728    1.353727
     20          6           0        1.423705   -0.793879    1.440265
     21          1           0       -0.384484   -1.260016    0.358838
     22          1           0        0.644722   -0.892550   -1.875247
     23          1           0        3.051286   -0.214486   -2.044840
     24          1           0        3.382457   -0.275386    2.233931
     25          1           0        0.976972   -0.953649    2.417480
     26          7           0        4.735759    0.183178   -0.016920
     27          8           0        5.363360    0.320866    1.030837
     28          8           0        5.194997    0.351827   -1.144438
 ---------------------------------------------------------------------

 SCF Done:  E(RHF) =  -868.336943619     A.U. after   16 cycles
 E2 =    -0.2602476966D+01 EUMP2 =    -0.87093942058566D+03

 The electronic state is 1-A.
 Alpha  occ. eigenvalues --  -20.61921 -20.61912 -20.60899 -20.60893 -15.86948
 Alpha  occ. eigenvalues --  -15.85955 -11.32234 -11.31287 -11.28827 -11.28733
 Alpha  occ. eigenvalues --  -11.28396 -11.27914 -11.27870 -11.27724 -11.27689
 Alpha  occ. eigenvalues --  -11.27525 -11.26905 -11.26806  -1.60995  -1.59977
 Alpha  occ. eigenvalues --   -1.40547  -1.39532  -1.20394  -1.19471  -1.09775
 Alpha  occ. eigenvalues --   -1.08854  -1.05766  -1.04884  -0.96631  -0.95690
 Alpha  occ. eigenvalues --   -0.87164  -0.86277  -0.83449  -0.82538  -0.78543
 Alpha  occ. eigenvalues --   -0.77601  -0.73147  -0.72389  -0.72172  -0.71468
 Alpha  occ. eigenvalues --   -0.71305  -0.70506  -0.66016  -0.65744  -0.65116
 Alpha  occ. eigenvalues --   -0.64910  -0.63112  -0.62221  -0.56199  -0.55459
 Alpha  occ. eigenvalues --   -0.54057  -0.53832  -0.53118  -0.52972  -0.49935
 Alpha  occ. eigenvalues --   -0.49896  -0.48929  -0.48927  -0.45942  -0.44945
 Alpha  occ. eigenvalues --   -0.38329  -0.37887  -0.36917  -0.36416
 Alpha virt. eigenvalues --    0.03924   0.04972   0.10212   0.11121   0.15514
 Alpha virt. eigenvalues --    0.16438   0.19482   0.21672   0.24971   0.27028
 Alpha virt. eigenvalues --    0.27766   0.28517   0.30415   0.30626   0.31681

 Mulliken charges:
               1
     1  C   -0.169792
     2  C   -0.217881
     3  C   -0.172315
     4  C    0.152825
     5  C   -0.181035
     6  C   -0.211533
     7  H    0.230866
     8  H    0.227427
     9  H    0.277775
    10  H    0.271649
    11  H    0.226647
    12  N    0.487163
    13  O   -0.462111
    14  O   -0.455222
    15  C   -0.164428
    16  C   -0.223179
    17  C   -0.172353
    18  C    0.157376
    19  C   -0.170600
    20  C   -0.221473
    21  H    0.230566
    22  H    0.218244
    23  H    0.274462
    24  H    0.275589
    25  H    0.224896
    26  N    0.488074
    27  O   -0.460350
    28  O   -0.461287
 Sum of Mulliken charges =  -0.00000

 Dipole moment (field-independent basis, Debye):
    X=             -3.5157    Y=              3.7198    Z=              0.4269  Tot=              5.1361
 Quadrupole moment (field-independent basis, Debye-Ang):
   XX=           -148.5127   YY=           -104.2800   ZZ=            -96.5324
   XY=            -20.2241   XZ=             -1.3599   YZ=              0.0434

 Normal termination of Gaussian 16 at Wed May  5 17:48:49 2021.
