 Gaussian 16, Revision A.03,
 Gaussian 16:  EM64L-G16RevA.03 25-Dec-2016

 -------------
 #p 6-31g* mp2
 -------------

 ------------------------------------------------------
 Input file generated by CHIRIPA (05-May-2021 14:53:12)
 ------------------------------------------------------
 Symbolic Z-matrix:
 Charge =  0 Multiplicity = 1

                         Standard orientation:
 ---------------------------------------------------------------------
 Center     Atomic      Atomic             Coordinates (Angstroms)
 Number     Number       Type             X           Y           Z
 ---------------------------------------------------------------------
      1          6           0       -3.540725   -0.514706    0.118700
      2          6           0       -4.154079   -1.687127   -0.647597
      3          6           0       -3.863836   -3.037950    0.007255
      4          1           0       -2.454565   -0.661784    0.193340
      5          1           0       -3.927636   -0.515343    1.147143
      6          1           0       -3.767187   -1.683461   -1.674689
      7          1           0       -5.238880   -1.537145   -0.720587
      8          1           0       -4.264877   -3.066509    1.025563
      9          1           0       -2.784822   -3.213656    0.066041
     10          1           0       -4.311522   -3.862055   -0.556916
     11          6           0       -3.822212    0.842466   -0.523621
     12          6           0       -3.208858    2.014886    0.242677
     13          6           0       -3.499101    3.365709   -0.412175
     14          1           0       -3.435301    0.843103   -1.552063
     15          1           0       -4.908372    0.989543   -0.598260
     16          1           0       -2.124057    1.864905    0.315667
     17          1           0       -3.595750    2.011221    1.269768
     18          1           0       -4.578116    3.541415   -0.470961
     19          1           0       -3.098060    3.394268   -1.430483
     20          1           0       -3.051416    4.189814    0.151996
     21          6           0        0.571851   -0.609579    1.066056
     22          6           0        1.313093   -1.629813    0.460906
     23          6           0        2.590879   -1.374427   -0.045640
     24          6           0        3.098918   -0.081476    0.070401
     25          6           0        2.384978    0.956107    0.667897
     26          6           0        1.109213    0.677854    1.167441
     27          1           0       -0.419980   -0.816851    1.456833
     28          1           0        0.898300   -2.630598    0.380779
     29          1           0        3.186410   -2.145640   -0.518918
     30          1           0        2.825116    1.943751    0.733126
     31          1           0        0.535827    1.472132    1.636906
     32          7           0        4.450584    0.200993   -0.462150
     33          8           0        4.875666    1.348515   -0.347553
     34          8           0        5.059344   -0.730480   -0.984076
 ---------------------------------------------------------------------

 SCF Done:  E(RHF) =  -669.535645358     A.U. after   15 cycles
 E2 =    -0.2092000670D+01 EUMP2 =    -0.67162764602811D+03

 The electronic state is 1-A.
 Alpha  occ. eigenvalues --  -20.60777 -20.60772 -15.85832 -11.31209 -11.27778
 Alpha  occ. eigenvalues --  -11.27773 -11.27481 -11.26791 -11.26779 -11.22478
 Alpha  occ. eigenvalues --  -11.22458 -11.22381 -11.22191 -11.21984 -11.21742
 Alpha  occ. eigenvalues --   -1.59853  -1.39406  -1.19380  -1.09320  -1.08769
 Alpha  occ. eigenvalues --   -1.04783  -1.04371  -0.96817  -0.95604  -0.87829
 Alpha  occ. eigenvalues --   -0.86177  -0.82438  -0.80443  -0.79172  -0.77481
 Alpha  occ. eigenvalues --   -0.72048  -0.71176  -0.70495  -0.65945  -0.65029
 Alpha  occ. eigenvalues --   -0.64772  -0.62139  -0.61751  -0.60186  -0.58445
 Alpha  occ. eigenvalues --   -0.56141  -0.55264  -0.53487  -0.53237  -0.53106
 Alpha  occ. eigenvalues --   -0.52871  -0.50748  -0.48826  -0.48803  -0.48739
 Alpha  occ. eigenvalues --   -0.47472  -0.46684  -0.46591  -0.44809  -0.44635
 Alpha  occ. eigenvalues --   -0.37335  -0.36386
 Alpha virt. eigenvalues --    0.05011   0.11166   0.16379   0.19616   0.22665
 Alpha virt. eigenvalues --    0.22852   0.25553   0.26070   0.26531   0.27142
 Alpha virt. eigenvalues --    0.29797   0.30351   0.30751   0.31059   0.31460

 Mulliken charges:
               1
     1  C   -0.304447
     2  C   -0.299918
     3  C   -0.475255
     4  H    0.144930
     5  H    0.149176
     6  H    0.155100
     7  H    0.155612
     8  H    0.156249
     9  H    0.147484
    10  H    0.164734
    11  C   -0.297817
    12  C   -0.302772
    13  C   -0.476023
    14  H    0.153372
    15  H    0.153016
    16  H    0.146904
    17  H    0.151378
    18  H    0.157700
    19  H    0.158333
    20  H    0.160723
    21  C   -0.172869
    22  C   -0.220389
    23  C   -0.170728
    24  C    0.158709
    25  C   -0.171033
    26  C   -0.221340
    27  H    0.231246
    28  H    0.223576
    29  H    0.275722
    30  H    0.275772
    31  H    0.225473
    32  N    0.488050
    33  O   -0.460314
    34  O   -0.460353
 Sum of Mulliken charges =  -0.00000

 Dipole moment (field-independent basis, Debye):
    X=             -4.9325    Y=             -0.9643    Z=              1.7858  Tot=              5.3337
 Quadrupole moment (field-independent basis, Debye-Ang):
   XX=           -123.3701   YY=            -90.9399   ZZ=            -94.6035
   XY=             -3.1382   XZ=              5.1937   YZ=              1.7924

 Normal termination of Gaussian 16 at Thu May  6 12:00:51 2021.
