 Gaussian 16, Revision A.03,
 Gaussian 16:  EM64L-G16RevA.03 25-Dec-2016

 -------------
 #p 6-31g* mp2
 -------------

 ------------------------------------------------------
 Input file generated by CHIRIPA (05-May-2021 14:55:20)
 ------------------------------------------------------
 Symbolic Z-matrix:
 Charge =  0 Multiplicity = 1

                         Standard orientation:
 ---------------------------------------------------------------------
 Center     Atomic      Atomic             Coordinates (Angstroms)
 Number     Number       Type             X           Y           Z
 ---------------------------------------------------------------------
      1          6           0        5.983928    0.619317    0.671614
      2          6           0        4.981546    1.519413    0.295348
      3          6           0        3.725646    1.055755   -0.107498
      4          6           0        3.505543   -0.320699   -0.122281
      5          6           0        4.483879   -1.242603    0.246829
      6          6           0        5.732339   -0.756393    0.646199
      7          1           0        6.956652    0.988257    0.983204
      8          1           0        5.174106    2.588344    0.314110
      9          1           0        2.931667    1.730419   -0.403885
     10          1           0        4.262141   -2.302514    0.217854
     11          1           0        6.508919   -1.457743    0.937878
     12          7           0        2.179916   -0.823490   -0.546915
     13          8           0        2.011152   -2.040921   -0.551267
     14          8           0        1.334756    0.009373   -0.867351
     15          6           0       -4.012058    0.220937   -0.016149
     16          6           0       -3.268029    1.548300   -0.166191
     17          6           0       -1.759126    1.364798   -0.331513
     18          1           0       -3.610080   -0.321496    0.850525
     19          1           0       -3.812194   -0.405024   -0.896843
     20          1           0       -3.470350    2.172122    0.713882
     21          1           0       -3.671955    2.087723   -1.032495
     22          1           0       -1.539177    0.763766   -1.219762
     23          1           0       -1.336426    0.848645    0.536537
     24          1           0       -1.246961    2.326254   -0.437104
     25          6           0       -5.521439    0.387915    0.150027
     26          6           0       -6.265469   -0.939447    0.300068
     27          6           0       -7.774372   -0.755945    0.465390
     28          1           0       -5.721304    1.013877    1.030720
     29          1           0       -5.923418    0.930349   -0.716648
     30          1           0       -5.861542   -1.478870    1.166371
     31          1           0       -6.063148   -1.563269   -0.580005
     32          1           0       -8.197072   -0.239793   -0.402660
     33          1           0       -7.994322   -0.154914    1.353639
     34          1           0       -8.286537   -1.717401    0.570981
 ---------------------------------------------------------------------

 SCF Done:  E(RHF) =  -669.535569288     A.U. after   15 cycles
 E2 =    -0.2090888499D+01 EUMP2 =    -0.67162645778697D+03

 The electronic state is 1-A.
 Alpha  occ. eigenvalues --  -20.60839 -20.60821 -15.85869 -11.31231 -11.27801
 Alpha  occ. eigenvalues --  -11.27795 -11.27546 -11.26817 -11.26807 -11.20953
 Alpha  occ. eigenvalues --  -11.20634 -11.20545 -11.20503 -11.20398 -11.19517
 Alpha  occ. eigenvalues --   -1.59901  -1.39454  -1.19405  -1.08802  -1.07562
 Alpha  occ. eigenvalues --   -1.04807  -1.02602  -0.95642  -0.95016  -0.86207
 Alpha  occ. eigenvalues --   -0.86023  -0.82468  -0.78682  -0.77522  -0.77331
 Alpha  occ. eigenvalues --   -0.72083  -0.71219  -0.70513  -0.65058  -0.64810
 Alpha  occ. eigenvalues --   -0.64203  -0.62153  -0.60005  -0.58456  -0.56636
 Alpha  occ. eigenvalues --   -0.55310  -0.54303  -0.53138  -0.52899  -0.51728
 Alpha  occ. eigenvalues --   -0.51427  -0.48993  -0.48847  -0.48810  -0.46951
 Alpha  occ. eigenvalues --   -0.45737  -0.44975  -0.44803  -0.44722  -0.42869
 Alpha  occ. eigenvalues --   -0.37387  -0.36410
 Alpha virt. eigenvalues --    0.05004   0.11244   0.16488   0.21359   0.23675
 Alpha virt. eigenvalues --    0.25221   0.27263   0.27501   0.28075   0.28333
 Alpha virt. eigenvalues --    0.29080   0.30914   0.32211   0.32366   0.32638

 Mulliken charges:
               1
     1  C   -0.170747
     2  C   -0.218566
     3  C   -0.170887
     4  C    0.157682
     5  C   -0.170764
     6  C   -0.218596
     7  H    0.225731
     8  H    0.223618
     9  H    0.276093
    10  H    0.275696
    11  H    0.223559
    12  N    0.491419
    13  O   -0.460251
    14  O   -0.460941
    15  C   -0.297254
    16  C   -0.302147
    17  C   -0.467170
    18  H    0.149680
    19  H    0.152020
    20  H    0.145534
    21  H    0.147317
    22  H    0.169277
    23  H    0.155979
    24  H    0.149879
    25  C   -0.297463
    26  C   -0.299101
    27  C   -0.475216
    28  H    0.147047
    29  H    0.147867
    30  H    0.151575
    31  H    0.152411
    32  H    0.154196
    33  H    0.153801
    34  H    0.158722
 Sum of Mulliken charges =  -0.00000

 Dipole moment (field-independent basis, Debye):
    X=              4.9593    Y=              1.6737    Z=              1.4269  Tot=              5.4251
 Quadrupole moment (field-independent basis, Debye-Ang):
   XX=            -64.6528   YY=            -91.9040   ZZ=            -94.8783
   XY=              3.4727   XZ=              5.5414   YZ=             -1.4464

 Normal termination of Gaussian 16 at Thu May  6 14:05:07 2021.
