 Gaussian 16, Revision A.03,
 Gaussian 16:  EM64L-G16RevA.03 25-Dec-2016

 -------------
 #p 6-31g* mp2
 -------------

 ------------------------------------------------------
 Input file generated by CHIRIPA (05-May-2021 14:51:13)
 ------------------------------------------------------
 Symbolic Z-matrix:
 Charge =  0 Multiplicity = 1

                         Standard orientation:
 ---------------------------------------------------------------------
 Center     Atomic      Atomic             Coordinates (Angstroms)
 Number     Number       Type             X           Y           Z
 ---------------------------------------------------------------------
      1          6           0        2.932292    0.040269    0.848012
      2          6           0        1.665245    0.811246    0.476297
      3          6           0        0.674983    0.915644    1.636588
      4          1           0        2.654680   -0.967256    1.186788
      5          1           0        3.416794    0.534556    1.701436
      6          1           0        1.184019    0.316443   -0.377054
      7          1           0        1.945920    1.816989    0.138185
      8          1           0        1.132564    1.428779    2.488593
      9          1           0        0.366334   -0.080292    1.970427
     10          1           0       -0.223433    1.470587    1.348929
     11          6           0        3.931976   -0.072577   -0.301608
     12          6           0        5.199022   -0.843554    0.070107
     13          6           0        6.189284   -0.947952   -1.090184
     14          1           0        3.447474   -0.566864   -1.155033
     15          1           0        4.209587    0.934949   -0.640384
     16          1           0        4.918348   -1.849296    0.408219
     17          1           0        5.680248   -0.348751    0.923458
     18          1           0        6.497933    0.047984   -1.424023
     19          1           0        5.731704   -1.461087   -1.942189
     20          1           0        7.087700   -1.502895   -0.802525
     21          6           0       -3.407333   -0.726462   -0.450232
     22          6           0       -4.422976   -1.568358    0.322856
     23          6           0       -4.361160   -3.051828   -0.042235
     24          1           0       -3.584200   -0.848050   -1.527673
     25          1           0       -2.397110   -1.111554   -0.253897
     26          1           0       -5.430867   -1.180928    0.126213
     27          1           0       -4.243793   -1.444601    1.398586
     28          1           0       -3.367776   -3.459867    0.170589
     29          1           0       -4.561595   -3.194695   -1.109013
     30          1           0       -5.095520   -3.635079    0.522028
     31          6           0       -3.456934    0.758770   -0.096172
     32          6           0       -2.441292    1.600666   -0.869260
     33          6           0       -2.503107    3.084136   -0.504169
     34          1           0       -4.467157    1.143861   -0.292507
     35          1           0       -3.280068    0.880357    0.981269
     36          1           0       -2.620475    1.476910   -1.944989
     37          1           0       -1.433401    1.213236   -0.672617
     38          1           0       -2.302673    3.227003    0.562609
     39          1           0       -3.496491    3.492175   -0.716993
     40          1           0       -1.768747    3.667388   -1.068432
 ---------------------------------------------------------------------

 SCF Done:  E(RHF) =  -470.733011542     A.U. after   11 cycles
 E2 =    -0.1583409976D+01 EUMP2 =    -0.47231642151789D+03

 The electronic state is 1-A.
 Alpha  occ. eigenvalues --  -11.21661 -11.21622 -11.21592 -11.21548 -11.21441
 Alpha  occ. eigenvalues --  -11.21390 -11.21379 -11.21330 -11.21110 -11.21085
 Alpha  occ. eigenvalues --  -11.21081 -11.21071  -1.08477  -1.08410  -1.03604
 Alpha  occ. eigenvalues --   -1.03493  -0.96035  -0.95961  -0.87040  -0.86987
 Alpha  occ. eigenvalues --   -0.79636  -0.79581  -0.78295  -0.78213  -0.65163
 Alpha  occ. eigenvalues --   -0.65028  -0.61111  -0.60925  -0.59385  -0.59262
 Alpha  occ. eigenvalues --   -0.57660  -0.57527  -0.55312  -0.55253  -0.52705
 Alpha  occ. eigenvalues --   -0.52666  -0.52459  -0.52370  -0.49962  -0.49908
 Alpha  occ. eigenvalues --   -0.47968  -0.47872  -0.46716  -0.46561  -0.45852
 Alpha  occ. eigenvalues --   -0.45784  -0.45746  -0.45613  -0.43819  -0.43768
 Alpha virt. eigenvalues --    0.20331   0.23077   0.23740   0.24589   0.26123
 Alpha virt. eigenvalues --    0.26593   0.26960   0.27599   0.27941   0.29424
 Alpha virt. eigenvalues --    0.30651   0.30766   0.31417   0.31739   0.32236

 Mulliken charges:
               1
     1  C   -0.298324
     2  C   -0.301435
     3  C   -0.482713
     4  H    0.149621
     5  H    0.149813
     6  H    0.152932
     7  H    0.152611
     8  H    0.155831
     9  H    0.154670
    10  H    0.167004
    11  C   -0.298385
    12  C   -0.299691
    13  C   -0.475737
    14  H    0.149695
    15  H    0.149779
    16  H    0.151963
    17  H    0.151975
    18  H    0.155229
    19  H    0.155259
    20  H    0.160326
    21  C   -0.298439
    22  C   -0.299716
    23  C   -0.475660
    24  H    0.149498
    25  H    0.149529
    26  H    0.151942
    27  H    0.152181
    28  H    0.154929
    29  H    0.155121
    30  H    0.160270
    31  C   -0.298458
    32  C   -0.308159
    33  C   -0.477137
    34  H    0.149541
    35  H    0.150185
    36  H    0.152396
    37  H    0.160050
    38  H    0.155336
    39  H    0.155617
    40  H    0.160552
 Sum of Mulliken charges =  -0.00000

 Dipole moment (field-independent basis, Debye):
    X=              0.0195    Y=              0.0080    Z=             -0.0013  Tot=              0.0211
 Quadrupole moment (field-independent basis, Debye-Ang):
   XX=            -84.7709   YY=            -85.2385   ZZ=            -84.7475
   XY=              0.3457   XZ=              1.2215   YZ=             -0.1325

 Normal termination of Gaussian 16 at Thu May  6 00:46:52 2021.
