 Gaussian 16, Revision A.03,
 Gaussian 16:  EM64L-G16RevA.03 25-Dec-2016

 -------------
 #p 6-31g* mp2
 -------------

 ------------------------------------------------------
 Input file generated by CHIRIPA (05-May-2021 14:51:11)
 ------------------------------------------------------
 Symbolic Z-matrix:
 Charge =  0 Multiplicity = 1

                         Standard orientation:
 ---------------------------------------------------------------------
 Center     Atomic      Atomic             Coordinates (Angstroms)
 Number     Number       Type             X           Y           Z
 ---------------------------------------------------------------------
      1          6           0       -3.444382    0.169687    0.013132
      2          6           0       -2.968396    1.384013   -0.784886
      3          6           0       -1.510433    1.744932   -0.498747
      4          1           0       -3.318855    0.371628    1.085703
      5          1           0       -2.800346   -0.689355   -0.220661
      6          1           0       -3.613994    2.240155   -0.550704
      7          1           0       -3.095250    1.179233   -1.855675
      8          1           0       -0.850100    0.908582   -0.749905
      9          1           0       -1.371792    1.975532    0.562480
     10          1           0       -1.190960    2.615731   -1.079699
     11          6           0       -4.899966   -0.203466   -0.262114
     12          6           0       -5.375953   -1.417793    0.535904
     13          6           0       -6.833916   -1.778711    0.249765
     14          1           0       -5.544003    0.655575   -0.028321
     15          1           0       -5.025494   -0.405407   -1.334685
     16          1           0       -5.249099   -1.213012    1.606693
     17          1           0       -4.730355   -2.273934    0.301722
     18          1           0       -6.972557   -2.009311   -0.811462
     19          1           0       -7.494248   -0.942361    0.500923
     20          1           0       -7.153388   -2.649510    0.830717
     21          6           0        4.614154   -0.544054    0.395467
     22          6           0        5.337537   -1.328720   -0.699522
     23          6           0        6.217834   -2.447528   -0.141726
     24          1           0        5.356693   -0.119207    1.084731
     25          1           0        3.998561   -1.235908    0.986886
     26          1           0        5.950507   -0.635371   -1.289567
     27          1           0        4.593197   -1.751589   -1.386369
     28          1           0        5.616777   -3.161690    0.430379
     29          1           0        6.981798   -2.039131    0.527731
     30          1           0        6.725528   -2.995511   -0.941613
     31          6           0        3.730194    0.577833   -0.146485
     32          6           0        3.006812    1.362500    0.948505
     33          6           0        2.126514    2.481307    0.390707
     34          1           0        4.345787    1.269688   -0.737905
     35          1           0        2.987655    0.152986   -0.835748
     36          1           0        3.751152    1.785368    1.635351
     37          1           0        2.393841    0.669151    1.538550
     38          1           0        1.362550    2.072911   -0.278749
     39          1           0        2.727572    3.195470   -0.181397
     40          1           0        1.618820    3.029290    1.190595
 ---------------------------------------------------------------------

 SCF Done:  E(RHF) =  -470.732971731     A.U. after   11 cycles
 E2 =    -0.1582507318D+01 EUMP2 =    -0.47231547904869D+03

 The electronic state is 1-A.
 Alpha  occ. eigenvalues --  -11.21615 -11.21602 -11.21577 -11.21506 -11.21421
 Alpha  occ. eigenvalues --  -11.21361 -11.21360 -11.21299 -11.21087 -11.21082
 Alpha  occ. eigenvalues --  -11.21053 -11.20867  -1.08446  -1.08374  -1.03557
 Alpha  occ. eigenvalues --   -1.03449  -0.96040  -0.95868  -0.87100  -0.86847
 Alpha  occ. eigenvalues --   -0.79683  -0.79458  -0.78263  -0.78183  -0.65077
 Alpha  occ. eigenvalues --   -0.65006  -0.60959  -0.60855  -0.59368  -0.59277
 Alpha  occ. eigenvalues --   -0.57608  -0.57521  -0.55318  -0.55197  -0.52806
 Alpha  occ. eigenvalues --   -0.52567  -0.52439  -0.52239  -0.49963  -0.49801
 Alpha  occ. eigenvalues --   -0.47954  -0.47803  -0.46657  -0.46535  -0.45819
 Alpha  occ. eigenvalues --   -0.45733  -0.45701  -0.45627  -0.43792  -0.43699
 Alpha virt. eigenvalues --    0.22167   0.22976   0.23664   0.24768   0.26225
 Alpha virt. eigenvalues --    0.26645   0.27181   0.27543   0.27590   0.29189
 Alpha virt. eigenvalues --    0.30156   0.31228   0.31533   0.32103   0.32185

 Mulliken charges:
               1
     1  C   -0.298389
     2  C   -0.300839
     3  C   -0.476010
     4  H    0.149640
     5  H    0.149223
     6  H    0.152055
     7  H    0.151839
     8  H    0.153420
     9  H    0.157268
    10  H    0.161499
    11  C   -0.298284
    12  C   -0.299622
    13  C   -0.475712
    14  H    0.149621
    15  H    0.149668
    16  H    0.151949
    17  H    0.151838
    18  H    0.155193
    19  H    0.155230
    20  H    0.160277
    21  C   -0.298223
    22  C   -0.299578
    23  C   -0.475668
    24  H    0.149626
    25  H    0.149377
    26  H    0.151892
    27  H    0.151710
    28  H    0.155104
    29  H    0.155171
    30  H    0.160127
    31  C   -0.298192
    32  C   -0.299500
    33  C   -0.482464
    34  H    0.149432
    35  H    0.148976
    36  H    0.151272
    37  H    0.151522
    38  H    0.167013
    39  H    0.153536
    40  H    0.159004
 Sum of Mulliken charges =  -0.00000

 Dipole moment (field-independent basis, Debye):
    X=             -0.0429    Y=              0.0134    Z=             -0.0094  Tot=              0.0459
 Quadrupole moment (field-independent basis, Debye-Ang):
   XX=            -85.7931   YY=            -84.8764   ZZ=            -84.3028
   XY=              0.4341   XZ=             -0.5016   YZ=              0.6596

 Normal termination of Gaussian 16 at Wed May  5 21:27:48 2021.
