 Gaussian 16, Revision A.03,
 Gaussian 16:  EM64L-G16RevA.03 25-Dec-2016

 -------------
 #p 6-31g* mp2
 -------------

 ------------------------------------------------------
 Input file generated by CHIRIPA (05-May-2021 14:53:12)
 ------------------------------------------------------
 Symbolic Z-matrix:
 Charge =  0 Multiplicity = 1

                         Standard orientation:
 ---------------------------------------------------------------------
 Center     Atomic      Atomic             Coordinates (Angstroms)
 Number     Number       Type             X           Y           Z
 ---------------------------------------------------------------------
      1          6           0        5.436993    0.490256   -0.217303
      2          6           0        6.810140   -0.169801   -0.346826
      3          6           0        7.927799    0.838517   -0.615018
      4          1           0        5.216798    1.047577   -1.138092
      5          1           0        5.468266    1.229152    0.595378
      6          1           0        6.775898   -0.908219   -1.158111
      7          1           0        7.027009   -0.725774    0.574303
      8          1           0        7.990872    1.569012    0.198001
      9          1           0        7.738334    1.385529   -1.544256
     10          1           0        8.900708    0.345187   -0.704086
     11          6           0        4.309367   -0.504848    0.050942
     12          6           0        2.936219    0.155209    0.180466
     13          6           0        1.818561   -0.853110    0.448658
     14          1           0        4.278094   -1.243744   -0.761738
     15          1           0        4.529562   -1.062169    0.971731
     16          1           0        2.719351    0.711181   -0.740663
     17          1           0        2.970462    0.893627    0.991750
     18          1           0        2.008026   -1.400122    1.377895
     19          1           0        1.755488   -1.583604   -0.364362
     20          1           0        0.845652   -0.359780    0.537726
     21          6           0       -6.029571    0.641095   -0.946519
     22          6           0       -5.464178   -0.607213   -1.226837
     23          6           0       -4.233287   -0.969899   -0.671936
     24          6           0       -3.592318   -0.055728    0.162773
     25          6           0       -4.129898    1.195397    0.461077
     26          6           0       -5.361804    1.536837   -0.104940
     27          1           0       -6.986151    0.914586   -1.381896
     28          1           0       -5.980524   -1.304867   -1.880069
     29          1           0       -3.772871   -1.929765   -0.872169
     30          1           0       -3.591455    1.869683    1.115931
     31          1           0       -5.798515    2.506975    0.114517
     32          7           0       -2.288693   -0.428441    0.756105
     33          8           0       -1.744028    0.394818    1.488378
     34          8           0       -1.836258   -1.536775    0.477652
 ---------------------------------------------------------------------

 SCF Done:  E(RHF) =  -669.536376188     A.U. after   15 cycles
 E2 =    -0.2091510403D+01 EUMP2 =    -0.67162788659140D+03

 The electronic state is 1-A.
 Alpha  occ. eigenvalues --  -20.61030 -20.61024 -15.86029 -11.31339 -11.27893
 Alpha  occ. eigenvalues --  -11.27889 -11.27628 -11.26894 -11.26884 -11.20959
 Alpha  occ. eigenvalues --  -11.20583 -11.20550 -11.20346 -11.20231 -11.19077
 Alpha  occ. eigenvalues --   -1.60071  -1.39624  -1.19500  -1.08908  -1.07477
 Alpha  occ. eigenvalues --   -1.04891  -1.02457  -0.95753  -0.94864  -0.86292
 Alpha  occ. eigenvalues --   -0.85872  -0.82585  -0.78564  -0.77646  -0.77244
 Alpha  occ. eigenvalues --   -0.72231  -0.71387  -0.70608  -0.65153  -0.64894
 Alpha  occ. eigenvalues --   -0.64126  -0.62237  -0.59874  -0.58323  -0.56469
 Alpha  occ. eigenvalues --   -0.55394  -0.54182  -0.53228  -0.52981  -0.51558
 Alpha  occ. eigenvalues --   -0.51305  -0.49008  -0.48907  -0.48842  -0.46834
 Alpha  occ. eigenvalues --   -0.45649  -0.45043  -0.44773  -0.44699  -0.42631
 Alpha  occ. eigenvalues --   -0.37475  -0.36490
 Alpha virt. eigenvalues --    0.04852   0.11166   0.16360   0.21307   0.23728
 Alpha virt. eigenvalues --    0.25472   0.27226   0.27530   0.28185   0.28373
 Alpha virt. eigenvalues --    0.29240   0.30859   0.32406   0.32425   0.32612

 Mulliken charges:
               1
     1  C   -0.297114
     2  C   -0.298826
     3  C   -0.475114
     4  H    0.147361
     5  H    0.148332
     6  H    0.150713
     7  H    0.151347
     8  H    0.154432
     9  H    0.153916
    10  H    0.158274
    11  C   -0.296893
    12  C   -0.300392
    13  C   -0.478577
    14  H    0.146986
    15  H    0.148495
    16  H    0.145526
    17  H    0.150064
    18  H    0.152044
    19  H    0.148164
    20  H    0.183687
    21  C   -0.170447
    22  C   -0.218643
    23  C   -0.170791
    24  C    0.160661
    25  C   -0.170744
    26  C   -0.218623
    27  H    0.226161
    28  H    0.224002
    29  H    0.276111
    30  H    0.275968
    31  H    0.223990
    32  N    0.486657
    33  O   -0.459900
    34  O   -0.456826
 Sum of Mulliken charges =  -0.00000

 Dipole moment (field-independent basis, Debye):
    X=             -5.0633    Y=              1.2831    Z=             -2.0255  Tot=              5.6024
 Quadrupole moment (field-independent basis, Debye-Ang):
   XX=            -64.5223   YY=            -91.5610   ZZ=            -94.0839
   XY=             -4.9494   XZ=              7.6385   YZ=              2.9641

 Normal termination of Gaussian 16 at Thu May  6 11:58:14 2021.
