 Gaussian 16, Revision A.03,
 Gaussian 16:  EM64L-G16RevA.03 25-Dec-2016

 -------------
 #p 6-31g* mp2
 -------------

 ------------------------------------------------------
 Input file generated by CHIRIPA (05-May-2021 14:55:19)
 ------------------------------------------------------
 Symbolic Z-matrix:
 Charge =  0 Multiplicity = 1

                         Standard orientation:
 ---------------------------------------------------------------------
 Center     Atomic      Atomic             Coordinates (Angstroms)
 Number     Number       Type             X           Y           Z
 ---------------------------------------------------------------------
      1          6           0        1.714275    0.286953    0.464297
      2          6           0        2.531286    1.420772    0.405401
      3          6           0        3.898106    1.297915    0.138461
      4          6           0        4.416947    0.020228   -0.065521
      5          6           0        3.628894   -1.128483   -0.013306
      6          6           0        2.264716   -0.981819    0.255124
      7          1           0        0.653522    0.391639    0.672241
      8          1           0        2.106542    2.407373    0.567439
      9          1           0        4.553512    2.158862    0.087162
     10          1           0        4.081125   -2.098742   -0.179143
     11          1           0        1.632614   -1.864120    0.300265
     12          7           0        5.862540   -0.122437   -0.348908
     13          8           0        6.295304   -1.259254   -0.524977
     14          8           0        6.535459    0.905260   -0.389591
     15          6           0       -6.069826   -0.282690    0.133900
     16          6           0       -7.080302    0.467932   -0.734140
     17          6           0       -8.518514    0.003217   -0.503098
     18          1           0       -6.146577   -1.358961   -0.072726
     19          1           0       -6.334212   -0.147894    1.191881
     20          1           0       -6.813285    0.332902   -1.790116
     21          1           0       -7.001004    1.542559   -0.525564
     22          1           0       -8.808777    0.153522    0.541775
     23          1           0       -8.619990   -1.063008   -0.729962
     24          1           0       -9.224237    0.552912   -1.133693
     25          6           0       -4.627635    0.170714   -0.085731
     26          6           0       -3.617160   -0.579907    0.782308
     27          6           0       -2.178948   -0.115193    0.551265
     28          1           0       -4.363249    0.035917   -1.143713
     29          1           0       -4.550886    1.246985    0.120893
     30          1           0       -3.696457   -1.654535    0.573731
     31          1           0       -3.884177   -0.444878    1.838283
     32          1           0       -2.077471    0.951032    0.778130
     33          1           0       -1.888686   -0.265498   -0.493606
     34          1           0       -1.473224   -0.664888    1.181860
 ---------------------------------------------------------------------

 SCF Done:  E(RHF) =  -669.535511432     A.U. after   15 cycles
 E2 =    -0.2090969562D+01 EUMP2 =    -0.67162648099456D+03

 The electronic state is 1-A.
 Alpha  occ. eigenvalues --  -20.60679 -20.60674 -15.85733 -11.31069 -11.27647
 Alpha  occ. eigenvalues --  -11.27642 -11.27280 -11.26635 -11.26623 -11.22643
 Alpha  occ. eigenvalues --  -11.22526 -11.22197 -11.22132 -11.22010 -11.21510
 Alpha  occ. eigenvalues --   -1.59756  -1.39310  -1.19238  -1.09210  -1.08627
 Alpha  occ. eigenvalues --   -1.04643  -1.04368  -0.96860  -0.95466  -0.87896
 Alpha  occ. eigenvalues --   -0.86036  -0.82312  -0.80455  -0.78965  -0.77368
 Alpha  occ. eigenvalues --   -0.71951  -0.71080  -0.70331  -0.65831  -0.64885
 Alpha  occ. eigenvalues --   -0.64652  -0.61998  -0.61753  -0.60285  -0.58421
 Alpha  occ. eigenvalues --   -0.56129  -0.55241  -0.53429  -0.53271  -0.52966
 Alpha  occ. eigenvalues --   -0.52731  -0.50781  -0.48756  -0.48708  -0.48703
 Alpha  occ. eigenvalues --   -0.47443  -0.46522  -0.46407  -0.44723  -0.44598
 Alpha  occ. eigenvalues --   -0.37199  -0.36257
 Alpha virt. eigenvalues --    0.05170   0.11397   0.16657   0.20494   0.22235
 Alpha virt. eigenvalues --    0.23699   0.25870   0.26035   0.26628   0.27370
 Alpha virt. eigenvalues --    0.28880   0.30134   0.30638   0.30955   0.31873

 Mulliken charges:
               1
     1  C   -0.180109
     2  C   -0.221713
     3  C   -0.170605
     4  C    0.157842
     5  C   -0.170754
     6  C   -0.223205
     7  H    0.245343
     8  H    0.223288
     9  H    0.275032
    10  H    0.275070
    11  H    0.222631
    12  N    0.488039
    13  O   -0.460870
    14  O   -0.460814
    15  C   -0.299102
    16  C   -0.300176
    17  C   -0.476124
    18  H    0.150837
    19  H    0.150631
    20  H    0.152743
    21  H    0.152465
    22  H    0.155804
    23  H    0.155909
    24  H    0.161824
    25  C   -0.299506
    26  C   -0.299032
    27  C   -0.485508
    28  H    0.150938
    29  H    0.150403
    30  H    0.154877
    31  H    0.155260
    32  H    0.155191
    33  H    0.159289
    34  H    0.154101
 Sum of Mulliken charges =  -0.00000

 Dipole moment (field-independent basis, Debye):
    X=             -5.4366    Y=              0.4986    Z=              0.9847  Tot=              5.5476
 Quadrupole moment (field-independent basis, Debye-Ang):
   XX=           -140.6422   YY=            -89.3739   ZZ=            -95.2333
   XY=              2.4927   XZ=              4.7990   YZ=              0.9004

 Normal termination of Gaussian 16 at Thu May  6 15:42:18 2021.
