 Gaussian 16, Revision A.03,
 Gaussian 16:  EM64L-G16RevA.03 25-Dec-2016

 -------------
 #p 6-31g* mp2
 -------------

 ------------------------------------------------------
 Input file generated by CHIRIPA (05-May-2021 14:51:08)
 ------------------------------------------------------
 Symbolic Z-matrix:
 Charge =  0 Multiplicity = 1

                         Standard orientation:
 ---------------------------------------------------------------------
 Center     Atomic      Atomic             Coordinates (Angstroms)
 Number     Number       Type             X           Y           Z
 ---------------------------------------------------------------------
      1          6           0        2.482066   -0.523689   -0.129540
      2          6           0        2.739430   -1.652435    0.869301
      3          6           0        2.115592   -2.979277    0.435583
      4          1           0        1.398452   -0.396368   -0.258053
      5          1           0        2.881266   -0.814078   -1.111226
      6          1           0        2.341093   -1.359428    1.849143
      7          1           0        3.822555   -1.776955    0.995597
      8          1           0        2.520672   -3.297923   -0.530324
      9          1           0        1.030793   -2.878023    0.328072
     10          1           0        2.311777   -3.772245    1.163987
     11          6           0        3.099494    0.809122    0.290133
     12          6           0        2.842130    1.937868   -0.708708
     13          6           0        3.465968    3.264710   -0.274990
     14          1           0        2.700294    1.099512    1.271819
     15          1           0        4.183107    0.681802    0.418647
     16          1           0        1.759005    2.062388   -0.835003
     17          1           0        3.240467    1.644861   -1.688550
     18          1           0        4.550767    3.163456   -0.167479
     19          1           0        3.060888    3.583356    0.690917
     20          1           0        3.269783    4.057678   -1.003394
     21          6           0       -2.863228   -0.902943   -0.095759
     22          6           0       -1.597783   -1.623284   -0.562386
     23          6           0       -1.758353   -3.143598   -0.587992
     24          1           0       -3.132961   -1.261532    0.907039
     25          1           0       -3.696455   -1.173456   -0.759046
     26          1           0       -0.766881   -1.350411    0.100757
     27          1           0       -1.330921   -1.262798   -1.564111
     28          1           0       -2.568854   -3.434039   -1.264256
     29          1           0       -2.001609   -3.522149    0.410070
     30          1           0       -0.841986   -3.638470   -0.924491
     31          6           0       -2.718332    0.617510   -0.064835
     32          6           0       -3.983777    1.337851    0.401793
     33          6           0       -3.823206    2.858165    0.427398
     34          1           0       -1.885105    0.888022    0.598453
     35          1           0       -2.448598    0.976099   -1.067632
     36          1           0       -4.250638    0.977366    1.403517
     37          1           0       -4.814679    1.064978   -0.261350
     38          1           0       -3.579951    3.236716   -0.570663
     39          1           0       -3.012706    3.148606    1.103663
     40          1           0       -4.739575    3.353037    0.763897
 ---------------------------------------------------------------------

 SCF Done:  E(RHF) =  -470.731864150     A.U. after   11 cycles
 E2 =    -0.1584507607D+01 EUMP2 =    -0.47231637175754D+03

 The electronic state is 1-A.
 Alpha  occ. eigenvalues --  -11.21657 -11.21653 -11.21565 -11.21558 -11.21473
 Alpha  occ. eigenvalues --  -11.21413 -11.21350 -11.21273 -11.21113 -11.21089
 Alpha  occ. eigenvalues --  -11.21045 -11.20953  -1.08511  -1.08377  -1.03631
 Alpha  occ. eigenvalues --   -1.03458  -0.96075  -0.95902  -0.87092  -0.86916
 Alpha  occ. eigenvalues --   -0.79698  -0.79539  -0.78404  -0.78111  -0.65265
 Alpha  occ. eigenvalues --   -0.64928  -0.61232  -0.60735  -0.59487  -0.59229
 Alpha  occ. eigenvalues --   -0.57807  -0.57406  -0.55431  -0.55106  -0.52805
 Alpha  occ. eigenvalues --   -0.52622  -0.52574  -0.52175  -0.50007  -0.49831
 Alpha  occ. eigenvalues --   -0.48014  -0.47851  -0.46875  -0.46486  -0.46130
 Alpha  occ. eigenvalues --   -0.45796  -0.45706  -0.45164  -0.43844  -0.43731
 Alpha virt. eigenvalues --    0.21227   0.23249   0.23349   0.24920   0.25512
 Alpha virt. eigenvalues --    0.26702   0.26905   0.27193   0.29047   0.29651
 Alpha virt. eigenvalues --    0.30762   0.31255   0.31498   0.31776   0.32151

 Mulliken charges:
               1
     1  C   -0.305529
     2  C   -0.298983
     3  C   -0.485958
     4  H    0.156861
     5  H    0.149148
     6  H    0.150543
     7  H    0.151779
     8  H    0.154235
     9  H    0.167822
    10  H    0.159742
    11  C   -0.297555
    12  C   -0.299890
    13  C   -0.475610
    14  H    0.148741
    15  H    0.149469
    16  H    0.152487
    17  H    0.151787
    18  H    0.155080
    19  H    0.155001
    20  H    0.160172
    21  C   -0.297087
    22  C   -0.308236
    23  C   -0.480148
    24  H    0.149665
    25  H    0.149962
    26  H    0.157844
    27  H    0.153055
    28  H    0.156538
    29  H    0.155345
    30  H    0.164090
    31  C   -0.298773
    32  C   -0.299640
    33  C   -0.475773
    34  H    0.148686
    35  H    0.149882
    36  H    0.152074
    37  H    0.152255
    38  H    0.155324
    39  H    0.155092
    40  H    0.160503
 Sum of Mulliken charges =  -0.00000

 Dipole moment (field-independent basis, Debye):
    X=             -0.0668    Y=             -0.0137    Z=             -0.0258  Tot=              0.0729
 Quadrupole moment (field-independent basis, Debye-Ang):
   XX=            -84.2211   YY=            -87.0160   ZZ=            -83.6304
   XY=             -0.5222   XZ=             -0.2058   YZ=             -0.1483

 Normal termination of Gaussian 16 at Wed May  5 21:18:50 2021.
