 Gaussian 16, Revision A.03,
 Gaussian 16:  EM64L-G16RevA.03 25-Dec-2016

 -------------
 #p 6-31g* mp2
 -------------

 ------------------------------------------------------
 Input file generated by CHIRIPA (05-May-2021 14:51:12)
 ------------------------------------------------------
 Symbolic Z-matrix:
 Charge =  0 Multiplicity = 1

                         Standard orientation:
 ---------------------------------------------------------------------
 Center     Atomic      Atomic             Coordinates (Angstroms)
 Number     Number       Type             X           Y           Z
 ---------------------------------------------------------------------
      1          6           0        2.952489    0.431181   -0.391821
      2          6           0        3.055745    1.816245   -1.031290
      3          6           0        1.704938    2.526459   -1.124627
      4          1           0        2.252919   -0.183533   -0.974636
      5          1           0        2.519096    0.530305    0.613037
      6          1           0        3.490096    1.714689   -2.034107
      7          1           0        3.755297    2.427671   -0.446995
      8          1           0        1.268744    2.657033   -0.128993
      9          1           0        1.002037    1.940000   -1.725123
     10          1           0        1.801922    3.514738   -1.584799
     11          6           0        4.294725   -0.291361   -0.291514
     12          6           0        4.191469   -1.676425    0.347955
     13          6           0        5.542276   -2.386639    0.441291
     14          1           0        4.728119   -0.390485   -1.296372
     15          1           0        4.994295    0.323353    0.291301
     16          1           0        3.491917   -2.287851   -0.236340
     17          1           0        3.757118   -1.574869    1.350772
     18          1           0        6.245177   -1.800180    1.041787
     19          1           0        5.978470   -2.517213   -0.554342
     20          1           0        5.445292   -3.374918    0.901464
     21          6           0       -4.370522   -0.187845    0.233772
     22          6           0       -4.672403   -1.157136   -0.909612
     23          6           0       -6.170870   -1.382898   -1.113139
     24          1           0       -4.813679   -0.575508    1.161282
     25          1           0       -4.862725    0.773213    0.030058
     26          1           0       -4.178634   -2.115638   -0.704476
     27          1           0       -4.228312   -0.767214   -1.834469
     28          1           0       -6.675073   -0.438564   -1.342513
     29          1           0       -6.625114   -1.794649   -0.206098
     30          1           0       -6.363958   -2.079017   -1.935330
     31          6           0       -2.876692    0.048025    0.449563
     32          6           0       -2.574811    1.017315    1.592948
     33          6           0       -1.076345    1.243079    1.796475
     34          1           0       -2.384489   -0.913033    0.653277
     35          1           0       -2.433535    0.435689   -0.477947
     36          1           0       -3.018903    0.627394    2.517804
     37          1           0       -3.068580    1.975818    1.387811
     38          1           0       -0.622101    1.654829    0.889433
     39          1           0       -0.572141    0.298744    2.025848
     40          1           0       -0.883256    1.939196    2.618665
 ---------------------------------------------------------------------

 SCF Done:  E(RHF) =  -470.733219685     A.U. after   11 cycles
 E2 =    -0.1582628833D+01 EUMP2 =    -0.47231584851758D+03

 The electronic state is 1-A.
 Alpha  occ. eigenvalues --  -11.21589 -11.21588 -11.21583 -11.21566 -11.21380
 Alpha  occ. eigenvalues --  -11.21373 -11.21320 -11.21310 -11.21062 -11.21061
 Alpha  occ. eigenvalues --  -11.21058 -11.20994  -1.08413  -1.08397  -1.03532
 Alpha  occ. eigenvalues --   -1.03487  -0.95994  -0.95928  -0.87027  -0.86934
 Alpha  occ. eigenvalues --   -0.79649  -0.79506  -0.78251  -0.78178  -0.65052
 Alpha  occ. eigenvalues --   -0.65020  -0.60984  -0.60847  -0.59350  -0.59307
 Alpha  occ. eigenvalues --   -0.57663  -0.57496  -0.55390  -0.55119  -0.52664
 Alpha  occ. eigenvalues --   -0.52655  -0.52520  -0.52267  -0.50058  -0.49742
 Alpha  occ. eigenvalues --   -0.48075  -0.47721  -0.46679  -0.46497  -0.45863
 Alpha  occ. eigenvalues --   -0.45713  -0.45679  -0.45553  -0.43767  -0.43760
 Alpha virt. eigenvalues --    0.22082   0.23007   0.23574   0.24786   0.25939
 Alpha virt. eigenvalues --    0.26273   0.27038   0.27639   0.27858   0.29214
 Alpha virt. eigenvalues --    0.30725   0.31386   0.31709   0.31848   0.32047

 Mulliken charges:
               1
     1  C   -0.299543
     2  C   -0.299363
     3  C   -0.481025
     4  H    0.149600
     5  H    0.151793
     6  H    0.151755
     7  H    0.151924
     8  H    0.161246
     9  H    0.154439
    10  H    0.160217
    11  C   -0.298294
    12  C   -0.299621
    13  C   -0.475681
    14  H    0.149384
    15  H    0.149577
    16  H    0.151882
    17  H    0.151922
    18  H    0.155173
    19  H    0.155143
    20  H    0.160138
    21  C   -0.298294
    22  C   -0.299626
    23  C   -0.475687
    24  H    0.149597
    25  H    0.149538
    26  H    0.151858
    27  H    0.151834
    28  H    0.155194
    29  H    0.155167
    30  H    0.160165
    31  C   -0.298357
    32  C   -0.299294
    33  C   -0.483292
    34  H    0.149524
    35  H    0.149808
    36  H    0.151612
    37  H    0.151868
    38  H    0.163372
    39  H    0.155220
    40  H    0.159124
 Sum of Mulliken charges =  -0.00000

 Dipole moment (field-independent basis, Debye):
    X=              0.0126    Y=              0.0108    Z=             -0.0040  Tot=              0.0170
 Quadrupole moment (field-independent basis, Debye-Ang):
   XX=            -86.7588   YY=            -84.4772   ZZ=            -83.6612
   XY=              0.3638   XZ=             -0.1909   YZ=             -0.1171

 Normal termination of Gaussian 16 at Thu May  6 05:30:50 2021.
