 Gaussian 16, Revision A.03,
 Gaussian 16:  EM64L-G16RevA.03 25-Dec-2016

 -------------
 #p 6-31g* mp2
 -------------

 ------------------------------------------------------
 Input file generated by CHIRIPA (05-May-2021 14:53:14)
 ------------------------------------------------------
 Symbolic Z-matrix:
 Charge =  0 Multiplicity = 1

                         Standard orientation:
 ---------------------------------------------------------------------
 Center     Atomic      Atomic             Coordinates (Angstroms)
 Number     Number       Type             X           Y           Z
 ---------------------------------------------------------------------
      1          6           0        3.424777   -0.116757   -0.282204
      2          6           0        3.962327   -1.187077    0.668290
      3          6           0        4.345651   -2.479600   -0.052987
      4          1           0        2.550064   -0.514347   -0.814881
      5          1           0        4.184132    0.099985   -1.046271
      6          1           0        3.202721   -1.400737    1.431156
      7          1           0        4.835747   -0.786826    1.198906
      8          1           0        5.120726   -2.287495   -0.801957
      9          1           0        3.478421   -2.904894   -0.568388
     10          1           0        4.727419   -3.230953    0.645284
     11          6           0        3.037256    1.181239    0.424026
     12          6           0        2.499705    2.251560   -0.526468
     13          6           0        2.116382    3.544082    0.194809
     14          1           0        2.277901    0.964498    1.188093
     15          1           0        3.911969    1.578829    0.956703
     16          1           0        1.626286    1.851309   -1.057084
     17          1           0        3.259312    2.465220   -1.289334
     18          1           0        2.983611    3.969377    0.710210
     19          1           0        1.341307    3.351978    0.943779
     20          1           0        1.734614    4.295435   -0.503462
     21          6           0       -4.279251    1.382962    0.168727
     22          6           0       -4.621456    0.041954    0.371488
     23          6           0       -3.657242   -0.963064    0.249927
     24          6           0       -2.354563   -0.589713   -0.077067
     25          6           0       -1.982579    0.737539   -0.285206
     26          6           0       -2.963224    1.725871   -0.158395
     27          1           0       -5.034658    2.157204    0.265198
     28          1           0       -5.642712   -0.227286    0.625634
     29          1           0       -3.894779   -2.009020    0.401493
     30          1           0       -0.956245    0.975032   -0.537506
     31          1           0       -2.694593    2.766499   -0.316428
     32          7           0       -1.325094   -1.644848   -0.208537
     33          8           0       -0.184435   -1.289838   -0.497502
     34          8           0       -1.678349   -2.806893   -0.020127
 ---------------------------------------------------------------------

 SCF Done:  E(RHF) =  -669.536300969     A.U. after   15 cycles
 E2 =    -0.2091929814D+01 EUMP2 =    -0.67162823078213D+03

 The electronic state is 1-A.
 Alpha  occ. eigenvalues --  -20.60991 -20.60978 -15.86029 -11.31312 -11.27871
 Alpha  occ. eigenvalues --  -11.27866 -11.27601 -11.26872 -11.26858 -11.21424
 Alpha  occ. eigenvalues --  -11.21145 -11.20795 -11.20570 -11.20275 -11.19982
 Alpha  occ. eigenvalues --   -1.60051  -1.39609  -1.19477  -1.08888  -1.07732
 Alpha  occ. eigenvalues --   -1.04868  -1.02914  -0.95738  -0.95359  -0.86388
 Alpha  occ. eigenvalues --   -0.86268  -0.82574  -0.79041  -0.77660  -0.77414
 Alpha  occ. eigenvalues --   -0.72264  -0.71364  -0.70588  -0.65142  -0.64880
 Alpha  occ. eigenvalues --   -0.64329  -0.62218  -0.60297  -0.58813  -0.56951
 Alpha  occ. eigenvalues --   -0.55374  -0.54632  -0.53202  -0.52960  -0.52130
 Alpha  occ. eigenvalues --   -0.51780  -0.49322  -0.49010  -0.48978  -0.47341
 Alpha  occ. eigenvalues --   -0.46081  -0.45066  -0.44975  -0.44798  -0.43118
 Alpha  occ. eigenvalues --   -0.37455  -0.36467
 Alpha virt. eigenvalues --    0.04894   0.11183   0.16400   0.19636   0.22926
 Alpha virt. eigenvalues --    0.24758   0.26305   0.27500   0.27846   0.28562
 Alpha virt. eigenvalues --    0.29412   0.31030   0.31493   0.32043   0.32347

 Mulliken charges:
               1
     1  C   -0.307723
     2  C   -0.297461
     3  C   -0.477867
     4  H    0.176233
     5  H    0.143085
     6  H    0.155582
     7  H    0.145193
     8  H    0.150152
     9  H    0.166579
    10  H    0.156548
    11  C   -0.296399
    12  C   -0.302836
    13  C   -0.476326
    14  H    0.149795
    15  H    0.146457
    16  H    0.149616
    17  H    0.153431
    18  H    0.157854
    19  H    0.150195
    20  H    0.155873
    21  C   -0.170260
    22  C   -0.218896
    23  C   -0.169924
    24  C    0.156412
    25  C   -0.175541
    26  C   -0.220654
    27  H    0.226178
    28  H    0.223887
    29  H    0.275836
    30  H    0.283064
    31  H    0.224886
    32  N    0.495217
    33  O   -0.469561
    34  O   -0.458623
 Sum of Mulliken charges =  -0.00000

 Dipole moment (field-independent basis, Debye):
    X=             -3.8186    Y=              3.5324    Z=              0.4217  Tot=              5.2189
 Quadrupole moment (field-independent basis, Debye-Ang):
   XX=            -75.4716   YY=            -98.2216   ZZ=            -95.6736
   XY=             -3.5314   XZ=             -1.9100   YZ=             -1.7996

 Normal termination of Gaussian 16 at Thu May  6 15:25:53 2021.
