 Gaussian 16, Revision A.03,
 Gaussian 16:  EM64L-G16RevA.03 25-Dec-2016

 -------------
 #p 6-31g* mp2
 -------------

 ------------------------------------------------------
 Input file generated by CHIRIPA (05-May-2021 14:51:08)
 ------------------------------------------------------
 Symbolic Z-matrix:
 Charge =  0 Multiplicity = 1

                         Standard orientation:
 ---------------------------------------------------------------------
 Center     Atomic      Atomic             Coordinates (Angstroms)
 Number     Number       Type             X           Y           Z
 ---------------------------------------------------------------------
      1          6           0       -3.627424   -0.092997   -0.375117
      2          6           0       -3.062550   -1.505921   -0.224957
      3          6           0       -4.049710   -2.587154   -0.665688
      4          1           0       -4.551351   -0.009882    0.213436
      5          1           0       -3.909227    0.072128   -1.424267
      6          1           0       -2.780613   -1.667846    0.823331
      7          1           0       -2.139757   -1.585624   -0.813783
      8          1           0       -4.323010   -2.453702   -1.717401
      9          1           0       -4.967507   -2.536391   -0.070984
     10          1           0       -3.625457   -3.589389   -0.549949
     11          6           0       -2.652250    0.998868    0.061456
     12          6           0       -3.217124    2.411792   -0.088705
     13          6           0       -2.229965    3.493025    0.352027
     14          1           0       -2.370447    0.833743    1.110606
     15          1           0       -1.728323    0.915753   -0.527098
     16          1           0       -4.139917    2.491495    0.500122
     17          1           0       -3.499062    2.573717   -1.136993
     18          1           0       -1.312168    3.442261   -0.242677
     19          1           0       -1.956665    3.359572    1.403739
     20          1           0       -2.654217    4.495259    0.236287
     21          6           0        3.665959   -0.307001   -0.377333
     22          6           0        4.861184    0.487623    0.149917
     23          6           0        5.905138    0.771747   -0.930467
     24          1           0        4.022866   -1.254965   -0.802689
     25          1           0        3.199470    0.249610   -1.201935
     26          1           0        5.324443   -0.069671    0.974192
     27          1           0        4.501370    1.433721    0.574240
     28          1           0        5.464248    1.348394   -1.750037
     29          1           0        6.291998   -0.163541   -1.347811
     30          1           0        6.750805    1.340779   -0.531832
     31          6           0        2.613715   -0.598869    0.690995
     32          6           0        1.418490   -1.393494    0.163745
     33          6           0        0.374537   -1.677617    1.244128
     34          1           0        3.080204   -1.155480    1.515597
     35          1           0        2.256809    0.349094    1.116351
     36          1           0        1.778304   -2.339592   -0.260578
     37          1           0        0.955231   -0.836199   -0.660530
     38          1           0       -0.012323   -0.742329    1.661473
     39          1           0        0.815426   -2.254265    2.063699
     40          1           0       -0.471130   -2.246651    0.845493
 ---------------------------------------------------------------------

 SCF Done:  E(RHF) =  -470.732042028     A.U. after   11 cycles
 E2 =    -0.1583933989D+01 EUMP2 =    -0.47231597601695D+03

 The electronic state is 1-A.
 Alpha  occ. eigenvalues --  -11.21630 -11.21579 -11.21558 -11.21547 -11.21425
 Alpha  occ. eigenvalues --  -11.21369 -11.21363 -11.21306 -11.21112 -11.21072
 Alpha  occ. eigenvalues --  -11.21056 -11.20850  -1.08464  -1.08375  -1.03575
 Alpha  occ. eigenvalues --   -1.03452  -0.96002  -0.95919  -0.87046  -0.86917
 Alpha  occ. eigenvalues --   -0.79705  -0.79484  -0.78273  -0.78197  -0.65088
 Alpha  occ. eigenvalues --   -0.65011  -0.60947  -0.60875  -0.59618  -0.59115
 Alpha  occ. eigenvalues --   -0.57730  -0.57409  -0.55289  -0.55208  -0.52807
 Alpha  occ. eigenvalues --   -0.52604  -0.52437  -0.52263  -0.49944  -0.49871
 Alpha  occ. eigenvalues --   -0.48085  -0.47651  -0.46670  -0.46604  -0.45809
 Alpha  occ. eigenvalues --   -0.45795  -0.45679  -0.45567  -0.43827  -0.43616
 Alpha virt. eigenvalues --    0.21074   0.23222   0.23772   0.24284   0.25244
 Alpha virt. eigenvalues --    0.26225   0.27116   0.27451   0.28030   0.29623
 Alpha virt. eigenvalues --    0.30533   0.31013   0.31661   0.31743   0.32108

 Mulliken charges:
               1
     1  C   -0.297870
     2  C   -0.304321
     3  C   -0.475969
     4  H    0.149581
     5  H    0.149249
     6  H    0.156150
     7  H    0.154437
     8  H    0.155107
     9  H    0.155250
    10  H    0.159894
    11  C   -0.300441
    12  C   -0.299629
    13  C   -0.475699
    14  H    0.150984
    15  H    0.150333
    16  H    0.152147
    17  H    0.152003
    18  H    0.154753
    19  H    0.155031
    20  H    0.160509
    21  C   -0.298163
    22  C   -0.299631
    23  C   -0.475661
    24  H    0.149496
    25  H    0.149046
    26  H    0.151906
    27  H    0.151996
    28  H    0.155056
    29  H    0.155110
    30  H    0.160206
    31  C   -0.298401
    32  C   -0.300914
    33  C   -0.481433
    34  H    0.149527
    35  H    0.149890
    36  H    0.151341
    37  H    0.151358
    38  H    0.156311
    39  H    0.152926
    40  H    0.168534
 Sum of Mulliken charges =  -0.00000

 Dipole moment (field-independent basis, Debye):
    X=             -0.0525    Y=             -0.0033    Z=              0.0070  Tot=              0.0530
 Quadrupole moment (field-independent basis, Debye-Ang):
   XX=            -85.5576   YY=            -84.9225   ZZ=            -84.3941
   XY=             -1.1508   XZ=              0.0824   YZ=             -0.3040

 Normal termination of Gaussian 16 at Thu May  6 06:52:54 2021.
