 Gaussian 16, Revision A.03,
 Gaussian 16:  EM64L-G16RevA.03 25-Dec-2016

 -------------
 #p 6-31g* mp2
 -------------

 ------------------------------------------------------
 Input file generated by CHIRIPA (05-May-2021 14:55:19)
 ------------------------------------------------------
 Symbolic Z-matrix:
 Charge =  0 Multiplicity = 1

                         Standard orientation:
 ---------------------------------------------------------------------
 Center     Atomic      Atomic             Coordinates (Angstroms)
 Number     Number       Type             X           Y           Z
 ---------------------------------------------------------------------
      1          6           0       -1.916978   -2.769936   -0.372243
      2          6           0       -2.838947   -1.918193   -0.989519
      3          6           0       -2.854854   -0.552614   -0.690372
      4          6           0       -1.930447   -0.070416    0.234964
      5          6           0       -0.999528   -0.893588    0.866682
      6          6           0       -1.001825   -2.255821    0.552257
      7          1           0       -1.911692   -3.829451   -0.610562
      8          1           0       -3.550834   -2.314684   -1.707890
      9          1           0       -3.557723    0.129225   -1.153502
     10          1           0       -0.302179   -0.469082    1.578663
     11          1           0       -0.284671   -2.914943    1.033187
     12          7           0       -1.937651    1.373490    0.559745
     13          8           0       -1.112867    1.773601    1.378451
     14          8           0       -2.767946    2.077773   -0.010549
     15          6           0        2.045420    0.898760   -0.619007
     16          6           0        2.127854    2.318357   -0.056925
     17          6           0        1.274171    3.315232   -0.841310
     18          1           0        2.363640    0.908495   -1.670476
     19          1           0        0.997051    0.569704   -0.612753
     20          1           0        3.175928    2.644118   -0.062951
     21          1           0        1.809583    2.305208    0.993383
     22          1           0        0.220881    3.017055   -0.824850
     23          1           0        1.594989    3.357891   -1.887187
     24          1           0        1.347866    4.323684   -0.422440
     25          6           0        2.893485   -0.109284    0.154530
     26          6           0        2.811052   -1.528880   -0.407553
     27          6           0        3.664734   -2.525755    0.376833
     28          1           0        3.941855    0.219772    0.148276
     29          1           0        2.575265   -0.119019    1.205998
     30          1           0        3.129323   -1.515732   -1.457861
     31          1           0        1.762978   -1.854641   -0.401526
     32          1           0        3.343917   -2.568414    1.422709
     33          1           0        4.718024   -2.227579    0.360373
     34          1           0        3.591039   -3.534208   -0.042037
 ---------------------------------------------------------------------

 SCF Done:  E(RHF) =  -669.534587348     A.U. after   15 cycles
 E2 =    -0.2096885709D+01 EUMP2 =    -0.67163147305726D+03

 The electronic state is 1-A.
 Alpha  occ. eigenvalues --  -20.61069 -20.61064 -15.86069 -11.31374 -11.27947
 Alpha  occ. eigenvalues --  -11.27944 -11.27676 -11.26930 -11.26920 -11.21756
 Alpha  occ. eigenvalues --  -11.21444 -11.21371 -11.20965 -11.20705 -11.19972
 Alpha  occ. eigenvalues --   -1.60123  -1.39677  -1.19565  -1.08963  -1.08214
 Alpha  occ. eigenvalues --   -1.04955  -1.03191  -0.95805  -0.95670  -0.86697
 Alpha  occ. eigenvalues --   -0.86345  -0.82643  -0.79354  -0.77927  -0.77698
 Alpha  occ. eigenvalues --   -0.72305  -0.71490  -0.70664  -0.65217  -0.64982
 Alpha  occ. eigenvalues --   -0.64869  -0.62253  -0.60553  -0.59147  -0.57245
 Alpha  occ. eigenvalues --   -0.55445  -0.55019  -0.53292  -0.53015  -0.52350
 Alpha  occ. eigenvalues --   -0.52081  -0.49732  -0.49061  -0.48985  -0.47623
 Alpha  occ. eigenvalues --   -0.46408  -0.45569  -0.45318  -0.44927  -0.43458
 Alpha  occ. eigenvalues --   -0.37498  -0.36446
 Alpha virt. eigenvalues --    0.04758   0.10986   0.16132   0.19894   0.23261
 Alpha virt. eigenvalues --    0.24325   0.26033   0.27122   0.27966   0.28215
 Alpha virt. eigenvalues --    0.29411   0.30727   0.31647   0.32069   0.32398

 Mulliken charges:
               1
     1  C   -0.171341
     2  C   -0.218528
     3  C   -0.170449
     4  C    0.158872
     5  C   -0.172007
     6  C   -0.218126
     7  H    0.226953
     8  H    0.224400
     9  H    0.276400
    10  H    0.278511
    11  H    0.226385
    12  N    0.488138
    13  O   -0.458674
    14  O   -0.458057
    15  C   -0.301624
    16  C   -0.300005
    17  C   -0.475126
    18  H    0.147738
    19  H    0.147245
    20  H    0.145726
    21  H    0.164907
    22  H    0.165245
    23  H    0.146528
    24  H    0.161437
    25  C   -0.298797
    26  C   -0.306433
    27  C   -0.475626
    28  H    0.151811
    29  H    0.144021
    30  H    0.153710
    31  H    0.150537
    32  H    0.150006
    33  H    0.158911
    34  H    0.157313
 Sum of Mulliken charges =  -0.00000

 Dipole moment (field-independent basis, Debye):
    X=             -0.2453    Y=             -4.9982    Z=             -1.0765  Tot=              5.1187
 Quadrupole moment (field-independent basis, Debye-Ang):
   XX=            -92.1639   YY=            -95.0828   ZZ=            -93.7427
   XY=             10.0716   XZ=              4.4389   YZ=             -0.9823

 Normal termination of Gaussian 16 at Thu May  6 20:37:59 2021.
