 Gaussian 16, Revision A.03,
 Gaussian 16:  EM64L-G16RevA.03 25-Dec-2016

 -------------
 #p 6-31g* mp2
 -------------

 ------------------------------------------------------
 Input file generated by CHIRIPA (05-May-2021 14:57:23)
 ------------------------------------------------------
 Symbolic Z-matrix:
 Charge =  0 Multiplicity = 1

                         Standard orientation:
 ---------------------------------------------------------------------
 Center     Atomic      Atomic             Coordinates (Angstroms)
 Number     Number       Type             X           Y           Z
 ---------------------------------------------------------------------
      1          6           0       -3.886865    2.103881   -0.179981
      2          6           0       -3.489481    1.661759    1.086169
      3          6           0       -2.954297    0.381344    1.255469
      4          6           0       -2.830149   -0.434311    0.131821
      5          6           0       -3.216983   -0.022608   -1.142600
      6          6           0       -3.749589    1.261771   -1.288370
      7          1           0       -4.301607    3.100078   -0.302358
      8          1           0       -3.594923    2.313593    1.948747
      9          1           0       -2.638635    0.013662    2.224275
     10          1           0       -3.099571   -0.695153   -1.983620
     11          1           0       -4.057362    1.602466   -2.272874
     12          7           0       -2.264938   -1.791928    0.298597
     13          8           0       -2.165950   -2.491301   -0.707244
     14          8           0       -1.931616   -2.130948    1.431998
     15          6           0        3.016889   -2.306434   -0.252348
     16          6           0        4.133757   -1.589159    0.188835
     17          6           0        4.093227   -0.194343    0.274812
     18          6           0        2.914255    0.453894   -0.090026
     19          6           0        1.784913   -0.232644   -0.533355
     20          6           0        1.848092   -1.627086   -0.611403
     21          1           0        3.057171   -3.389815   -0.316057
     22          1           0        5.042798   -2.114103    0.468339
     23          1           0        4.943240    0.385743    0.613037
     24          1           0        0.892837    0.318535   -0.805056
     25          1           0        0.979184   -2.181531   -0.954379
     26          7           0        2.859359    1.930324   -0.003203
     27          8           0        1.808778    2.477875   -0.330470
     28          8           0        3.867952    2.512044    0.390470
 ---------------------------------------------------------------------

 SCF Done:  E(RHF) =  -868.340329778     A.U. after   16 cycles
 E2 =    -0.2599042445D+01 EUMP2 =    -0.87093937222224D+03

 The electronic state is 1-A.
 Alpha  occ. eigenvalues --  -20.61482 -20.61433 -20.60520 -20.60507 -15.86473
 Alpha  occ. eigenvalues --  -15.85558 -11.31513 -11.30709 -11.28054 -11.27996
 Alpha  occ. eigenvalues --  -11.27660 -11.27247 -11.27204 -11.26953 -11.26908
 Alpha  occ. eigenvalues --  -11.26853 -11.26227 -11.26028  -1.60534  -1.59595
 Alpha  occ. eigenvalues --   -1.40090  -1.39155  -1.19635  -1.18829  -1.09086
 Alpha  occ. eigenvalues --   -1.08252  -1.04976  -1.04191  -0.95976  -0.95138
 Alpha  occ. eigenvalues --   -0.86391  -0.85587  -0.82817  -0.81975  -0.77914
 Alpha  occ. eigenvalues --   -0.77063  -0.72689  -0.71857  -0.71784  -0.70913
 Alpha  occ. eigenvalues --   -0.70718  -0.69927  -0.65280  -0.64965  -0.64473
 Alpha  occ. eigenvalues --   -0.64150  -0.62331  -0.61534  -0.55468  -0.54667
 Alpha  occ. eigenvalues --   -0.53330  -0.53059  -0.52537  -0.52245  -0.49473
 Alpha  occ. eigenvalues --   -0.49424  -0.48552  -0.48516  -0.45552  -0.44610
 Alpha  occ. eigenvalues --   -0.37576  -0.36776  -0.36557  -0.35786
 Alpha virt. eigenvalues --    0.04552   0.05443   0.11093   0.11876   0.16123
 Alpha virt. eigenvalues --    0.17012   0.21282   0.22064   0.27211   0.27652
 Alpha virt. eigenvalues --    0.28248   0.28845   0.30921   0.31749   0.32362

 Mulliken charges:
               1
     1  C   -0.167305
     2  C   -0.215916
     3  C   -0.169471
     4  C    0.154362
     5  C   -0.174047
     6  C   -0.216954
     7  H    0.229147
     8  H    0.226911
     9  H    0.276497
    10  H    0.273734
    11  H    0.225366
    12  N    0.486473
    13  O   -0.468223
    14  O   -0.456452
    15  C   -0.170571
    16  C   -0.218346
    17  C   -0.172656
    18  C    0.158292
    19  C   -0.174977
    20  C   -0.221872
    21  H    0.228199
    22  H    0.221832
    23  H    0.273123
    24  H    0.270468
    25  H    0.240744
    26  N    0.488170
    27  O   -0.464622
    28  O   -0.461906
 Sum of Mulliken charges =  -0.00000

 Dipole moment (field-independent basis, Debye):
    X=             -2.0747    Y=             -0.4019    Z=             -0.8086  Tot=              2.2627
 Quadrupole moment (field-independent basis, Debye-Ang):
   XX=            -88.5129   YY=           -114.4585   ZZ=           -100.2228
   XY=            -29.0106   XZ=              2.7309   YZ=              2.1807

 Normal termination of Gaussian 16 at Thu May  6 11:17:24 2021.
