 Gaussian 16, Revision A.03,
 Gaussian 16:  EM64L-G16RevA.03 25-Dec-2016

 -------------
 #p 6-31g* mp2
 -------------

 ------------------------------------------------------
 Input file generated by CHIRIPA (05-May-2021 14:53:13)
 ------------------------------------------------------
 Symbolic Z-matrix:
 Charge =  0 Multiplicity = 1

                         Standard orientation:
 ---------------------------------------------------------------------
 Center     Atomic      Atomic             Coordinates (Angstroms)
 Number     Number       Type             X           Y           Z
 ---------------------------------------------------------------------
      1          6           0       -2.795387    1.019374    0.123634
      2          6           0       -2.472540    2.196631   -0.797138
      3          6           0       -1.298771    3.036827   -0.293022
      4          1           0       -3.020165    1.399728    1.129492
      5          1           0       -1.904036    0.384317    0.221571
      6          1           0       -3.364650    2.828528   -0.894413
      7          1           0       -2.248692    1.813445   -1.800968
      8          1           0       -0.393890    2.425765   -0.213062
      9          1           0       -1.516189    3.446616    0.698645
     10          1           0       -1.085152    3.872903   -0.966227
     11          6           0       -3.966534    0.169989   -0.366966
     12          6           0       -4.289382   -1.007268    0.553806
     13          6           0       -5.463150   -1.847463    0.049690
     14          1           0       -4.857885    0.805046   -0.464903
     15          1           0       -3.741757   -0.210365   -1.372824
     16          1           0       -4.513230   -0.624081    1.557636
     17          1           0       -3.397272   -1.639165    0.651081
     18          1           0       -5.245733   -2.257253   -0.941977
     19          1           0       -6.368032   -1.236402   -0.030270
     20          1           0       -5.676769   -2.683539    0.722895
     21          6           0        0.286376   -1.355243    0.258298
     22          6           0        0.680038   -0.268704    1.046324
     23          6           0        1.982335    0.233109    0.964129
     24          6           0        2.869048   -0.378491    0.079270
     25          6           0        2.506895   -1.462404   -0.719019
     26          6           0        1.199451   -1.947581   -0.620309
     27          1           0       -0.727277   -1.738601    0.328564
     28          1           0       -0.026939    0.193296    1.729539
     29          1           0        2.313621    1.073063    1.562581
     30          1           0        3.234066   -1.902056   -1.390843
     31          1           0        0.896508   -2.791528   -1.233518
     32          7           0        4.250456    0.143950   -0.016489
     33          8           0        5.012722   -0.412508   -0.803852
     34          8           0        4.544779    1.100006    0.697632
 ---------------------------------------------------------------------

 SCF Done:  E(RHF) =  -669.533818829     A.U. after   15 cycles
 E2 =    -0.2094631541D+01 EUMP2 =    -0.67162845037020D+03

 The electronic state is 1-A.
 Alpha  occ. eigenvalues --  -20.60800 -20.60794 -15.85853 -11.31252 -11.27817
 Alpha  occ. eigenvalues --  -11.27805 -11.27536 -11.26841 -11.26795 -11.22668
 Alpha  occ. eigenvalues --  -11.22284 -11.22241 -11.22191 -11.21910 -11.21549
 Alpha  occ. eigenvalues --   -1.59874  -1.39427  -1.19431  -1.09315  -1.08812
 Alpha  occ. eigenvalues --   -1.04838  -1.04308  -0.96747  -0.95652  -0.87764
 Alpha  occ. eigenvalues --   -0.86240  -0.82477  -0.80398  -0.79177  -0.77503
 Alpha  occ. eigenvalues --   -0.72072  -0.71197  -0.70572  -0.66003  -0.65070
 Alpha  occ. eigenvalues --   -0.64786  -0.62200  -0.61692  -0.60116  -0.58367
 Alpha  occ. eigenvalues --   -0.56047  -0.55324  -0.53414  -0.53207  -0.53175
 Alpha  occ. eigenvalues --   -0.52901  -0.50703  -0.48845  -0.48825  -0.48684
 Alpha  occ. eigenvalues --   -0.47444  -0.46632  -0.46573  -0.44825  -0.44575
 Alpha  occ. eigenvalues --   -0.37345  -0.36382
 Alpha virt. eigenvalues --    0.04963   0.11101   0.16340   0.19371   0.22704
 Alpha virt. eigenvalues --    0.23182   0.25240   0.25998   0.26801   0.27915
 Alpha virt. eigenvalues --    0.29725   0.30116   0.30984   0.31317   0.31648

 Mulliken charges:
               1
     1  C   -0.307905
     2  C   -0.297836
     3  C   -0.482139
     4  H    0.148369
     5  H    0.148652
     6  H    0.154055
     7  H    0.153978
     8  H    0.158585
     9  H    0.152990
    10  H    0.164736
    11  C   -0.298508
    12  C   -0.302016
    13  C   -0.475853
    14  H    0.154005
    15  H    0.150345
    16  H    0.154861
    17  H    0.141719
    18  H    0.155773
    19  H    0.159043
    20  H    0.162029
    21  C   -0.175891
    22  C   -0.218738
    23  C   -0.173240
    24  C    0.158420
    25  C   -0.170619
    26  C   -0.220963
    27  H    0.232661
    28  H    0.228952
    29  H    0.276660
    30  H    0.275882
    31  H    0.224105
    32  N    0.488069
    33  O   -0.460266
    34  O   -0.459915
 Sum of Mulliken charges =  -0.00000

 Dipole moment (field-independent basis, Debye):
    X=             -4.9369    Y=             -1.8015    Z=              0.2828  Tot=              5.2629
 Quadrupole moment (field-independent basis, Debye-Ang):
   XX=           -122.6652   YY=            -91.3790   ZZ=            -92.4910
   XY=             -5.3127   XZ=             -0.6381   YZ=              2.5795

 Normal termination of Gaussian 16 at Thu May  6 18:43:44 2021.
