 Gaussian 16, Revision A.03,
 Gaussian 16:  EM64L-G16RevA.03 25-Dec-2016

 -------------
 #p 6-31g* mp2
 -------------

 ------------------------------------------------------
 Input file generated by CHIRIPA (05-May-2021 14:55:22)
 ------------------------------------------------------
 Symbolic Z-matrix:
 Charge =  0 Multiplicity = 1

                         Standard orientation:
 ---------------------------------------------------------------------
 Center     Atomic      Atomic             Coordinates (Angstroms)
 Number     Number       Type             X           Y           Z
 ---------------------------------------------------------------------
      1          6           0        0.908006   -0.153221    1.012131
      2          6           0        1.505956    1.010299    0.516955
      3          6           0        2.814485    0.982237    0.025518
      4          6           0        3.499049   -0.231974    0.044360
      5          6           0        2.930698   -1.408103    0.531174
      6          6           0        1.621028   -1.356587    1.017650
      7          1           0       -0.108935   -0.122311    1.391964
      8          1           0        0.954603    1.946261    0.511435
      9          1           0        3.301576    1.868095   -0.363603
     10          1           0        3.505495   -2.326237    0.523672
     11          1           0        1.159187   -2.261753    1.401604
     12          7           0        4.884934   -0.274097   -0.473277
     13          8           0        5.466777   -1.356380   -0.445698
     14          8           0        5.363107    0.775967   -0.896778
     15          6           0       -4.748669   -0.158176    0.095163
     16          6           0       -4.974109   -1.409305   -0.754449
     17          6           0       -6.102123   -2.291916   -0.219309
     18          1           0       -4.522340   -0.459384    1.127148
     19          1           0       -5.681154    0.421640    0.136153
     20          1           0       -4.041085   -1.985883   -0.794966
     21          1           0       -5.199739   -1.105089   -1.784575
     22          1           0       -7.046155   -1.738009   -0.194974
     23          1           0       -5.880919   -2.623808    0.800257
     24          1           0       -6.246169   -3.180627   -0.841648
     25          6           0       -3.624165    0.734257   -0.427124
     26          6           0       -3.398726    1.985385    0.422487
     27          6           0       -2.270711    2.867996   -0.112652
     28          1           0       -2.691681    0.154440   -0.468116
     29          1           0       -3.850494    1.035464   -1.459110
     30          1           0       -3.173096    1.681169    1.452612
     31          1           0       -4.331749    2.561964    0.463004
     32          1           0       -2.491916    3.199888   -1.132220
     33          1           0       -1.326680    2.314089   -0.136989
     34          1           0       -2.126664    3.756706    0.509686
 ---------------------------------------------------------------------

 SCF Done:  E(RHF) =  -669.535467186     A.U. after   15 cycles
 E2 =    -0.2091436040D+01 EUMP2 =    -0.67162690322521D+03

 The electronic state is 1-A.
 Alpha  occ. eigenvalues --  -20.60762 -20.60757 -15.85815 -11.31192 -11.27762
 Alpha  occ. eigenvalues --  -11.27750 -11.27512 -11.26783 -11.26747 -11.22612
 Alpha  occ. eigenvalues --  -11.22293 -11.22262 -11.22200 -11.22143 -11.21633
 Alpha  occ. eigenvalues --   -1.59837  -1.39390  -1.19364  -1.09283  -1.08760
 Alpha  occ. eigenvalues --   -1.04768  -1.04374  -0.96829  -0.95592  -0.87849
 Alpha  occ. eigenvalues --   -0.86168  -0.82422  -0.80440  -0.79064  -0.77468
 Alpha  occ. eigenvalues --   -0.72034  -0.71160  -0.70480  -0.65944  -0.65017
 Alpha  occ. eigenvalues --   -0.64792  -0.62183  -0.61717  -0.60194  -0.58415
 Alpha  occ. eigenvalues --   -0.56142  -0.55269  -0.53518  -0.53283  -0.53088
 Alpha  occ. eigenvalues --   -0.52826  -0.50760  -0.48810  -0.48788  -0.48723
 Alpha  occ. eigenvalues --   -0.47477  -0.46605  -0.46533  -0.44793  -0.44620
 Alpha  occ. eigenvalues --   -0.37345  -0.36364
 Alpha virt. eigenvalues --    0.05054   0.11193   0.16502   0.18869   0.22524
 Alpha virt. eigenvalues --    0.23779   0.25448   0.25548   0.26712   0.28214
 Alpha virt. eigenvalues --    0.29012   0.30240   0.30871   0.31478   0.31658

 Mulliken charges:
               1
     1  C   -0.173449
     2  C   -0.222556
     3  C   -0.171187
     4  C    0.158776
     5  C   -0.170969
     6  C   -0.218569
     7  H    0.226733
     8  H    0.229312
     9  H    0.276048
    10  H    0.275648
    11  H    0.223326
    12  N    0.487996
    13  O   -0.460411
    14  O   -0.460239
    15  C   -0.298572
    16  C   -0.299908
    17  C   -0.476076
    18  H    0.147437
    19  H    0.152272
    20  H    0.150613
    21  H    0.154266
    22  H    0.156696
    23  H    0.154661
    24  H    0.162323
    25  C   -0.299651
    26  C   -0.300420
    27  C   -0.481361
    28  H    0.145553
    29  H    0.153886
    30  H    0.148136
    31  H    0.157120
    32  H    0.161797
    33  H    0.148093
    34  H    0.162676
 Sum of Mulliken charges =  -0.00000

 Dipole moment (field-independent basis, Debye):
    X=             -5.0760    Y=              0.1747    Z=              1.7543  Tot=              5.3735
 Quadrupole moment (field-independent basis, Debye-Ang):
   XX=           -128.8216   YY=            -90.0917   ZZ=            -94.9297
   XY=              0.3216   XZ=              7.0990   YZ=             -1.8014

 Normal termination of Gaussian 16 at Thu May  6 01:27:21 2021.
