 Gaussian 16, Revision A.03,
 Gaussian 16:  EM64L-G16RevA.03 25-Dec-2016

 -------------
 #p 6-31g* mp2
 -------------

 ------------------------------------------------------
 Input file generated by CHIRIPA (05-May-2021 14:57:22)
 ------------------------------------------------------
 Symbolic Z-matrix:
 Charge =  0 Multiplicity = 1

                         Standard orientation:
 ---------------------------------------------------------------------
 Center     Atomic      Atomic             Coordinates (Angstroms)
 Number     Number       Type             X           Y           Z
 ---------------------------------------------------------------------
      1          6           0        6.646118   -0.354239    0.025635
      2          6           0        6.036519    0.690084   -0.677428
      3          6           0        4.645319    0.828325   -0.678409
      4          6           0        3.890863   -0.099845    0.037542
      5          6           0        4.468728   -1.151030    0.747735
      6          6           0        5.861660   -1.269849    0.734723
      7          1           0        7.727509   -0.454084    0.020962
      8          1           0        6.643231    1.402632   -1.228991
      9          1           0        4.147363    1.627365   -1.214126
     10          1           0        3.837498   -1.845811    1.288332
     11          1           0        6.332355   -2.081874    1.281629
     12          7           0        2.417145    0.036224    0.043910
     13          8           0        1.774782   -0.794599    0.682455
     14          8           0        1.932314    0.971121   -0.589763
     15          6           0       -2.486069    2.019841    0.187790
     16          6           0       -2.159709    0.896324   -0.578838
     17          6           0       -3.064900   -0.161007   -0.710090
     18          6           0       -4.293041   -0.061179   -0.058175
     19          6           0       -4.647410    1.044940    0.712678
     20          6           0       -3.726691    2.090438    0.829970
     21          1           0       -1.776864    2.836606    0.284327
     22          1           0       -1.196958    0.838769   -1.078683
     23          1           0       -2.838015   -1.042505   -1.297375
     24          1           0       -5.614847    1.073572    1.199159
     25          1           0       -3.982849    2.961750    1.425994
     26          7           0       -5.259546   -1.174265   -0.189735
     27          8           0       -6.335023   -1.062051    0.394555
     28          8           0       -4.923315   -2.137839   -0.874652
 ---------------------------------------------------------------------

 SCF Done:  E(RHF) =  -868.340571198     A.U. after   16 cycles
 E2 =    -0.2598326304D+01 EUMP2 =    -0.87093889750180D+03

 The electronic state is 1-A.
 Alpha  occ. eigenvalues --  -20.61769 -20.61745 -20.59823 -20.59813 -15.86763
 Alpha  occ. eigenvalues --  -15.84861 -11.31848 -11.29993 -11.28394 -11.28361
 Alpha  occ. eigenvalues --  -11.28066 -11.27334 -11.27312 -11.26569 -11.26424
 Alpha  occ. eigenvalues --  -11.26141 -11.25570 -11.25234  -1.60812  -1.58900
 Alpha  occ. eigenvalues --   -1.40371  -1.38460  -1.19991  -1.18112  -1.09440
 Alpha  occ. eigenvalues --   -1.07542  -1.05349  -1.03461  -0.96322  -0.94429
 Alpha  occ. eigenvalues --   -0.86761  -0.84860  -0.83163  -0.81261  -0.78242
 Alpha  occ. eigenvalues --   -0.76346  -0.72996  -0.72105  -0.71093  -0.71088
 Alpha  occ. eigenvalues --   -0.70218  -0.69216  -0.65646  -0.65349  -0.63752
 Alpha  occ. eigenvalues --   -0.63419  -0.62698  -0.60802  -0.55859  -0.53955
 Alpha  occ. eigenvalues --   -0.53695  -0.53436  -0.51825  -0.51538  -0.49760
 Alpha  occ. eigenvalues --   -0.49716  -0.47856  -0.47816  -0.45835  -0.43918
 Alpha  occ. eigenvalues --   -0.37953  -0.36939  -0.36076  -0.35051
 Alpha virt. eigenvalues --    0.04270   0.06146   0.10720   0.12602   0.15824
 Alpha virt. eigenvalues --    0.17723   0.20893   0.22812   0.26825   0.27751
 Alpha virt. eigenvalues --    0.28805   0.29556   0.30492   0.31956   0.32447

 Mulliken charges:
               1
     1  C   -0.169711
     2  C   -0.218524
     3  C   -0.170685
     4  C    0.157621
     5  C   -0.170246
     6  C   -0.218561
     7  H    0.227936
     8  H    0.225050
     9  H    0.274518
    10  H    0.277372
    11  H    0.225965
    12  N    0.489445
    13  O   -0.456100
    14  O   -0.470402
    15  C   -0.172360
    16  C   -0.218617
    17  C   -0.172544
    18  C    0.157935
    19  C   -0.173733
    20  C   -0.219006
    21  H    0.226370
    22  H    0.243969
    23  H    0.273630
    24  H    0.271004
    25  H    0.218342
    26  N    0.488196
    27  O   -0.464367
    28  O   -0.462496
 Sum of Mulliken charges =  -0.00000

 Dipole moment (field-independent basis, Debye):
    X=              9.2621    Y=              3.3770    Z=              0.4302  Tot=              9.8679
 Quadrupole moment (field-independent basis, Debye-Ang):
   XX=            -93.1564   YY=           -101.6738   ZZ=           -102.6723
   XY=            -21.2200   XZ=             -4.1838   YZ=             -1.5578

 Normal termination of Gaussian 16 at Fri May  7 03:19:33 2021.
