 Gaussian 16, Revision A.03,
 Gaussian 16:  EM64L-G16RevA.03 25-Dec-2016

 -------------
 #p 6-31g* mp2
 -------------

 ------------------------------------------------------
 Input file generated by CHIRIPA (05-May-2021 14:57:26)
 ------------------------------------------------------
 Symbolic Z-matrix:
 Charge =  0 Multiplicity = 1

                         Standard orientation:
 ---------------------------------------------------------------------
 Center     Atomic      Atomic             Coordinates (Angstroms)
 Number     Number       Type             X           Y           Z
 ---------------------------------------------------------------------
      1          6           0        3.408266   -1.621869    0.048080
      2          6           0        3.588705   -0.611975    0.998910
      3          6           0        2.944138    0.620449    0.856738
      4          6           0        2.122586    0.809672   -0.253458
      5          6           0        1.922732   -0.176892   -1.217844
      6          6           0        2.577321   -1.401492   -1.055317
      7          1           0        3.912873   -2.576207    0.166428
      8          1           0        4.233442   -0.780316    1.856826
      9          1           0        3.066112    1.419586    1.577794
     10          1           0        1.273849    0.020490   -2.062480
     11          1           0        2.435333   -2.183975   -1.795321
     12          7           0        1.434908    2.110243   -0.414744
     13          8           0        0.716335    2.251983   -1.401760
     14          8           0        1.627499    2.963265    0.448911
     15          6           0       -0.470228   -2.393305    0.351365
     16          6           0       -1.371228   -2.369888   -0.718295
     17          6           0       -2.353647   -1.378364   -0.797529
     18          6           0       -2.406625   -0.421500    0.214842
     19          6           0       -1.523245   -0.418114    1.293229
     20          6           0       -0.548973   -1.419062    1.351948
     21          1           0        0.289774   -3.167205    0.404948
     22          1           0       -1.312429   -3.125224   -1.496792
     23          1           0       -3.063798   -1.336663   -1.614454
     24          1           0       -1.606690    0.348289    2.054202
     25          1           0        0.149431   -1.434776    2.183831
     26          7           0       -3.442356    0.633170    0.141819
     27          8           0       -3.468065    1.464814    1.046443
     28          8           0       -4.208841    0.608206   -0.818658
 ---------------------------------------------------------------------

 SCF Done:  E(RHF) =  -868.335360872     A.U. after   16 cycles
 E2 =    -0.2605089675D+01 EUMP2 =    -0.87094045054684D+03

 The electronic state is 1-A.
 Alpha  occ. eigenvalues --  -20.61062 -20.61054 -20.60430 -20.60408 -15.86122
 Alpha  occ. eigenvalues --  -15.85490 -11.31708 -11.31084 -11.28351 -11.28286
 Alpha  occ. eigenvalues --  -11.28174 -11.27742 -11.27681 -11.27549 -11.27440
 Alpha  occ. eigenvalues --  -11.27411 -11.26819 -11.26730  -1.60131  -1.59487
 Alpha  occ. eigenvalues --   -1.39679  -1.39037  -1.19951  -1.19305  -1.09310
 Alpha  occ. eigenvalues --   -1.08666  -1.05382  -1.04758  -0.96089  -0.95458
 Alpha  occ. eigenvalues --   -0.86775  -0.86143  -0.82918  -0.82291  -0.77911
 Alpha  occ. eigenvalues --   -0.77282  -0.72334  -0.71712  -0.71470  -0.71061
 Alpha  occ. eigenvalues --   -0.70797  -0.70455  -0.65595  -0.65400  -0.64963
 Alpha  occ. eigenvalues --   -0.64776  -0.62717  -0.62097  -0.55904  -0.55314
 Alpha  occ. eigenvalues --   -0.54231  -0.53477  -0.52866  -0.52551  -0.49109
 Alpha  occ. eigenvalues --   -0.49075  -0.48487  -0.48446  -0.45033  -0.44396
 Alpha  occ. eigenvalues --   -0.38117  -0.37821  -0.36351  -0.36258
 Alpha virt. eigenvalues --    0.04500   0.05380   0.10600   0.11217   0.15903
 Alpha virt. eigenvalues --    0.16869   0.20351   0.21577   0.26290   0.27249
 Alpha virt. eigenvalues --    0.27547   0.28569   0.30283   0.30867   0.32006

 Mulliken charges:
               1
     1  C   -0.177427
     2  C   -0.221684
     3  C   -0.174658
     4  C    0.161644
     5  C   -0.161723
     6  C   -0.220499
     7  H    0.224493
     8  H    0.224250
     9  H    0.277356
    10  H    0.277823
    11  H    0.220438
    12  N    0.487366
    13  O   -0.456293
    14  O   -0.458622
    15  C   -0.164744
    16  C   -0.225463
    17  C   -0.169864
    18  C    0.162584
    19  C   -0.174066
    20  C   -0.217177
    21  H    0.218175
    22  H    0.218894
    23  H    0.276405
    24  H    0.279012
    25  H    0.221480
    26  N    0.489668
    27  O   -0.456828
    28  O   -0.460539
 Sum of Mulliken charges =  -0.00000

 Dipole moment (field-independent basis, Debye):
    X=              5.9713    Y=             -7.9704    Z=              0.7868  Tot=              9.9901
 Quadrupole moment (field-independent basis, Debye-Ang):
   XX=           -112.0094   YY=           -109.4109   ZZ=            -98.1685
   XY=              1.1259   XZ=              4.3797   YZ=              4.2256

 Normal termination of Gaussian 16 at Wed May  5 18:00:57 2021.
