 Gaussian 16, Revision A.03,
 Gaussian 16:  EM64L-G16RevA.03 25-Dec-2016

 -------------
 #p 6-31g* mp2
 -------------

 ------------------------------------------------------
 Input file generated by CHIRIPA (05-May-2021 14:55:23)
 ------------------------------------------------------
 Symbolic Z-matrix:
 Charge =  0 Multiplicity = 1

                         Standard orientation:
 ---------------------------------------------------------------------
 Center     Atomic      Atomic             Coordinates (Angstroms)
 Number     Number       Type             X           Y           Z
 ---------------------------------------------------------------------
      1          6           0       -2.352421   -2.396811   -1.144344
      2          6           0       -1.312348   -2.323877   -0.211902
      3          6           0       -1.155092   -1.188806    0.588993
      4          6           0       -2.060120   -0.140450    0.430357
      5          6           0       -3.106492   -0.183172   -0.489736
      6          6           0       -3.244601   -1.328110   -1.280046
      7          1           0       -2.467145   -3.282394   -1.762387
      8          1           0       -0.617978   -3.152325   -0.104346
      9          1           0       -0.358833   -1.105920    1.318732
     10          1           0       -3.782957    0.658667   -0.574115
     11          1           0       -4.053271   -1.381982   -2.003368
     12          7           0       -1.903775    1.066422    1.272625
     13          8           0       -2.714375    1.976516    1.113586
     14          8           0       -0.973592    1.079422    2.075887
     15          6           0        2.749436   -0.314399   -0.244929
     16          6           0        4.045012   -0.670387    0.484963
     17          6           0        4.189648   -2.171959    0.734272
     18          1           0        1.894023   -0.673951    0.343234
     19          1           0        2.717406   -0.850910   -1.203327
     20          1           0        4.075231   -0.132291    1.441078
     21          1           0        4.897433   -0.309777   -0.104912
     22          1           0        4.185306   -2.721828   -0.212421
     23          1           0        3.358433   -2.543334    1.342353
     24          1           0        5.122704   -2.404065    1.257144
     25          6           0        2.590435    1.183153   -0.501415
     26          6           0        1.294860    1.539141   -1.231307
     27          6           0        1.150222    3.040713   -1.480616
     28          1           0        2.622466    1.719663    0.456982
     29          1           0        3.445848    1.542706   -1.089578
     30          1           0        0.442438    1.178530   -0.641432
     31          1           0        1.264639    1.001044   -2.187422
     32          1           0        1.981438    3.412087   -2.088696
     33          1           0        1.154566    3.590581   -0.533924
     34          1           0        0.217167    3.272818   -2.003488
 ---------------------------------------------------------------------

 SCF Done:  E(RHF) =  -669.534957788     A.U. after   15 cycles
 E2 =    -0.2094212037D+01 EUMP2 =    -0.67162916982548D+03

 The electronic state is 1-A.
 Alpha  occ. eigenvalues --  -20.60887 -20.60881 -15.85915 -11.31226 -11.27802
 Alpha  occ. eigenvalues --  -11.27793 -11.27534 -11.26807 -11.26794 -11.21644
 Alpha  occ. eigenvalues --  -11.21438 -11.21303 -11.21286 -11.21116 -11.20604
 Alpha  occ. eigenvalues --   -1.59951  -1.39507  -1.19413  -1.08816  -1.08323
 Alpha  occ. eigenvalues --   -1.04806  -1.03405  -0.95867  -0.95655  -0.86878
 Alpha  occ. eigenvalues --   -0.86211  -0.82489  -0.79498  -0.78170  -0.77526
 Alpha  occ. eigenvalues --   -0.72143  -0.71294  -0.70528  -0.65068  -0.65013
 Alpha  occ. eigenvalues --   -0.64744  -0.62156  -0.60791  -0.59256  -0.57478
 Alpha  occ. eigenvalues --   -0.55325  -0.55141  -0.53170  -0.52905  -0.52535
 Alpha  occ. eigenvalues --   -0.52292  -0.49799  -0.48905  -0.48897  -0.47815
 Alpha  occ. eigenvalues --   -0.46546  -0.45752  -0.45572  -0.44811  -0.43660
 Alpha  occ. eigenvalues --   -0.37350  -0.36361
 Alpha virt. eigenvalues --    0.04945   0.11164   0.16446   0.20509   0.23034
 Alpha virt. eigenvalues --    0.24286   0.25595   0.27251   0.27816   0.28024
 Alpha virt. eigenvalues --    0.29107   0.31142   0.31474   0.31762   0.32233

 Mulliken charges:
               1
     1  C   -0.170701
     2  C   -0.217323
     3  C   -0.171545
     4  C    0.156255
     5  C   -0.171366
     6  C   -0.218219
     7  H    0.225895
     8  H    0.224476
     9  H    0.276174
    10  H    0.275726
    11  H    0.223624
    12  N    0.491109
    13  O   -0.458802
    14  O   -0.460861
    15  C   -0.299095
    16  C   -0.300057
    17  C   -0.474897
    18  H    0.143767
    19  H    0.146405
    20  H    0.156390
    21  H    0.152979
    22  H    0.153060
    23  H    0.149480
    24  H    0.162217
    25  C   -0.298335
    26  C   -0.300964
    27  C   -0.476688
    28  H    0.158345
    29  H    0.148271
    30  H    0.151847
    31  H    0.147195
    32  H    0.152239
    33  H    0.163853
    34  H    0.159548
 Sum of Mulliken charges =  -0.00000

 Dipole moment (field-independent basis, Debye):
    X=             -0.6000    Y=             -4.1461    Z=             -2.9091  Tot=              5.1003
 Quadrupole moment (field-independent basis, Debye-Ang):
   XX=            -89.2106   YY=            -94.1913   ZZ=            -96.4018
   XY=              7.5401   XZ=              7.7793   YZ=             -1.8150

 Normal termination of Gaussian 16 at Thu May  6 11:01:06 2021.
