 Gaussian 16, Revision A.03,
 Gaussian 16:  EM64L-G16RevA.03 25-Dec-2016

 -------------
 #p 6-31g* mp2
 -------------

 ------------------------------------------------------
 Input file generated by CHIRIPA (05-May-2021 14:55:25)
 ------------------------------------------------------
 Symbolic Z-matrix:
 Charge =  0 Multiplicity = 1

                         Standard orientation:
 ---------------------------------------------------------------------
 Center     Atomic      Atomic             Coordinates (Angstroms)
 Number     Number       Type             X           Y           Z
 ---------------------------------------------------------------------
      1          6           0       -2.615827    1.985128    1.335613
      2          6           0       -1.503011    1.615710    0.572925
      3          6           0       -1.499288    0.414175   -0.141811
      4          6           0       -2.630356   -0.397594   -0.071054
      5          6           0       -3.754398   -0.057183    0.679905
      6          6           0       -3.735994    1.148977    1.386578
      7          1           0       -2.610124    2.920306    1.887705
      8          1           0       -0.631686    2.263105    0.531497
      9          1           0       -0.651298    0.103787   -0.740133
     10          1           0       -4.608343   -0.723306    0.701733
     11          1           0       -4.601638    1.433314    1.978066
     12          7           0       -2.638127   -1.672054   -0.823446
     13          8           0       -3.646956   -2.369690   -0.744671
     14          8           0       -1.635243   -1.949206   -1.477698
     15          6           0        2.751223    0.679437   -0.183499
     16          6           0        3.025029    1.876083   -1.095120
     17          6           0        1.787093    2.745580   -1.317116
     18          1           0        1.947279    0.070774   -0.619557
     19          1           0        2.378579    1.042402    0.784381
     20          1           0        3.398357    1.511034   -2.060512
     21          1           0        3.828546    2.481865   -0.656938
     22          1           0        1.415798    3.137547   -0.364696
     23          1           0        0.983165    2.161199   -1.776246
     24          1           0        2.005347    3.595167   -1.971658
     25          6           0        3.979210   -0.199315    0.047949
     26          6           0        3.705403   -1.395960    0.959571
     27          6           0        4.943340   -2.265457    1.181567
     28          1           0        4.351853   -0.562279   -0.919929
     29          1           0        4.783154    0.409349    0.484008
     30          1           0        2.901886   -2.001743    0.521389
     31          1           0        3.332076   -1.030911    1.924963
     32          1           0        5.747268   -1.681076    1.640697
     33          1           0        5.314634   -2.657424    0.229148
     34          1           0        4.725086   -3.115045    1.836108
 ---------------------------------------------------------------------

 SCF Done:  E(RHF) =  -669.535230636     A.U. after   15 cycles
 E2 =    -0.2092564243D+01 EUMP2 =    -0.67162779487868D+03

 The electronic state is 1-A.
 Alpha  occ. eigenvalues --  -20.60720 -20.60713 -15.85769 -11.31089 -11.27659
 Alpha  occ. eigenvalues --  -11.27621 -11.27380 -11.26676 -11.26578 -11.22269
 Alpha  occ. eigenvalues --  -11.22080 -11.22014 -11.21743 -11.21681 -11.21126
 Alpha  occ. eigenvalues --   -1.59794  -1.39349  -1.19254  -1.08906  -1.08659
 Alpha  occ. eigenvalues --   -1.04651  -1.03990  -0.96481  -0.95504  -0.87505
 Alpha  occ. eigenvalues --   -0.86049  -0.82343  -0.80092  -0.78694  -0.77367
 Alpha  occ. eigenvalues --   -0.71990  -0.71115  -0.70377  -0.65554  -0.64904
 Alpha  occ. eigenvalues --   -0.64650  -0.62049  -0.61374  -0.59841  -0.58069
 Alpha  occ. eigenvalues --   -0.55794  -0.55160  -0.53200  -0.53092  -0.52961
 Alpha  occ. eigenvalues --   -0.52527  -0.50428  -0.48754  -0.48747  -0.48357
 Alpha  occ. eigenvalues --   -0.47090  -0.46213  -0.46094  -0.44764  -0.44234
 Alpha  occ. eigenvalues --   -0.37240  -0.36239
 Alpha virt. eigenvalues --    0.05119   0.11389   0.16593   0.19459   0.22843
 Alpha virt. eigenvalues --    0.23833   0.24173   0.25966   0.27231   0.28318
 Alpha virt. eigenvalues --    0.29636   0.30474   0.31287   0.31523   0.32265

 Mulliken charges:
               1
     1  C   -0.172467
     2  C   -0.224370
     3  C   -0.179683
     4  C    0.159302
     5  C   -0.170893
     6  C   -0.218609
     7  H    0.225403
     8  H    0.232958
     9  H    0.281310
    10  H    0.275106
    11  H    0.222904
    12  N    0.487883
    13  O   -0.460582
    14  O   -0.461516
    15  C   -0.305350
    16  C   -0.299270
    17  C   -0.483103
    18  H    0.152556
    19  H    0.146119
    20  H    0.157738
    21  H    0.154495
    22  H    0.147763
    23  H    0.155819
    24  H    0.167319
    25  C   -0.298052
    26  C   -0.301705
    27  C   -0.476154
    28  H    0.153049
    29  H    0.149993
    30  H    0.158266
    31  H    0.150565
    32  H    0.154121
    33  H    0.156888
    34  H    0.162199
 Sum of Mulliken charges =  -0.00000

 Dipole moment (field-independent basis, Debye):
    X=              0.2537    Y=              4.4473    Z=              2.5849  Tot=              5.1502
 Quadrupole moment (field-independent basis, Debye-Ang):
   XX=            -90.7530   YY=            -98.8895   ZZ=            -94.5835
   XY=            -10.2572   XZ=             -9.1441   YZ=             -1.2295

 Normal termination of Gaussian 16 at Thu May  6 03:12:31 2021.
