 Gaussian 16, Revision A.03,
 Gaussian 16:  EM64L-G16RevA.03 25-Dec-2016

 -------------
 #p 6-31g* mp2
 -------------

 ------------------------------------------------------
 Input file generated by CHIRIPA (05-May-2021 14:53:16)
 ------------------------------------------------------
 Symbolic Z-matrix:
 Charge =  0 Multiplicity = 1

                         Standard orientation:
 ---------------------------------------------------------------------
 Center     Atomic      Atomic             Coordinates (Angstroms)
 Number     Number       Type             X           Y           Z
 ---------------------------------------------------------------------
      1          6           0        3.929846    0.800621   -0.121314
      2          6           0        3.467842    1.993334    0.716525
      3          6           0        4.203917    3.285626    0.361605
      4          1           0        5.010307    0.659076    0.018378
      5          1           0        3.779528    1.028857   -1.185601
      6          1           0        3.617702    1.762370    1.778981
      7          1           0        2.388320    2.131937    0.574970
      8          1           0        4.044755    3.543118   -0.690520
      9          1           0        5.281122    3.171451    0.520331
     10          1           0        3.858109    4.125355    0.972451
     11          6           0        3.203187   -0.498578    0.221873
     12          6           0        3.665191   -1.691290   -0.615966
     13          6           0        2.929116   -2.983583   -0.261046
     14          1           0        3.353505   -0.726814    1.286160
     15          1           0        2.122726   -0.357033    0.082180
     16          1           0        4.744713   -1.829894   -0.474412
     17          1           0        3.515331   -1.460327   -1.678422
     18          1           0        1.851911   -2.869408   -0.419773
     19          1           0        3.088278   -3.241075    0.791079
     20          1           0        3.274924   -3.823312   -0.871892
     21          6           0       -1.141645   -2.015568    0.205823
     22          6           0       -0.905061   -1.000228   -0.726719
     23          6           0       -1.809498    0.056038   -0.871094
     24          6           0       -2.945344    0.065465   -0.062976
     25          6           0       -3.209001   -0.931404    0.875121
     26          6           0       -2.290833   -1.977982    1.002361
     27          1           0       -0.433724   -2.832339    0.311323
     28          1           0       -0.013430   -1.026827   -1.346663
     29          1           0       -1.650999    0.855086   -1.585110
     30          1           0       -4.106710   -0.877582    1.478974
     31          1           0       -2.477151   -2.765146    1.727417
     32          7           0       -3.910099    1.178560   -0.206750
     33          8           0       -4.903278    1.163809    0.517137
     34          8           0       -3.654826    2.044676   -1.040606
 ---------------------------------------------------------------------

 SCF Done:  E(RHF) =  -669.535111800     A.U. after   15 cycles
 E2 =    -0.2092388160D+01 EUMP2 =    -0.67162749996013D+03

 The electronic state is 1-A.
 Alpha  occ. eigenvalues --  -20.60772 -20.60767 -15.85827 -11.31197 -11.27784
 Alpha  occ. eigenvalues --  -11.27771 -11.27488 -11.26782 -11.26765 -11.22554
 Alpha  occ. eigenvalues --  -11.22309 -11.22163 -11.22027 -11.21953 -11.21372
 Alpha  occ. eigenvalues --   -1.59848  -1.39401  -1.19375  -1.09153  -1.08763
 Alpha  occ. eigenvalues --   -1.04784  -1.04251  -0.96717  -0.95599  -0.87737
 Alpha  occ. eigenvalues --   -0.86182  -0.82434  -0.80331  -0.78912  -0.77480
 Alpha  occ. eigenvalues --   -0.72045  -0.71171  -0.70499  -0.65862  -0.65026
 Alpha  occ. eigenvalues --   -0.64754  -0.62164  -0.61607  -0.60093  -0.58308
 Alpha  occ. eigenvalues --   -0.56102  -0.55236  -0.53396  -0.53137  -0.53082
 Alpha  occ. eigenvalues --   -0.52874  -0.50672  -0.48805  -0.48800  -0.48624
 Alpha  occ. eigenvalues --   -0.47359  -0.46451  -0.46355  -0.44806  -0.44479
 Alpha  occ. eigenvalues --   -0.37332  -0.36374
 Alpha virt. eigenvalues --    0.05060   0.11127   0.16519   0.19060   0.22561
 Alpha virt. eigenvalues --    0.23826   0.25563   0.25762   0.26869   0.28283
 Alpha virt. eigenvalues --    0.28939   0.30296   0.30955   0.31376   0.31964

 Mulliken charges:
               1
     1  C   -0.298530
     2  C   -0.300330
     3  C   -0.476170
     4  H    0.151567
     5  H    0.148815
     6  H    0.152991
     7  H    0.153261
     8  H    0.155779
     9  H    0.155495
    10  H    0.163055
    11  C   -0.303396
    12  C   -0.300753
    13  C   -0.479204
    14  H    0.151924
    15  H    0.148054
    16  H    0.157119
    17  H    0.151170
    18  H    0.143455
    19  H    0.158910
    20  H    0.165383
    21  C   -0.173939
    22  C   -0.220067
    23  C   -0.171919
    24  C    0.158201
    25  C   -0.170323
    26  C   -0.218727
    27  H    0.231128
    28  H    0.224669
    29  H    0.275532
    30  H    0.275716
    31  H    0.223873
    32  N    0.488096
    33  O   -0.460313
    34  O   -0.460522
 Sum of Mulliken charges =  -0.00000

 Dipole moment (field-independent basis, Debye):
    X=              3.5472    Y=             -3.8797    Z=              0.5691  Tot=              5.2876
 Quadrupole moment (field-independent basis, Debye-Ang):
   XX=           -112.6026   YY=            -95.7861   ZZ=            -92.2102
   XY=             12.5926   XZ=             -3.4486   YZ=             -1.4669

 Normal termination of Gaussian 16 at Wed May  5 20:19:20 2021.
