 Gaussian 16, Revision A.03,
 Gaussian 16:  EM64L-G16RevA.03 25-Dec-2016

 -------------
 #p 6-31g* mp2
 -------------

 ------------------------------------------------------
 Input file generated by CHIRIPA (05-May-2021 14:51:14)
 ------------------------------------------------------
 Symbolic Z-matrix:
 Charge =  0 Multiplicity = 1

                         Standard orientation:
 ---------------------------------------------------------------------
 Center     Atomic      Atomic             Coordinates (Angstroms)
 Number     Number       Type             X           Y           Z
 ---------------------------------------------------------------------
      1          6           0        2.780447   -0.087207   -0.282120
      2          6           0        2.160763   -1.164103   -1.173339
      3          6           0        3.147091   -2.277135   -1.528460
      4          1           0        3.653583    0.343329   -0.791254
      5          1           0        3.154809   -0.554403    0.639279
      6          1           0        1.786441   -0.694804   -2.092174
      7          1           0        1.288887   -1.591991   -0.662106
      8          1           0        3.512204   -2.771811   -0.622596
      9          1           0        4.012585   -1.869526   -2.060789
     10          1           0        2.683277   -3.036216   -2.166059
     11          6           0        1.806742    1.032354    0.081488
     12          6           0        2.426426    2.109250    0.972708
     13          6           0        1.440098    3.222282    1.327828
     14          1           0        1.432380    1.499550   -0.839911
     15          1           0        0.933606    0.601819    0.590622
     16          1           0        3.298302    2.537138    0.461474
     17          1           0        2.800747    1.639951    1.891542
     18          1           0        0.574603    2.814673    1.860157
     19          1           0        1.074985    3.716958    0.421964
     20          1           0        1.903911    3.981363    1.965427
     21          6           0       -2.226927   -1.230050    0.172543
     22          6           0       -1.455985   -1.654417    1.422961
     23          6           0       -1.330985   -3.172682    1.553502
     24          1           0       -3.228373   -1.681147    0.196267
     25          1           0       -1.722627   -1.635090   -0.715724
     26          1           0       -1.960814   -1.247538    2.308519
     27          1           0       -0.456325   -1.202101    1.396350
     28          1           0       -0.807746   -3.591972    0.688044
     29          1           0       -2.320783   -3.637666    1.605395
     30          1           0       -0.776410   -3.453882    2.454186
     31          6           0       -2.360261    0.284902    0.028089
     32          6           0       -3.131204    0.709270   -1.222329
     33          6           0       -3.256202    2.227534   -1.352871
     34          1           0       -2.864562    0.689943    0.916356
     35          1           0       -1.358816    0.736001    0.004364
     36          1           0       -4.130863    0.256954   -1.195719
     37          1           0       -2.626375    0.302390   -2.107887
     38          1           0       -2.266406    2.692519   -1.404764
     39          1           0       -3.779443    2.646825   -0.487413
     40          1           0       -3.810779    2.508735   -2.253555
 ---------------------------------------------------------------------

 SCF Done:  E(RHF) =  -470.732575652     A.U. after   11 cycles
 E2 =    -0.1585163077D+01 EUMP2 =    -0.47231773872819D+03

 The electronic state is 1-A.
 Alpha  occ. eigenvalues --  -11.21683 -11.21650 -11.21635 -11.21552 -11.21471
 Alpha  occ. eigenvalues --  -11.21409 -11.21369 -11.21266 -11.21130 -11.21114
 Alpha  occ. eigenvalues --  -11.21099 -11.21030  -1.08537  -1.08384  -1.03595
 Alpha  occ. eigenvalues --   -1.03520  -0.96043  -0.95963  -0.87057  -0.86982
 Alpha  occ. eigenvalues --   -0.79664  -0.79591  -0.78506  -0.78072  -0.65407
 Alpha  occ. eigenvalues --   -0.64809  -0.61067  -0.60852  -0.59405  -0.59337
 Alpha  occ. eigenvalues --   -0.57675  -0.57563  -0.55352  -0.55236  -0.52731
 Alpha  occ. eigenvalues --   -0.52673  -0.52480  -0.52380  -0.49992  -0.49912
 Alpha  occ. eigenvalues --   -0.48039  -0.47885  -0.46789  -0.46662  -0.46487
 Alpha  occ. eigenvalues --   -0.45777  -0.45703  -0.44863  -0.43845  -0.43760
 Alpha virt. eigenvalues --    0.19769   0.22470   0.23488   0.24364   0.25850
 Alpha virt. eigenvalues --    0.26381   0.27199   0.27555   0.28016   0.30466
 Alpha virt. eigenvalues --    0.30971   0.31312   0.31701   0.31996   0.32088

 Mulliken charges:
               1
     1  C   -0.296993
     2  C   -0.305640
     3  C   -0.475531
     4  H    0.150153
     5  H    0.149505
     6  H    0.151795
     7  H    0.156703
     8  H    0.155600
     9  H    0.155528
    10  H    0.160290
    11  C   -0.310966
    12  C   -0.298591
    13  C   -0.476812
    14  H    0.148998
    15  H    0.161448
    16  H    0.152094
    17  H    0.151968
    18  H    0.156452
    19  H    0.154963
    20  H    0.160668
    21  C   -0.299053
    22  C   -0.307327
    23  C   -0.476309
    24  H    0.149740
    25  H    0.150686
    26  H    0.152243
    27  H    0.157101
    28  H    0.155666
    29  H    0.155773
    30  H    0.160090
    31  C   -0.306749
    32  C   -0.299081
    33  C   -0.475729
    34  H    0.148487
    35  H    0.159171
    36  H    0.151542
    37  H    0.151798
    38  H    0.155242
    39  H    0.155164
    40  H    0.159918
 Sum of Mulliken charges =  -0.00000

 Dipole moment (field-independent basis, Debye):
    X=              0.0362    Y=              0.0077    Z=              0.0097  Tot=              0.0383
 Quadrupole moment (field-independent basis, Debye-Ang):
   XX=            -84.3621   YY=            -86.4298   ZZ=            -83.9856
   XY=              0.8964   XZ=             -0.5469   YZ=             -0.4612

 Normal termination of Gaussian 16 at Thu May  6 02:25:10 2021.
