 Gaussian 16, Revision A.03,
 Gaussian 16:  EM64L-G16RevA.03 25-Dec-2016

 -------------
 #p 6-31g* mp2
 -------------

 ------------------------------------------------------
 Input file generated by CHIRIPA (05-May-2021 14:51:13)
 ------------------------------------------------------
 Symbolic Z-matrix:
 Charge =  0 Multiplicity = 1

                         Standard orientation:
 ---------------------------------------------------------------------
 Center     Atomic      Atomic             Coordinates (Angstroms)
 Number     Number       Type             X           Y           Z
 ---------------------------------------------------------------------
      1          6           0        1.509562   -0.864156    0.382038
      2          6           0        1.235015   -2.058717    1.296168
      3          6           0       -0.253473   -2.248788    1.589547
      4          1           0        1.107018    0.045866    0.847616
      5          1           0        0.963360   -1.000315   -0.561636
      6          1           0        1.782675   -1.921012    2.237296
      7          1           0        1.638428   -2.965972    0.828448
      8          1           0       -0.811318   -2.411354    0.661655
      9          1           0       -0.666251   -1.360457    2.078508
     10          1           0       -0.426992   -3.108153    2.244714
     11          6           0        2.993148   -0.661150    0.079566
     12          6           0        3.267695    0.533410   -0.834564
     13          6           0        4.756183    0.723482   -1.127943
     14          1           0        3.539350   -0.524992    1.023240
     15          1           0        3.395692   -1.571172   -0.386012
     16          1           0        2.864282    1.440665   -0.366844
     17          1           0        2.720035    0.395706   -1.775692
     18          1           0        5.168961   -0.164849   -1.616904
     19          1           0        5.314028    0.886048   -0.200052
     20          1           0        4.929702    1.582846   -1.783110
     21          6           0       -2.238386    1.314111    0.297552
     22          6           0       -1.193575    2.395436    0.019902
     23          6           0       -1.179780    3.491680    1.085667
     24          1           0       -3.231423    1.779952    0.359316
     25          1           0       -2.040927    0.867390    1.281852
     26          1           0       -1.392119    2.839030   -0.964181
     27          1           0       -0.202933    1.926941   -0.041397
     28          1           0       -0.959209    3.068345    2.070928
     29          1           0       -2.155152    3.985618    1.142901
     30          1           0       -0.425613    4.254238    0.867497
     31          6           0       -2.264324    0.211195   -0.759156
     32          6           0       -3.309136   -0.870129   -0.481506
     33          6           0       -3.322929   -1.966373   -1.547271
     34          1           0       -2.461784    0.657917   -1.743455
     35          1           0       -1.271287   -0.254646   -0.820920
     36          1           0       -4.299777   -0.401634   -0.420206
     37          1           0       -3.110591   -1.313724    0.502577
     38          1           0       -2.347558   -2.460311   -1.604504
     39          1           0       -3.543501   -1.543039   -2.532531
     40          1           0       -4.077096   -2.728931   -1.329100
 ---------------------------------------------------------------------

 SCF Done:  E(RHF) =  -470.731481592     A.U. after   11 cycles
 E2 =    -0.1586616550D+01 EUMP2 =    -0.47231809814243D+03

 The electronic state is 1-A.
 Alpha  occ. eigenvalues --  -11.21707 -11.21666 -11.21503 -11.21502 -11.21465
 Alpha  occ. eigenvalues --  -11.21437 -11.21301 -11.21190 -11.21160 -11.21116
 Alpha  occ. eigenvalues --  -11.21054 -11.21047  -1.08569  -1.08309  -1.03633
 Alpha  occ. eigenvalues --   -1.03456  -0.96076  -0.95922  -0.87101  -0.86935
 Alpha  occ. eigenvalues --   -0.79699  -0.79524  -0.78515  -0.78029  -0.65186
 Alpha  occ. eigenvalues --   -0.65009  -0.61206  -0.60743  -0.59432  -0.59280
 Alpha  occ. eigenvalues --   -0.57681  -0.57514  -0.55536  -0.55068  -0.52766
 Alpha  occ. eigenvalues --   -0.52654  -0.52485  -0.52336  -0.50025  -0.49884
 Alpha  occ. eigenvalues --   -0.48090  -0.47812  -0.46765  -0.46680  -0.46405
 Alpha  occ. eigenvalues --   -0.45714  -0.45537  -0.44945  -0.43870  -0.43696
 Alpha virt. eigenvalues --    0.20133   0.22048   0.23142   0.24738   0.24989
 Alpha virt. eigenvalues --    0.25729   0.26948   0.27333   0.28767   0.30717
 Alpha virt. eigenvalues --    0.30762   0.31022   0.31575   0.31707   0.32314

 Mulliken charges:
               1
     1  C   -0.307162
     2  C   -0.299571
     3  C   -0.483454
     4  H    0.154795
     5  H    0.152490
     6  H    0.152208
     7  H    0.152259
     8  H    0.161722
     9  H    0.157042
    10  H    0.160940
    11  C   -0.297238
    12  C   -0.301284
    13  C   -0.475775
    14  H    0.149703
    15  H    0.149948
    16  H    0.152991
    17  H    0.152435
    18  H    0.155391
    19  H    0.155301
    20  H    0.160651
    21  C   -0.299689
    22  C   -0.306573
    23  C   -0.475536
    24  H    0.149452
    25  H    0.150327
    26  H    0.151822
    27  H    0.158384
    28  H    0.153950
    29  H    0.155363
    30  H    0.159820
    31  C   -0.306153
    32  C   -0.303652
    33  C   -0.477128
    34  H    0.148508
    35  H    0.159492
    36  H    0.151901
    37  H    0.156713
    38  H    0.153814
    39  H    0.155320
    40  H    0.160470
 Sum of Mulliken charges =  -0.00000

 Dipole moment (field-independent basis, Debye):
    X=              0.0669    Y=             -0.0410    Z=              0.0097  Tot=              0.0791
 Quadrupole moment (field-independent basis, Debye-Ang):
   XX=            -85.4514   YY=            -85.0361   ZZ=            -84.4224
   XY=             -0.6586   XZ=              0.5928   YZ=             -0.3577

 Normal termination of Gaussian 16 at Thu May  6 03:57:29 2021.
