 Gaussian 16, Revision A.03,
 Gaussian 16:  EM64L-G16RevA.03 25-Dec-2016

 -------------
 #p 6-31g* mp2
 -------------

 ------------------------------------------------------
 Input file generated by CHIRIPA (05-May-2021 14:51:08)
 ------------------------------------------------------
 Symbolic Z-matrix:
 Charge =  0 Multiplicity = 1

                         Standard orientation:
 ---------------------------------------------------------------------
 Center     Atomic      Atomic             Coordinates (Angstroms)
 Number     Number       Type             X           Y           Z
 ---------------------------------------------------------------------
      1          6           0       -2.731226    1.077160   -0.015423
      2          6           0       -1.698626    2.204336   -0.049995
      3          6           0       -2.171474    3.461816    0.680042
      4          1           0       -3.668430    1.433150   -0.464718
      5          1           0       -2.959926    0.830783    1.030708
      6          1           0       -1.470912    2.447569   -1.095748
      7          1           0       -0.763712    1.845561    0.399261
      8          1           0       -2.380346    3.241069    1.731823
      9          1           0       -3.091565    3.846498    0.228320
     10          1           0       -1.418044    4.254802    0.642958
     11          6           0       -2.273032   -0.186649   -0.741077
     12          6           0       -3.305632   -1.313825   -0.706505
     13          6           0       -2.832784   -2.571305   -1.436542
     14          1           0       -2.044332    0.059729   -1.787208
     15          1           0       -1.335829   -0.542639   -0.291782
     16          1           0       -4.240547   -0.955049   -1.155761
     17          1           0       -3.533346   -1.557058    0.339249
     18          1           0       -1.912693   -2.955987   -0.984819
     19          1           0       -2.623912   -2.350558   -2.488323
     20          1           0       -3.586214   -3.364291   -1.399457
     21          6           0        3.050950   -0.505552   -0.149568
     22          6           0        3.745151    0.821716   -0.456861
     23          6           0        4.840645    0.684855   -1.514669
     24          1           0        3.800281   -1.234267    0.188694
     25          1           0        2.619015   -0.908554   -1.076076
     26          1           0        4.174457    1.222778    0.470211
     27          1           0        2.994053    1.547413   -0.794249
     28          1           0        4.423943    0.307898   -2.454276
     29          1           0        5.611053   -0.018583   -1.182633
     30          1           0        5.323697    1.645469   -1.718983
     31          6           0        1.953308   -0.384959    0.906068
     32          6           0        1.259106   -1.712227    1.213361
     33          6           0        0.163613   -1.575366    2.271168
     34          1           0        2.385243    0.018043    1.832576
     35          1           0        1.203977    0.343756    0.567805
     36          1           0        2.010205   -2.437925    1.550748
     37          1           0        0.829801   -2.113289    0.286289
     38          1           0       -0.606795   -0.871928    1.939132
     39          1           0        0.580316   -1.198410    3.210777
     40          1           0       -0.319439   -2.535979    2.475483
 ---------------------------------------------------------------------

 SCF Done:  E(RHF) =  -470.732637945     A.U. after   11 cycles
 E2 =    -0.1585121352D+01 EUMP2 =    -0.47231775929656D+03

 The electronic state is 1-A.
 Alpha  occ. eigenvalues --  -11.21674 -11.21648 -11.21616 -11.21605 -11.21436
 Alpha  occ. eigenvalues --  -11.21432 -11.21369 -11.21365 -11.21142 -11.21097
 Alpha  occ. eigenvalues --  -11.21093 -11.21072  -1.08526  -1.08419  -1.03587
 Alpha  occ. eigenvalues --   -1.03550  -0.96048  -0.95985  -0.87053  -0.87011
 Alpha  occ. eigenvalues --   -0.79660  -0.79607  -0.78374  -0.78208  -0.65500
 Alpha  occ. eigenvalues --   -0.64785  -0.61075  -0.60855  -0.59414  -0.59351
 Alpha  occ. eigenvalues --   -0.57672  -0.57585  -0.55501  -0.55114  -0.52720
 Alpha  occ. eigenvalues --   -0.52697  -0.52488  -0.52386  -0.50065  -0.49850
 Alpha  occ. eigenvalues --   -0.47987  -0.47963  -0.46823  -0.46579  -0.46202
 Alpha  occ. eigenvalues --   -0.45777  -0.45743  -0.45212  -0.43822  -0.43809
 Alpha virt. eigenvalues --    0.19347   0.22680   0.23005   0.24408   0.25768
 Alpha virt. eigenvalues --    0.26305   0.26571   0.27956   0.28469   0.30032
 Alpha virt. eigenvalues --    0.30472   0.31229   0.31776   0.31832   0.32205

 Mulliken charges:
               1
     1  C   -0.299028
     2  C   -0.307794
     3  C   -0.475197
     4  H    0.150354
     5  H    0.149928
     6  H    0.151798
     7  H    0.158538
     8  H    0.155529
     9  H    0.155330
    10  H    0.160428
    11  C   -0.307588
    12  C   -0.299366
    13  C   -0.477337
    14  H    0.149405
    15  H    0.158794
    16  H    0.152136
    17  H    0.152599
    18  H    0.156293
    19  H    0.155028
    20  H    0.160523
    21  C   -0.297689
    22  C   -0.299951
    23  C   -0.475745
    24  H    0.149700
    25  H    0.150024
    26  H    0.151815
    27  H    0.152412
    28  H    0.155321
    29  H    0.155151
    30  H    0.160279
    31  C   -0.308012
    32  C   -0.302586
    33  C   -0.480748
    34  H    0.149687
    35  H    0.158182
    36  H    0.153319
    37  H    0.153121
    38  H    0.158823
    39  H    0.155884
    40  H    0.160640
 Sum of Mulliken charges =  -0.00000

 Dipole moment (field-independent basis, Debye):
    X=              0.0049    Y=              0.0049    Z=              0.0059  Tot=              0.0091
 Quadrupole moment (field-independent basis, Debye-Ang):
   XX=            -84.8181   YY=            -85.5787   ZZ=            -84.2978
   XY=             -0.1350   XZ=              1.5593   YZ=             -0.8761

 Normal termination of Gaussian 16 at Thu May  6 02:05:59 2021.
