 Gaussian 16, Revision A.03,
 Gaussian 16:  EM64L-G16RevA.03 25-Dec-2016

 -------------
 #p 6-31g* mp2
 -------------

 ------------------------------------------------------
 Input file generated by CHIRIPA (05-May-2021 14:53:12)
 ------------------------------------------------------
 Symbolic Z-matrix:
 Charge =  0 Multiplicity = 1

                         Standard orientation:
 ---------------------------------------------------------------------
 Center     Atomic      Atomic             Coordinates (Angstroms)
 Number     Number       Type             X           Y           Z
 ---------------------------------------------------------------------
      1          6           0       -3.405967   -0.579495   -0.506169
      2          6           0       -4.538535   -1.555113   -0.184542
      3          6           0       -4.223092   -2.988777   -0.612211
      4          1           0       -3.203637   -0.605519   -1.585674
      5          1           0       -2.487115   -0.918054   -0.007688
      6          1           0       -5.455310   -1.214056   -0.682356
      7          1           0       -4.738321   -1.526622    0.894295
      8          1           0       -3.323409   -3.352799   -0.105595
      9          1           0       -4.044472   -3.038456   -1.691204
     10          1           0       -5.046089   -3.669407   -0.372882
     11          6           0       -3.706444    0.857765   -0.084593
     12          6           0       -2.573877    1.833383   -0.406220
     13          6           0       -2.889319    3.267047    0.021448
     14          1           0       -4.625297    1.196324   -0.583074
     15          1           0       -3.908774    0.883789    0.994911
     16          1           0       -2.374090    1.804892   -1.485057
     17          1           0       -1.657101    1.492326    0.091594
     18          1           0       -3.067939    3.316726    1.100442
     19          1           0       -3.789002    3.631069   -0.485167
     20          1           0       -2.066322    3.947677   -0.217881
     21          6           0        0.701668    0.019951    1.658012
     22          6           0        1.452645   -1.159488    1.619526
     23          6           0        2.604999   -1.242104    0.832253
     24          6           0        2.979045   -0.121137    0.092786
     25          6           0        2.251851    1.068054    0.110194
     26          6           0        1.102961    1.128004    0.904551
     27          1           0       -0.192164    0.075325    2.272338
     28          1           0        1.143378   -2.021588    2.203636
     29          1           0        3.204930   -2.142756    0.783984
     30          1           0        2.585259    1.910884   -0.483014
     31          1           0        0.521686    2.045274    0.932504
     32          7           0        4.197158   -0.196600   -0.744415
     33          8           0        4.505488    0.804950   -1.386651
     34          8           0        4.820521   -1.255871   -0.742525
 ---------------------------------------------------------------------

 SCF Done:  E(RHF) =  -669.535035315     A.U. after   15 cycles
 E2 =    -0.2092490759D+01 EUMP2 =    -0.67162752607450D+03

 The electronic state is 1-A.
 Alpha  occ. eigenvalues --  -20.60794 -20.60789 -15.85847 -11.31239 -11.27800
 Alpha  occ. eigenvalues --  -11.27789 -11.27561 -11.26832 -11.26800 -11.22387
 Alpha  occ. eigenvalues --  -11.22164 -11.22114 -11.21994 -11.21918 -11.21559
 Alpha  occ. eigenvalues --   -1.59868  -1.39421  -1.19411  -1.09127  -1.08804
 Alpha  occ. eigenvalues --   -1.04817  -1.04219  -0.96661  -0.95636  -0.87671
 Alpha  occ. eigenvalues --   -0.86222  -0.82463  -0.80286  -0.78922  -0.77503
 Alpha  occ. eigenvalues --   -0.72066  -0.71190  -0.70524  -0.65823  -0.65062
 Alpha  occ. eigenvalues --   -0.64811  -0.62220  -0.61567  -0.60029  -0.58265
 Alpha  occ. eigenvalues --   -0.55958  -0.55312  -0.53364  -0.53156  -0.53061
 Alpha  occ. eigenvalues --   -0.52908  -0.50598  -0.48838  -0.48819  -0.48575
 Alpha  occ. eigenvalues --   -0.47319  -0.46450  -0.46388  -0.44821  -0.44464
 Alpha  occ. eigenvalues --   -0.37360  -0.36387
 Alpha virt. eigenvalues --    0.05000   0.11089   0.16424   0.19826   0.22692
 Alpha virt. eigenvalues --    0.23577   0.25677   0.26125   0.26729   0.28238
 Alpha virt. eigenvalues --    0.29273   0.30348   0.30892   0.31391   0.32134

 Mulliken charges:
               1
     1  C   -0.298976
     2  C   -0.300115
     3  C   -0.475512
     4  H    0.153272
     5  H    0.146586
     6  H    0.153939
     7  H    0.150129
     8  H    0.153285
     9  H    0.157599
    10  H    0.161748
    11  C   -0.298227
    12  C   -0.306468
    13  C   -0.477340
    14  H    0.152770
    15  H    0.146287
    16  H    0.156911
    17  H    0.148094
    18  H    0.153297
    19  H    0.160418
    20  H    0.158390
    21  C   -0.170975
    22  C   -0.218872
    23  C   -0.170747
    24  C    0.158701
    25  C   -0.172593
    26  C   -0.217259
    27  H    0.225890
    28  H    0.223607
    29  H    0.275866
    30  H    0.275985
    31  H    0.226614
    32  N    0.488065
    33  O   -0.460139
    34  O   -0.460233
 Sum of Mulliken charges =  -0.00000

 Dipole moment (field-independent basis, Debye):
    X=             -4.3502    Y=              0.2369    Z=              2.8569  Tot=              5.2098
 Quadrupole moment (field-independent basis, Debye-Ang):
   XX=           -120.3843   YY=            -91.5050   ZZ=            -93.6370
   XY=              0.5592   XZ=              9.4120   YZ=             -2.4823

 Normal termination of Gaussian 16 at Thu May  6 16:59:58 2021.
