 Gaussian 16, Revision A.03,
 Gaussian 16:  EM64L-G16RevA.03 25-Dec-2016

 -------------
 #p 6-31g* mp2
 -------------

 ------------------------------------------------------
 Input file generated by CHIRIPA (05-May-2021 14:57:27)
 ------------------------------------------------------
 Symbolic Z-matrix:
 Charge =  0 Multiplicity = 1

                         Standard orientation:
 ---------------------------------------------------------------------
 Center     Atomic      Atomic             Coordinates (Angstroms)
 Number     Number       Type             X           Y           Z
 ---------------------------------------------------------------------
      1          6           0       -3.695582    2.447344    0.448556
      2          6           0       -4.303897    1.673972   -0.545611
      3          6           0       -3.942454    0.335337   -0.724394
      4          6           0       -2.964636   -0.200125    0.112531
      5          6           0       -2.340272    0.544614    1.111943
      6          6           0       -2.717436    1.881195    1.272707
      7          1           0       -3.982466    3.486431    0.580440
      8          1           0       -5.063840    2.111005   -1.187120
      9          1           0       -4.397257   -0.286141   -1.486193
     10          1           0       -1.585906    0.081078    1.736030
     11          1           0       -2.243319    2.479421    2.045614
     12          7           0       -2.573671   -1.616191   -0.067200
     13          8           0       -1.709526   -2.064396    0.683135
     14          8           0       -3.138782   -2.251085   -0.955004
     15          6           0        4.023397    2.273401   -0.379963
     16          6           0        2.852489    1.941391   -1.069357
     17          6           0        2.292679    0.666356   -0.945075
     18          6           0        2.932944   -0.256259   -0.119162
     19          6           0        4.100505    0.044359    0.580637
     20          6           0        4.642577    1.325497    0.441385
     21          1           0        4.451382    3.266250   -0.482323
     22          1           0        2.369464    2.675531   -1.707928
     23          1           0        1.387043    0.382702   -1.467361
     24          1           0        4.559240   -0.708719    1.209808
     25          1           0        5.552009    1.580550    0.977974
     26          7           0        2.349688   -1.609313    0.020333
     27          8           0        2.932985   -2.404196    0.754201
     28          8           0        1.320279   -1.849331   -0.606839
 ---------------------------------------------------------------------

 SCF Done:  E(RHF) =  -868.335220393     A.U. after   16 cycles
 E2 =    -0.2600974135D+01 EUMP2 =    -0.87093619452794D+03

 The electronic state is 1-A.
 Alpha  occ. eigenvalues --  -20.60208 -20.60115 -20.60036 -20.59906 -15.85221
 Alpha  occ. eigenvalues --  -15.85028 -11.30958 -11.30836 -11.27571 -11.27556
 Alpha  occ. eigenvalues --  -11.27449 -11.27442 -11.27376 -11.27282 -11.26671
 Alpha  occ. eigenvalues --  -11.26649 -11.26571 -11.26558  -1.59229  -1.59028
 Alpha  occ. eigenvalues --   -1.38777  -1.38571  -1.19165  -1.19050  -1.08490
 Alpha  occ. eigenvalues --   -1.08363  -1.04618  -1.04513  -0.95263  -0.95119
 Alpha  occ. eigenvalues --   -0.85998  -0.85888  -0.82096  -0.81945  -0.77084
 Alpha  occ. eigenvalues --   -0.76921  -0.71481  -0.71215  -0.70604  -0.70316
 Alpha  occ. eigenvalues --   -0.70250  -0.70147  -0.64804  -0.64684  -0.64620
 Alpha  occ. eigenvalues --   -0.64517  -0.61959  -0.61849  -0.55106  -0.55004
 Alpha  occ. eigenvalues --   -0.52939  -0.52830  -0.52708  -0.52605  -0.48229
 Alpha  occ. eigenvalues --   -0.48182  -0.48008  -0.47972  -0.44304  -0.43631
 Alpha  occ. eigenvalues --   -0.37173  -0.37057  -0.36251  -0.36138
 Alpha virt. eigenvalues --    0.05370   0.05718   0.11371   0.11533   0.16810
 Alpha virt. eigenvalues --    0.17116   0.21513   0.21612   0.27398   0.27496
 Alpha virt. eigenvalues --    0.28421   0.28547   0.30956   0.31198   0.32623

 Mulliken charges:
               1
     1  C   -0.173058
     2  C   -0.219028
     3  C   -0.172263
     4  C    0.159407
     5  C   -0.172686
     6  C   -0.219600
     7  H    0.222999
     8  H    0.221803
     9  H    0.275831
    10  H    0.276952
    11  H    0.221101
    12  N    0.488115
    13  O   -0.445911
    14  O   -0.463492
    15  C   -0.172439
    16  C   -0.219110
    17  C   -0.172761
    18  C    0.158763
    19  C   -0.171809
    20  C   -0.218689
    21  H    0.223694
    22  H    0.221249
    23  H    0.275463
    24  H    0.276121
    25  H    0.222464
    26  N    0.487018
    27  O   -0.461490
    28  O   -0.448643
 Sum of Mulliken charges =  -0.00000

 Dipole moment (field-independent basis, Debye):
    X=              0.7015    Y=              9.4068    Z=              0.1593  Tot=              9.4343
 Quadrupole moment (field-independent basis, Debye-Ang):
   XX=            -81.5962   YY=           -110.2777   ZZ=           -100.7781
   XY=             -1.6880   XZ=              1.8139   YZ=             -0.6173

 Normal termination of Gaussian 16 at Wed May  5 18:05:57 2021.
