 Gaussian 16, Revision A.03,
 Gaussian 16:  EM64L-G16RevA.03 25-Dec-2016

 -------------
 #p 6-31g* mp2
 -------------

 ------------------------------------------------------
 Input file generated by CHIRIPA (05-May-2021 14:53:16)
 ------------------------------------------------------
 Symbolic Z-matrix:
 Charge =  0 Multiplicity = 1

                         Standard orientation:
 ---------------------------------------------------------------------
 Center     Atomic      Atomic             Coordinates (Angstroms)
 Number     Number       Type             X           Y           Z
 ---------------------------------------------------------------------
      1          6           0       -3.472836    0.885038   -0.457648
      2          6           0       -2.076760    1.482331   -0.278215
      3          6           0       -2.013705    2.962199   -0.657436
      4          1           0       -3.786999    1.010898   -1.502830
      5          1           0       -4.188058    1.452082    0.154164
      6          1           0       -1.364152    0.913462   -0.889113
      7          1           0       -1.765805    1.354862    0.766617
      8          1           0       -2.702390    3.547814   -0.039886
      9          1           0       -2.298455    3.103906   -1.705023
     10          1           0       -1.006729    3.368896   -0.521582
     11          6           0       -3.551875   -0.593750   -0.082592
     12          6           0       -4.947951   -1.191043   -0.262025
     13          6           0       -5.011006   -2.670911    0.117196
     14          1           0       -2.836654   -1.160794   -0.694405
     15          1           0       -3.237712   -0.719611    0.962590
     16          1           0       -5.258906   -1.063575   -1.306858
     17          1           0       -5.660559   -0.622175    0.348872
     18          1           0       -4.726256   -2.812618    1.164782
     19          1           0       -4.322321   -3.256526   -0.500355
     20          1           0       -6.017982   -3.077609   -0.018659
     21          6           0        4.444387   -1.638316   -0.861585
     22          6           0        4.454584   -0.268710   -1.145483
     23          6           0        3.517217    0.585390   -0.556924
     24          6           0        2.579643    0.033602    0.314728
     25          6           0        2.543778   -1.326653    0.617567
     26          6           0        3.490697   -2.161993    0.017484
     27          1           0        5.176266   -2.294515   -1.323267
     28          1           0        5.194065    0.140762   -1.827791
     29          1           0        3.502430    1.649502   -0.759075
     30          1           0        1.794337   -1.705562    1.301806
     31          1           0        3.480400   -3.225247    0.239811
     32          7           0        1.582239    0.927869    0.943908
     33          8           0        0.766611    0.417030    1.708391
     34          8           0        1.634985    2.122704    0.660665
 ---------------------------------------------------------------------

 SCF Done:  E(RHF) =  -669.536469817     A.U. after   15 cycles
 E2 =    -0.2092107221D+01 EUMP2 =    -0.67162857703866D+03

 The electronic state is 1-A.
 Alpha  occ. eigenvalues --  -20.60994 -20.60984 -15.85999 -11.31311 -11.27868
 Alpha  occ. eigenvalues --  -11.27864 -11.27604 -11.26871 -11.26861 -11.20995
 Alpha  occ. eigenvalues --  -11.20627 -11.20565 -11.20351 -11.20112 -11.19623
 Alpha  occ. eigenvalues --   -1.60029  -1.39588  -1.19474  -1.08881  -1.07490
 Alpha  occ. eigenvalues --   -1.04867  -1.02540  -0.95727  -0.95023  -0.86268
 Alpha  occ. eigenvalues --   -0.86053  -0.82562  -0.78653  -0.77616  -0.77245
 Alpha  occ. eigenvalues --   -0.72223  -0.71327  -0.70582  -0.65130  -0.64870
 Alpha  occ. eigenvalues --   -0.64135  -0.62213  -0.59952  -0.58427  -0.56585
 Alpha  occ. eigenvalues --   -0.55369  -0.54346  -0.53198  -0.52959  -0.51700
 Alpha  occ. eigenvalues --   -0.51454  -0.49087  -0.48970  -0.48942  -0.46963
 Alpha  occ. eigenvalues --   -0.45707  -0.45155  -0.44767  -0.44448  -0.42785
 Alpha  occ. eigenvalues --   -0.37449  -0.36467
 Alpha virt. eigenvalues --    0.04873   0.11189   0.16354   0.21318   0.23716
 Alpha virt. eigenvalues --    0.25305   0.27244   0.27531   0.28067   0.28571
 Alpha virt. eigenvalues --    0.28926   0.30892   0.32230   0.32378   0.32687

 Mulliken charges:
               1
     1  C   -0.297959
     2  C   -0.302922
     3  C   -0.480160
     4  H    0.144247
     5  H    0.147706
     6  H    0.139647
     7  H    0.176901
     8  H    0.150911
     9  H    0.145309
    10  H    0.175382
    11  C   -0.297185
    12  C   -0.298771
    13  C   -0.474970
    14  H    0.144818
    15  H    0.153700
    16  H    0.149849
    17  H    0.151562
    18  H    0.154994
    19  H    0.152363
    20  H    0.158099
    21  C   -0.170513
    22  C   -0.218630
    23  C   -0.170742
    24  C    0.158652
    25  C   -0.170567
    26  C   -0.218651
    27  H    0.226069
    28  H    0.223889
    29  H    0.275850
    30  H    0.276084
    31  H    0.223955
    32  N    0.489760
    33  O   -0.458304
    34  O   -0.460372
 Sum of Mulliken charges =  -0.00000

 Dipole moment (field-independent basis, Debye):
    X=              3.8348    Y=             -3.1054    Z=             -2.0155  Tot=              5.3303
 Quadrupole moment (field-independent basis, Debye-Ang):
   XX=            -77.3110   YY=            -93.4338   ZZ=            -94.9127
   XY=             -6.7609   XZ=             -6.6272   YZ=             -2.4688

 Normal termination of Gaussian 16 at Thu May  6 20:29:23 2021.
