 Gaussian 16, Revision A.03,
 Gaussian 16:  EM64L-G16RevA.03 25-Dec-2016

 -------------
 #p 6-31g* mp2
 -------------

 ------------------------------------------------------
 Input file generated by CHIRIPA (05-May-2021 14:57:26)
 ------------------------------------------------------
 Symbolic Z-matrix:
 Charge =  0 Multiplicity = 1

                         Standard orientation:
 ---------------------------------------------------------------------
 Center     Atomic      Atomic             Coordinates (Angstroms)
 Number     Number       Type             X           Y           Z
 ---------------------------------------------------------------------
      1          6           0       -2.189692    2.458796    0.156256
      2          6           0       -2.914863    1.614578    1.003573
      3          6           0       -3.019564    0.248561    0.725035
      4          6           0       -2.383664   -0.241743   -0.414492
      5          6           0       -1.653967    0.573814   -1.278030
      6          6           0       -1.562664    1.936640   -0.979838
      7          1           0       -2.113562    3.518711    0.380265
      8          1           0       -3.402855    2.017323    1.886582
      9          1           0       -3.574621   -0.427554    1.363938
     10          1           0       -1.178405    0.143168   -2.150843
     11          1           0       -0.998823    2.589907   -1.639664
     12          7           0       -2.487414   -1.686195   -0.719771
     13          8           0       -1.917988   -2.093526   -1.729955
     14          8           0       -3.136195   -2.383674    0.056916
     15          6           0        3.629694    0.299325   -1.799851
     16          6           0        3.987085   -0.723152   -0.914790
     17          6           0        3.294219   -0.896284    0.287088
     18          6           0        2.244449   -0.024902    0.573389
     19          6           0        1.864524    1.003262   -0.287905
     20          6           0        2.571419    1.157755   -1.484140
     21          1           0        4.173378    0.426578   -2.731306
     22          1           0        4.808529   -1.391310   -1.157362
     23          1           0        3.549858   -1.679518    0.990373
     24          1           0        1.041169    1.653618   -0.018566
     25          1           0        2.291658    1.952698   -2.169593
     26          7           0        1.503517   -0.198323    1.842776
     27          8           0        0.582467    0.582619    2.071764
     28          8           0        1.857853   -1.111906    2.584697
 ---------------------------------------------------------------------

 SCF Done:  E(RHF) =  -868.336510569     A.U. after   16 cycles
 E2 =    -0.2603310119D+01 EUMP2 =    -0.87093982068854D+03

 The electronic state is 1-A.
 Alpha  occ. eigenvalues --  -20.60856 -20.60838 -20.60503 -20.60470 -15.85895
 Alpha  occ. eigenvalues --  -15.85544 -11.31242 -11.30880 -11.27830 -11.27815
 Alpha  occ. eigenvalues --  -11.27631 -11.27592 -11.27406 -11.27286 -11.26939
 Alpha  occ. eigenvalues --  -11.26815 -11.26640 -11.26383  -1.59921  -1.59564
 Alpha  occ. eigenvalues --   -1.39474  -1.39119  -1.19452  -1.19079  -1.08847
 Alpha  occ. eigenvalues --   -1.08494  -1.04899  -1.04492  -0.95680  -0.95323
 Alpha  occ. eigenvalues --   -0.86272  -0.85925  -0.82537  -0.82170  -0.77583
 Alpha  occ. eigenvalues --   -0.77203  -0.72130  -0.71772  -0.71252  -0.70874
 Alpha  occ. eigenvalues --   -0.70575  -0.70221  -0.65119  -0.64915  -0.64766
 Alpha  occ. eigenvalues --   -0.64565  -0.62287  -0.61834  -0.55392  -0.55033
 Alpha  occ. eigenvalues --   -0.53307  -0.53128  -0.52636  -0.52475  -0.48887
 Alpha  occ. eigenvalues --   -0.48865  -0.48531  -0.48517  -0.44865  -0.44529
 Alpha  occ. eigenvalues --   -0.37466  -0.37039  -0.36750  -0.35710
 Alpha virt. eigenvalues --    0.04779   0.05535   0.11082   0.11498   0.16364
 Alpha virt. eigenvalues --    0.16877   0.20374   0.22127   0.25875   0.28092
 Alpha virt. eigenvalues --    0.28410   0.29069   0.30434   0.31979   0.32655

 Mulliken charges:
               1
     1  C   -0.163505
     2  C   -0.208334
     3  C   -0.160535
     4  C    0.159266
     5  C   -0.168075
     6  C   -0.234710
     7  H    0.224593
     8  H    0.225686
     9  H    0.277820
    10  H    0.272551
    11  H    0.214162
    12  N    0.487919
    13  O   -0.464256
    14  O   -0.457669
    15  C   -0.168514
    16  C   -0.218382
    17  C   -0.167588
    18  C    0.156197
    19  C   -0.172375
    20  C   -0.224591
    21  H    0.225924
    22  H    0.224947
    23  H    0.277382
    24  H    0.279511
    25  H    0.216406
    26  N    0.488004
    27  O   -0.463839
    28  O   -0.457996
 Sum of Mulliken charges =  -0.00000

 Dipole moment (field-independent basis, Debye):
    X=              2.8214    Y=              5.5162    Z=             -3.0607  Tot=              6.9106
 Quadrupole moment (field-independent basis, Debye-Ang):
   XX=            -91.6776   YY=           -105.4572   ZZ=           -108.3019
   XY=            -13.6392   XZ=            -13.8714   YZ=             -3.2711

 Normal termination of Gaussian 16 at Fri May  7 08:09:28 2021.
