 Gaussian 16, Revision A.03,
 Gaussian 16:  EM64L-G16RevA.03 25-Dec-2016

 -------------
 #p 6-31g* mp2
 -------------

 ------------------------------------------------------
 Input file generated by CHIRIPA (05-May-2021 14:57:23)
 ------------------------------------------------------
 Symbolic Z-matrix:
 Charge =  0 Multiplicity = 1

                         Standard orientation:
 ---------------------------------------------------------------------
 Center     Atomic      Atomic             Coordinates (Angstroms)
 Number     Number       Type             X           Y           Z
 ---------------------------------------------------------------------
      1          6           0        0.970395    1.966654   -0.795804
      2          6           0        1.416760    0.917563   -1.606166
      3          6           0        2.471264    0.098892   -1.191017
      4          6           0        3.059137    0.358893    0.045953
      5          6           0        2.636986    1.396337    0.875886
      6          6           0        1.580856    2.202277    0.440457
      7          1           0        0.150600    2.597672   -1.126179
      8          1           0        0.944550    0.732240   -2.566748
      9          1           0        2.836743   -0.720154   -1.798476
     10          1           0        3.127535    1.556474    1.828323
     11          1           0        1.236291    3.016294    1.071880
     12          7           0        4.176353   -0.501058    0.496188
     13          8           0        4.677530   -0.251226    1.590282
     14          8           0        4.529695   -1.408636   -0.253538
     15          6           0       -4.777679    1.017450    0.692491
     16          6           0       -4.244241    1.087558   -0.598653
     17          6           0       -3.189944    0.251284   -0.977666
     18          6           0       -2.691063   -0.647385   -0.035965
     19          6           0       -3.201177   -0.741013    1.257985
     20          6           0       -4.255364    0.104997    1.615062
     21          1           0       -5.596639    1.670870    0.978397
     22          1           0       -4.647887    1.795216   -1.317218
     23          1           0       -2.758126    0.284578   -1.970563
     24          1           0       -2.777836   -1.456607    1.952338
     25          1           0       -4.667662    0.048352    2.618480
     26          7           0       -1.574983   -1.537865   -0.425598
     27          8           0       -1.153169   -2.321011    0.422571
     28          8           0       -1.143149   -1.435814   -1.571783
 ---------------------------------------------------------------------

 SCF Done:  E(RHF) =  -868.338156138     A.U. after   16 cycles
 E2 =    -0.2600709715D+01 EUMP2 =    -0.87093886585368D+03

 The electronic state is 1-A.
 Alpha  occ. eigenvalues --  -20.61349 -20.61313 -20.60065 -20.60040 -15.86368
 Alpha  occ. eigenvalues --  -15.85105 -11.31777 -11.30451 -11.28396 -11.28293
 Alpha  occ. eigenvalues --  -11.28068 -11.27392 -11.27321 -11.27058 -11.26907
 Alpha  occ. eigenvalues --  -11.26828 -11.26160 -11.25963  -1.60383  -1.59126
 Alpha  occ. eigenvalues --   -1.39945  -1.38681  -1.19944  -1.18625  -1.09325
 Alpha  occ. eigenvalues --   -1.08053  -1.05356  -1.04007  -0.96160  -0.94885
 Alpha  occ. eigenvalues --   -0.86747  -0.85428  -0.82999  -0.81701  -0.78046
 Alpha  occ. eigenvalues --   -0.76731  -0.72606  -0.71696  -0.71332  -0.71046
 Alpha  occ. eigenvalues --   -0.70438  -0.69792  -0.65599  -0.65352  -0.64287
 Alpha  occ. eigenvalues --   -0.64023  -0.62704  -0.61349  -0.55838  -0.54607
 Alpha  occ. eigenvalues --   -0.53677  -0.53443  -0.52363  -0.52109  -0.49375
 Alpha  occ. eigenvalues --   -0.49332  -0.48093  -0.48078  -0.45347  -0.44090
 Alpha  occ. eigenvalues --   -0.37921  -0.36980  -0.36638  -0.35541
 Alpha virt. eigenvalues --    0.04471   0.05793   0.10670   0.12063   0.15968
 Alpha virt. eigenvalues --    0.17296   0.20702   0.22034   0.26558   0.27342
 Alpha virt. eigenvalues --    0.28378   0.28873   0.30458   0.31467   0.32032

 Mulliken charges:
               1
     1  C   -0.177685
     2  C   -0.208178
     3  C   -0.165261
     4  C    0.159130
     5  C   -0.172604
     6  C   -0.218889
     7  H    0.217839
     8  H    0.227695
     9  H    0.279020
    10  H    0.272672
    11  H    0.218264
    12  N    0.488541
    13  O   -0.463813
    14  O   -0.458342
    15  C   -0.171196
    16  C   -0.219459
    17  C   -0.174212
    18  C    0.160949
    19  C   -0.170499
    20  C   -0.218538
    21  H    0.227015
    22  H    0.223126
    23  H    0.270694
    24  H    0.278435
    25  H    0.225742
    26  N    0.490124
    27  O   -0.454181
    28  O   -0.466387
 Sum of Mulliken charges =  -0.00000

 Dipole moment (field-independent basis, Debye):
    X=             -7.9714    Y=              5.8749    Z=             -0.2256  Tot=              9.9050
 Quadrupole moment (field-independent basis, Debye-Ang):
   XX=           -109.0818   YY=           -105.9841   ZZ=            -97.5236
   XY=              1.7331   XZ=             -9.1257   YZ=             -1.0681

 Normal termination of Gaussian 16 at Thu May  6 04:59:59 2021.
