 Gaussian 16, Revision A.03,
 Gaussian 16:  EM64L-G16RevA.03 25-Dec-2016

 -------------
 #p 6-31g* mp2
 -------------

 ------------------------------------------------------
 Input file generated by CHIRIPA (05-May-2021 14:57:24)
 ------------------------------------------------------
 Symbolic Z-matrix:
 Charge =  0 Multiplicity = 1

                         Standard orientation:
 ---------------------------------------------------------------------
 Center     Atomic      Atomic             Coordinates (Angstroms)
 Number     Number       Type             X           Y           Z
 ---------------------------------------------------------------------
      1          6           0       -1.268828    2.341753    0.836849
      2          6           0       -2.066912    2.424343   -0.308909
      3          6           0       -2.912474    1.368726   -0.662811
      4          6           0       -2.935026    0.240371    0.155477
      5          6           0       -2.151878    0.128152    1.303247
      6          6           0       -1.313779    1.195941    1.637858
      7          1           0       -0.614874    3.166509    1.104276
      8          1           0       -2.034059    3.312970   -0.932854
      9          1           0       -3.540914    1.406253   -1.544328
     10          1           0       -2.206296   -0.770585    1.905517
     11          1           0       -0.695087    1.129032    2.528245
     12          7           0       -3.826234   -0.883606   -0.208972
     13          8           0       -3.827809   -1.866790    0.528580
     14          8           0       -4.506313   -0.760113   -1.225279
     15          6           0        0.454536   -1.336443   -0.516525
     16          6           0        1.017918   -0.516017   -1.499390
     17          6           0        2.310103   -0.005716   -1.343187
     18          6           0        3.013749   -0.337560   -0.186444
     19          6           0        2.479871   -1.152422    0.810685
     20          6           0        1.186021   -1.651471    0.633348
     21          1           0       -0.549912   -1.728486   -0.646076
     22          1           0        0.452164   -0.269699   -2.393422
     23          1           0        2.770462    0.631680   -2.088313
     24          1           0        3.068355   -1.380446    1.691088
     25          1           0        0.751028   -2.288388    1.398307
     26          7           0        4.382609    0.196716   -0.009893
     27          8           0        4.981828   -0.110428    1.018327
     28          8           0        4.830383    0.912512   -0.903074
 ---------------------------------------------------------------------

 SCF Done:  E(RHF) =  -868.337285986     A.U. after   16 cycles
 E2 =    -0.2603123703D+01 EUMP2 =    -0.87094040968955D+03

 The electronic state is 1-A.
 Alpha  occ. eigenvalues --  -20.61757 -20.61749 -20.61066 -20.61060 -15.86791
 Alpha  occ. eigenvalues --  -15.86121 -11.32018 -11.31429 -11.28571 -11.28556
 Alpha  occ. eigenvalues --  -11.28181 -11.28032 -11.28018 -11.27663 -11.27510
 Alpha  occ. eigenvalues --  -11.27473 -11.26982 -11.26938  -1.60839  -1.60147
 Alpha  occ. eigenvalues --   -1.40391  -1.39701  -1.20182  -1.19603  -1.09572
 Alpha  occ. eigenvalues --   -1.08993  -1.05547  -1.05008  -0.96437  -0.95835
 Alpha  occ. eigenvalues --   -0.86945  -0.86399  -0.83261  -0.82679  -0.78352
 Alpha  occ. eigenvalues --   -0.77745  -0.72992  -0.72335  -0.72226  -0.71478
 Alpha  occ. eigenvalues --   -0.71246  -0.70654  -0.65805  -0.65521  -0.65246
 Alpha  occ. eigenvalues --   -0.65003  -0.62899  -0.62358  -0.55990  -0.55526
 Alpha  occ. eigenvalues --   -0.54232  -0.53615  -0.53094  -0.52942  -0.49775
 Alpha  occ. eigenvalues --   -0.49739  -0.49096  -0.49089  -0.45808  -0.45120
 Alpha  occ. eigenvalues --   -0.38173  -0.37967  -0.36879  -0.36332
 Alpha virt. eigenvalues --    0.04074   0.04850   0.10452   0.11007   0.15709
 Alpha virt. eigenvalues --    0.16322   0.20338   0.21359   0.25909   0.27193
 Alpha virt. eigenvalues --    0.27567   0.28146   0.30480   0.30722   0.31517

 Mulliken charges:
               1
     1  C   -0.168948
     2  C   -0.218777
     3  C   -0.174900
     4  C    0.153003
     5  C   -0.176457
     6  C   -0.209834
     7  H    0.230889
     8  H    0.226351
     9  H    0.276366
    10  H    0.272024
    11  H    0.226337
    12  N    0.486421
    13  O   -0.462398
    14  O   -0.457247
    15  C   -0.164732
    16  C   -0.218896
    17  C   -0.172317
    18  C    0.156684
    19  C   -0.173612
    20  C   -0.223845
    21  H    0.231064
    22  H    0.224288
    23  H    0.274759
    24  H    0.274701
    25  H    0.223074
    26  N    0.487889
    27  O   -0.460975
    28  O   -0.460912
 Sum of Mulliken charges =  -0.00000

 Dipole moment (field-independent basis, Debye):
    X=             -1.7717    Y=              2.2558    Z=              0.6663  Tot=              2.9447
 Quadrupole moment (field-independent basis, Debye-Ang):
   XX=           -153.8631   YY=            -99.9427   ZZ=            -97.4111
   XY=            -16.2891   XZ=             -2.4637   YZ=             -3.0332

 Normal termination of Gaussian 16 at Wed May  5 22:43:17 2021.
