 Gaussian 16, Revision A.03,
 Gaussian 16:  EM64L-G16RevA.03 25-Dec-2016

 -------------
 #p 6-31g* mp2
 -------------

 ------------------------------------------------------
 Input file generated by CHIRIPA (05-May-2021 14:53:15)
 ------------------------------------------------------
 Symbolic Z-matrix:
 Charge =  0 Multiplicity = 1

                         Standard orientation:
 ---------------------------------------------------------------------
 Center     Atomic      Atomic             Coordinates (Angstroms)
 Number     Number       Type             X           Y           Z
 ---------------------------------------------------------------------
      1          6           0       -1.734636    1.314357   -0.441489
      2          6           0       -1.194320    2.414585    0.472591
      3          6           0       -0.673267    3.624754   -0.303159
      4          1           0       -0.940322    0.995829   -1.130365
      5          1           0       -2.540880    1.727177   -1.063538
      6          1           0       -0.390269    1.999458    1.093708
      7          1           0       -1.989957    2.730397    1.159498
      8          1           0       -1.470532    4.065520   -0.910362
      9          1           0        0.138245    3.330428   -0.976525
     10          1           0       -0.291789    4.399069    0.369724
     11          6           0       -2.259169    0.097916    0.319343
     12          6           0       -2.799485   -1.002313   -0.594737
     13          6           0       -3.320538   -2.212482    0.181013
     14          1           0       -1.452925   -0.314904    0.941392
     15          1           0       -3.053483    0.416444    1.008218
     16          1           0       -2.003848   -1.318124   -1.281644
     17          1           0       -3.603536   -0.587186   -1.215854
     18          1           0       -4.132050   -1.918156    0.854379
     19          1           0       -2.523273   -2.653247    0.788216
     20          1           0       -3.702016   -2.986797   -0.491870
     21          6           0        1.439546   -0.472301    2.566660
     22          6           0        0.908038   -1.565445    1.874523
     23          6           0        0.969225   -1.620036    0.478879
     24          6           0        1.571733   -0.559342   -0.195809
     25          6           0        2.110321    0.543442    0.465313
     26          6           0        2.037936    0.576804    1.861090
     27          1           0        1.387665   -0.438138    3.650883
     28          1           0        0.442736   -2.381622    2.419862
     29          1           0        0.565719   -2.454262   -0.082075
     30          1           0        2.568001    1.341995   -0.105878
     31          1           0        2.451548    1.427018    2.395980
     32          7           0        1.642436   -0.605898   -1.673386
     33          8           0        2.178443    0.341282   -2.244510
     34          8           0        1.160508   -1.588688   -2.232408
 ---------------------------------------------------------------------

 SCF Done:  E(RHF) =  -669.533275775     A.U. after   15 cycles
 E2 =    -0.2099235068D+01 EUMP2 =    -0.67163251084300D+03

 The electronic state is 1-A.
 Alpha  occ. eigenvalues --  -20.61033 -20.61028 -15.86057 -11.31397 -11.27983
 Alpha  occ. eigenvalues --  -11.27960 -11.27714 -11.26980 -11.26958 -11.21418
 Alpha  occ. eigenvalues --  -11.21416 -11.21208 -11.21203 -11.21091 -11.20982
 Alpha  occ. eigenvalues --   -1.60093  -1.39645  -1.19621  -1.08996  -1.08293
 Alpha  occ. eigenvalues --   -1.05030  -1.03444  -0.95924  -0.95827  -0.86940
 Alpha  occ. eigenvalues --   -0.86392  -0.82660  -0.79504  -0.78104  -0.77708
 Alpha  occ. eigenvalues --   -0.72277  -0.71449  -0.70691  -0.65249  -0.65066
 Alpha  occ. eigenvalues --   -0.64943  -0.62371  -0.60875  -0.59282  -0.57527
 Alpha  occ. eigenvalues --   -0.55500  -0.55304  -0.53324  -0.53074  -0.52605
 Alpha  occ. eigenvalues --   -0.52338  -0.49917  -0.49042  -0.49035  -0.47854
 Alpha  occ. eigenvalues --   -0.46598  -0.45613  -0.45440  -0.45009  -0.43669
 Alpha  occ. eigenvalues --   -0.37547  -0.36408
 Alpha virt. eigenvalues --    0.04778   0.10880   0.16188   0.20380   0.23105
 Alpha virt. eigenvalues --    0.23491   0.26332   0.26876   0.27406   0.27991
 Alpha virt. eigenvalues --    0.29106   0.30480   0.30669   0.31903   0.32218

 Mulliken charges:
               1
     1  C   -0.298448
     2  C   -0.306330
     3  C   -0.478517
     4  H    0.149774
     5  H    0.151452
     6  H    0.154212
     7  H    0.149062
     8  H    0.157520
     9  H    0.159566
    10  H    0.155091
    11  C   -0.307149
    12  C   -0.306165
    13  C   -0.473594
    14  H    0.156127
    15  H    0.146096
    16  H    0.161340
    17  H    0.153935
    18  H    0.154907
    19  H    0.142718
    20  H    0.162990
    21  C   -0.168151
    22  C   -0.220574
    23  C   -0.173107
    24  C    0.161595
    25  C   -0.170133
    26  C   -0.219738
    27  H    0.227393
    28  H    0.225565
    29  H    0.277812
    30  H    0.277256
    31  H    0.225503
    32  N    0.490689
    33  O   -0.459195
    34  O   -0.459502
 Sum of Mulliken charges =  -0.00000

 Dipole moment (field-independent basis, Debye):
    X=             -0.0437    Y=              0.0912    Z=              5.1431  Tot=              5.1441
 Quadrupole moment (field-independent basis, Debye-Ang):
   XX=            -94.4447   YY=            -92.3302   ZZ=            -97.3794
   XY=              2.0107   XZ=              8.8178   YZ=             -2.6615

 Normal termination of Gaussian 16 at Thu May  6 02:42:01 2021.
