 Gaussian 16, Revision A.03,
 Gaussian 16:  EM64L-G16RevA.03 25-Dec-2016

 -------------
 #p 6-31g* mp2
 -------------

 ------------------------------------------------------
 Input file generated by CHIRIPA (05-May-2021 14:55:19)
 ------------------------------------------------------
 Symbolic Z-matrix:
 Charge =  0 Multiplicity = 1

                         Standard orientation:
 ---------------------------------------------------------------------
 Center     Atomic      Atomic             Coordinates (Angstroms)
 Number     Number       Type             X           Y           Z
 ---------------------------------------------------------------------
      1          6           0       -0.570636   -0.565485    1.023863
      2          6           0       -1.640456   -0.364789    1.902343
      3          6           0       -2.923738   -0.106958    1.411161
      4          6           0       -3.102157   -0.056581    0.029525
      5          6           0       -2.056444   -0.252289   -0.871293
      6          6           0       -0.781672   -0.508694   -0.357716
      7          1           0        0.422942   -0.765221    1.414124
      8          1           0       -1.479508   -0.408320    2.975770
      9          1           0       -3.769758    0.052165    2.068692
     10          1           0       -2.247916   -0.202848   -1.936334
     11          1           0        0.047298   -0.664164   -1.042319
     12          7           0       -4.456205    0.215618   -0.502323
     13          8           0       -4.587194    0.254894   -1.723771
     14          8           0       -5.360879    0.384539    0.312335
     15          6           0        3.894577    0.786138    0.179917
     16          6           0        3.311112    2.022407   -0.505059
     17          6           0        3.739199    3.327644    0.166425
     18          1           0        3.583396    0.777367    1.233499
     19          1           0        4.991046    0.857889    0.178435
     20          1           0        2.216110    1.947683   -0.503514
     21          1           0        3.623559    2.028136   -1.557181
     22          1           0        4.829218    3.428893    0.151896
     23          1           0        3.413771    3.347984    1.211549
     24          1           0        3.310807    4.198607   -0.339304
     25          6           0        3.475646   -0.526444   -0.479897
     26          6           0        4.059111   -1.762712    0.205081
     27          6           0        3.631023   -3.067949   -0.466405
     28          1           0        2.379177   -0.598194   -0.478414
     29          1           0        3.786826   -0.517672   -1.533479
     30          1           0        3.746663   -1.768441    1.257202
     31          1           0        5.154113   -1.687988    0.203535
     32          1           0        3.956452   -3.088289   -1.511529
     33          1           0        2.541005   -3.169198   -0.451875
     34          1           0        4.059416   -3.938912    0.039325
 ---------------------------------------------------------------------

 SCF Done:  E(RHF) =  -669.535380509     A.U. after   15 cycles
 E2 =    -0.2092113439D+01 EUMP2 =    -0.67162749394822D+03

 The electronic state is 1-A.
 Alpha  occ. eigenvalues --  -20.60764 -20.60759 -15.85817 -11.31192 -11.27763
 Alpha  occ. eigenvalues --  -11.27756 -11.27507 -11.26781 -11.26753 -11.22663
 Alpha  occ. eigenvalues --  -11.22583 -11.22402 -11.22330 -11.22020 -11.21697
 Alpha  occ. eigenvalues --   -1.59839  -1.39392  -1.19366  -1.09448  -1.08760
 Alpha  occ. eigenvalues --   -1.04769  -1.04425  -0.96879  -0.95594  -0.87886
 Alpha  occ. eigenvalues --   -0.86175  -0.82423  -0.80499  -0.79274  -0.77467
 Alpha  occ. eigenvalues --   -0.72036  -0.71162  -0.70493  -0.66150  -0.65013
 Alpha  occ. eigenvalues --   -0.64741  -0.62130  -0.61811  -0.60242  -0.58481
 Alpha  occ. eigenvalues --   -0.56180  -0.55268  -0.53522  -0.53303  -0.53096
 Alpha  occ. eigenvalues --   -0.52860  -0.50822  -0.48825  -0.48790  -0.48776
 Alpha  occ. eigenvalues --   -0.47551  -0.46770  -0.46720  -0.44796  -0.44714
 Alpha  occ. eigenvalues --   -0.37348  -0.36369
 Alpha virt. eigenvalues --    0.05062   0.11205   0.16548   0.18271   0.22742
 Alpha virt. eigenvalues --    0.23567   0.24665   0.25476   0.27035   0.28195
 Alpha virt. eigenvalues --    0.30020   0.30228   0.30957   0.31250   0.31700

 Mulliken charges:
               1
     1  C   -0.173620
     2  C   -0.218625
     3  C   -0.170934
     4  C    0.158670
     5  C   -0.170700
     6  C   -0.223750
     7  H    0.227174
     8  H    0.223447
     9  H    0.275667
    10  H    0.276001
    11  H    0.229003
    12  N    0.487951
    13  O   -0.460276
    14  O   -0.460360
    15  C   -0.298061
    16  C   -0.301585
    17  C   -0.476005
    18  H    0.146879
    19  H    0.154083
    20  H    0.151066
    21  H    0.153973
    22  H    0.156789
    23  H    0.155286
    24  H    0.163675
    25  C   -0.305267
    26  C   -0.300328
    27  C   -0.476247
    28  H    0.141412
    29  H    0.154638
    30  H    0.148752
    31  H    0.157290
    32  H    0.158392
    33  H    0.151091
    34  H    0.164518
 Sum of Mulliken charges =  -0.00000

 Dipole moment (field-independent basis, Debye):
    X=              4.9793    Y=             -0.9210    Z=              1.8361  Tot=              5.3864
 Quadrupole moment (field-independent basis, Debye-Ang):
   XX=           -122.6777   YY=            -96.1107   ZZ=            -90.0724
   XY=              2.3969   XZ=             -8.3744   YZ=             -0.2168

 Normal termination of Gaussian 16 at Thu May  6 14:04:49 2021.
