 Gaussian 16, Revision A.03,
 Gaussian 16:  EM64L-G16RevA.03 25-Dec-2016

 -------------
 #p 6-31g* mp2
 -------------

 ------------------------------------------------------
 Input file generated by CHIRIPA (05-May-2021 14:55:18)
 ------------------------------------------------------
 Symbolic Z-matrix:
 Charge =  0 Multiplicity = 1

                         Standard orientation:
 ---------------------------------------------------------------------
 Center     Atomic      Atomic             Coordinates (Angstroms)
 Number     Number       Type             X           Y           Z
 ---------------------------------------------------------------------
      1          6           0       -5.026174    0.980480    0.669629
      2          6           0       -5.091020    0.041641   -0.365213
      3          6           0       -3.977576   -0.741231   -0.684434
      4          6           0       -2.810116   -0.558246    0.055055
      5          6           0       -2.714245    0.368800    1.091725
      6          6           0       -3.840084    1.140780    1.393519
      7          1           0       -5.895938    1.584404    0.910838
      8          1           0       -6.010833   -0.085003   -0.929084
      9          1           0       -4.000192   -1.475410   -1.480605
     10          1           0       -1.783422    0.472362    1.636024
     11          1           0       -3.786832    1.869123    2.197711
     12          7           0       -1.624802   -1.381273   -0.273666
     13          8           0       -0.608010   -1.200913    0.392849
     14          8           0       -1.734989   -2.191137   -1.191607
     15          6           0        3.545522    1.239135   -0.210881
     16          6           0        2.177323    1.242231   -0.893527
     17          6           0        1.587146    2.646259   -1.028406
     18          1           0        3.453043    1.696651    0.783641
     19          1           0        4.235020    1.874192   -0.784197
     20          1           0        1.490991    0.606251   -0.319858
     21          1           0        2.273031    0.784481   -1.886462
     22          1           0        2.249402    3.287408   -1.619122
     23          1           0        1.462918    3.108166   -0.043617
     24          1           0        0.609051    2.625181   -1.519065
     25          6           0        4.148483   -0.157276   -0.068753
     26          6           0        5.516682   -0.160371    0.613893
     27          6           0        6.106859   -1.564399    0.748772
     28          1           0        3.458985   -0.792332    0.504563
     29          1           0        4.240962   -0.614791   -1.063274
     30          1           0        5.420973    0.297379    1.606829
     31          1           0        6.203014    0.475608    0.040225
     32          1           0        6.231087   -2.026306   -0.236016
     33          1           0        5.444602   -2.205549    1.339488
     34          1           0        7.084953   -1.543321    1.239431
 ---------------------------------------------------------------------

 SCF Done:  E(RHF) =  -669.536270888     A.U. after   15 cycles
 E2 =    -0.2091094266D+01 EUMP2 =    -0.67162736515456D+03

 The electronic state is 1-A.
 Alpha  occ. eigenvalues --  -20.60969 -20.60960 -15.85991 -11.31296 -11.27859
 Alpha  occ. eigenvalues --  -11.27855 -11.27593 -11.26863 -11.26853 -11.20891
 Alpha  occ. eigenvalues --  -11.20587 -11.20531 -11.20473 -11.20445 -11.20406
 Alpha  occ. eigenvalues --   -1.60019  -1.39578  -1.19463  -1.08870  -1.07588
 Alpha  occ. eigenvalues --   -1.04858  -1.02758  -0.95715  -0.95249  -0.86268
 Alpha  occ. eigenvalues --   -0.86257  -0.82552  -0.78799  -0.77613  -0.77362
 Alpha  occ. eigenvalues --   -0.72218  -0.71327  -0.70573  -0.65122  -0.64861
 Alpha  occ. eigenvalues --   -0.64216  -0.62206  -0.60157  -0.58611  -0.56845
 Alpha  occ. eigenvalues --   -0.55363  -0.54551  -0.53190  -0.52950  -0.51968
 Alpha  occ. eigenvalues --   -0.51667  -0.49198  -0.48981  -0.48966  -0.47136
 Alpha  occ. eigenvalues --   -0.45870  -0.45148  -0.44929  -0.44550  -0.43001
 Alpha  occ. eigenvalues --   -0.37440  -0.36457
 Alpha virt. eigenvalues --    0.04883   0.11194   0.16348   0.21277   0.23662
 Alpha virt. eigenvalues --    0.24939   0.27177   0.27468   0.28012   0.28624
 Alpha virt. eigenvalues --    0.28737   0.30824   0.31973   0.32329   0.32445

 Mulliken charges:
               1
     1  C   -0.170557
     2  C   -0.218560
     3  C   -0.170815
     4  C    0.158256
     5  C   -0.170393
     6  C   -0.218436
     7  H    0.226054
     8  H    0.223840
     9  H    0.275839
    10  H    0.275446
    11  H    0.223931
    12  N    0.489357
    13  O   -0.461036
    14  O   -0.458279
    15  C   -0.297104
    16  C   -0.310777
    17  C   -0.474773
    18  H    0.145347
    19  H    0.145191
    20  H    0.175014
    21  H    0.151682
    22  H    0.152587
    23  H    0.149492
    24  H    0.156136
    25  C   -0.299674
    26  C   -0.299047
    27  C   -0.475331
    28  H    0.158959
    29  H    0.149926
    30  H    0.149456
    31  H    0.149188
    32  H    0.155130
    33  H    0.156800
    34  H    0.157150
 Sum of Mulliken charges =  -0.00000

 Dipole moment (field-independent basis, Debye):
    X=             -4.4212    Y=              2.7063    Z=              1.1752  Tot=              5.3153
 Quadrupole moment (field-independent basis, Debye-Ang):
   XX=            -71.2362   YY=            -98.9763   ZZ=            -91.6726
   XY=             -4.4913   XZ=             -1.8980   YZ=              1.7501

 Normal termination of Gaussian 16 at Thu May  6 06:03:44 2021.
