 Gaussian 16, Revision A.03,
 Gaussian 16:  EM64L-G16RevA.03 25-Dec-2016

 -------------
 #p 6-31g* mp2
 -------------

 ------------------------------------------------------
 Input file generated by CHIRIPA (05-May-2021 14:51:10)
 ------------------------------------------------------
 Symbolic Z-matrix:
 Charge =  0 Multiplicity = 1

                         Standard orientation:
 ---------------------------------------------------------------------
 Center     Atomic      Atomic             Coordinates (Angstroms)
 Number     Number       Type             X           Y           Z
 ---------------------------------------------------------------------
      1          6           0        5.305370    0.219915    0.268638
      2          6           0        6.278923   -0.469307   -0.687997
      3          6           0        7.671709   -0.651634   -0.084094
      4          1           0        5.713596    1.198937    0.554667
      5          1           0        5.230995   -0.369822    1.192799
      6          1           0        6.350381    0.120827   -1.610630
      7          1           0        5.868242   -1.446721   -0.971933
      8          1           0        7.620786   -1.259091    0.825303
      9          1           0        8.105666    0.317363    0.182977
     10          1           0        8.351527   -1.146253   -0.784850
     11          6           0        3.908789    0.409308   -0.320786
     12          6           0        2.935236    1.098531    0.635850
     13          6           0        1.542450    1.280857    0.031947
     14          1           0        3.983164    0.999046   -1.244946
     15          1           0        3.500563   -0.569714   -0.606815
     16          1           0        3.345917    2.075945    0.919785
     17          1           0        2.863778    0.508397    1.558483
     18          1           0        1.108493    0.311860   -0.235124
     19          1           0        1.593373    1.888315   -0.877451
     20          1           0        0.862632    1.775476    0.732703
     21          6           0       -5.283997   -0.107964    0.313322
     22          6           0       -6.331233    0.193716   -0.759185
     23          6           0       -7.680171    0.605730   -0.168929
     24          1           0       -5.658599   -0.906582    0.968171
     25          1           0       -5.152127    0.779884    0.947145
     26          1           0       -6.460080   -0.693979   -1.391651
     27          1           0       -5.954013    0.991576   -1.411674
     28          1           0       -7.572960    1.504937    0.446322
     29          1           0       -8.081903   -0.190195    0.466458
     30          1           0       -8.413919    0.816714   -0.953123
     31          6           0       -3.930162   -0.521260   -0.261174
     32          6           0       -2.882927   -0.822940    0.811333
     33          6           0       -1.533988   -1.234954    0.221076
     34          1           0       -4.062032   -1.409107   -0.894998
     35          1           0       -3.555560    0.277358   -0.916024
     36          1           0       -3.260146   -1.620800    1.463820
     37          1           0       -2.754079    0.064755    1.443798
     38          1           0       -1.132256   -0.439028   -0.414311
     39          1           0       -1.641198   -2.134160   -0.394174
     40          1           0       -0.800239   -1.445936    1.005270
 ---------------------------------------------------------------------

 SCF Done:  E(RHF) =  -470.732905831     A.U. after   11 cycles
 E2 =    -0.1582377193D+01 EUMP2 =    -0.47231528302390D+03

 The electronic state is 1-A.
 Alpha  occ. eigenvalues --  -11.21589 -11.21583 -11.21578 -11.21559 -11.21387
 Alpha  occ. eigenvalues --  -11.21377 -11.21328 -11.21317 -11.21061 -11.21056
 Alpha  occ. eigenvalues --  -11.21014 -11.20970  -1.08414  -1.08397  -1.03531
 Alpha  occ. eigenvalues --   -1.03476  -0.96015  -0.95896  -0.87068  -0.86884
 Alpha  occ. eigenvalues --   -0.79649  -0.79494  -0.78235  -0.78202  -0.65071
 Alpha  occ. eigenvalues --   -0.65006  -0.61034  -0.60790  -0.59335  -0.59307
 Alpha  occ. eigenvalues --   -0.57607  -0.57527  -0.55489  -0.55034  -0.52723
 Alpha  occ. eigenvalues --   -0.52611  -0.52463  -0.52270  -0.50137  -0.49633
 Alpha  occ. eigenvalues --   -0.47961  -0.47806  -0.46730  -0.46437  -0.45802
 Alpha  occ. eigenvalues --   -0.45729  -0.45697  -0.45617  -0.43764  -0.43746
 Alpha virt. eigenvalues --    0.22448   0.22965   0.23698   0.24805   0.26290
 Alpha virt. eigenvalues --    0.26685   0.27081   0.27567   0.27648   0.29077
 Alpha virt. eigenvalues --    0.30633   0.30934   0.31626   0.31837   0.32313

 Mulliken charges:
               1
     1  C   -0.298251
     2  C   -0.299642
     3  C   -0.475687
     4  H    0.149566
     5  H    0.149449
     6  H    0.151878
     7  H    0.151976
     8  H    0.155151
     9  H    0.155131
    10  H    0.160197
    11  C   -0.298493
    12  C   -0.299471
    13  C   -0.480954
    14  H    0.149381
    15  H    0.149967
    16  H    0.151475
    17  H    0.151585
    18  H    0.162943
    19  H    0.154008
    20  H    0.159335
    21  C   -0.298294
    22  C   -0.299651
    23  C   -0.475695
    24  H    0.149573
    25  H    0.149518
    26  H    0.151886
    27  H    0.151994
    28  H    0.155173
    29  H    0.155138
    30  H    0.160218
    31  C   -0.298673
    32  C   -0.299408
    33  C   -0.479720
    34  H    0.149407
    35  H    0.150118
    36  H    0.151595
    37  H    0.151989
    38  H    0.161063
    39  H    0.154362
    40  H    0.159862
 Sum of Mulliken charges =  -0.00000

 Dipole moment (field-independent basis, Debye):
    X=             -0.0130    Y=             -0.0089    Z=             -0.0117  Tot=              0.0196
 Quadrupole moment (field-independent basis, Debye-Ang):
   XX=            -86.9608   YY=            -83.1793   ZZ=            -84.8443
   XY=              1.0239   XZ=             -0.1377   YZ=             -0.3845

 Normal termination of Gaussian 16 at Wed May  5 15:10:05 2021.
