 Gaussian 16, Revision A.03,
 Gaussian 16:  EM64L-G16RevA.03 25-Dec-2016

 -------------
 #p 6-31g* mp2
 -------------

 ------------------------------------------------------
 Input file generated by CHIRIPA (05-May-2021 14:57:27)
 ------------------------------------------------------
 Symbolic Z-matrix:
 Charge =  0 Multiplicity = 1

                         Standard orientation:
 ---------------------------------------------------------------------
 Center     Atomic      Atomic             Coordinates (Angstroms)
 Number     Number       Type             X           Y           Z
 ---------------------------------------------------------------------
      1          6           0        3.006608   -2.309648   -0.059651
      2          6           0        2.823527   -1.697188    1.184493
      3          6           0        2.735158   -0.305532    1.284659
      4          6           0        2.834438    0.446458    0.115067
      5          6           0        3.016971   -0.134283   -1.139010
      6          6           0        3.102576   -1.527619   -1.215395
      7          1           0        3.074181   -3.391372   -0.128225
      8          1           0        2.748658   -2.302009    2.083733
      9          1           0        2.593535    0.194615    2.235035
     10          1           0        3.088034    0.495105   -2.017781
     11          1           0        3.244770   -2.000538   -2.182955
     12          7           0        2.742348    1.920631    0.208520
     13          8           0        2.832829    2.560786   -0.836780
     14          8           0        2.581432    2.408020    1.325299
     15          6           0       -5.043147    1.021327    0.133032
     16          6           0       -3.909114    1.697917   -0.328182
     17          6           0       -2.688505    1.029332   -0.461046
     18          6           0       -2.637552   -0.321908   -0.122161
     19          6           0       -3.749840   -1.023618    0.340124
     20          6           0       -4.960037   -0.334890    0.465128
     21          1           0       -5.987300    1.548525    0.233192
     22          1           0       -3.970712    2.751175   -0.586832
     23          1           0       -1.795066    1.528765   -0.815662
     24          1           0       -3.657394   -2.073551    0.590153
     25          1           0       -5.839116   -0.862892    0.823569
     26          7           0       -1.350860   -1.040372   -0.258658
     27          8           0       -1.332179   -2.230822    0.046489
     28          8           0       -0.385395   -0.399450   -0.668209
 ---------------------------------------------------------------------

 SCF Done:  E(RHF) =  -868.338769670     A.U. after   16 cycles
 E2 =    -0.2600588000D+01 EUMP2 =    -0.87093935766980D+03

 The electronic state is 1-A.
 Alpha  occ. eigenvalues --  -20.61008 -20.60985 -20.59729 -20.59723 -15.86031
 Alpha  occ. eigenvalues --  -15.84763 -11.31232 -11.29663 -11.27816 -11.27737
 Alpha  occ. eigenvalues --  -11.27507 -11.26793 -11.26726 -11.26288 -11.26243
 Alpha  occ. eigenvalues --  -11.25971 -11.25243 -11.25199  -1.60066  -1.58809
 Alpha  occ. eigenvalues --   -1.39628  -1.38378  -1.19394  -1.17815  -1.08823
 Alpha  occ. eigenvalues --   -1.07322  -1.04767  -1.03222  -0.95686  -0.94240
 Alpha  occ. eigenvalues --   -0.86176  -0.84671  -0.82526  -0.81127  -0.77587
 Alpha  occ. eigenvalues --   -0.76208  -0.72295  -0.71386  -0.71021  -0.70503
 Alpha  occ. eigenvalues --   -0.70086  -0.69046  -0.65051  -0.64769  -0.63547
 Alpha  occ. eigenvalues --   -0.63315  -0.62112  -0.60646  -0.55287  -0.53800
 Alpha  occ. eigenvalues --   -0.53115  -0.52859  -0.51586  -0.51398  -0.49025
 Alpha  occ. eigenvalues --   -0.48822  -0.47784  -0.47730  -0.45073  -0.43893
 Alpha  occ. eigenvalues --   -0.37377  -0.36364  -0.35705  -0.34737
 Alpha virt. eigenvalues --    0.04920   0.06350   0.11291   0.12885   0.16436
 Alpha virt. eigenvalues --    0.17963   0.21453   0.22742   0.27385   0.28328
 Alpha virt. eigenvalues --    0.28587   0.29608   0.31010   0.32205   0.32586

 Mulliken charges:
               1
     1  C   -0.161459
     2  C   -0.213400
     3  C   -0.171056
     4  C    0.169537
     5  C   -0.160533
     6  C   -0.211244
     7  H    0.221463
     8  H    0.217664
     9  H    0.268223
    10  H    0.268960
    11  H    0.217410
    12  N    0.487036
    13  O   -0.466448
    14  O   -0.467578
    15  C   -0.170357
    16  C   -0.218624
    17  C   -0.170418
    18  C    0.157005
    19  C   -0.171309
    20  C   -0.218753
    21  H    0.226266
    22  H    0.226477
    23  H    0.279915
    24  H    0.273662
    25  H    0.223009
    26  N    0.491118
    27  O   -0.464554
    28  O   -0.462010
 Sum of Mulliken charges =  -0.00000

 Dipole moment (field-independent basis, Debye):
    X=             -4.4603    Y=             -2.7451    Z=              0.0285  Tot=              5.2374
 Quadrupole moment (field-independent basis, Debye-Ang):
   XX=            -80.0289   YY=           -108.7139   ZZ=           -100.6636
   XY=            -18.6551   XZ=             -3.3641   YZ=             -3.2505

 Normal termination of Gaussian 16 at Thu May  6 00:29:53 2021.
