 Gaussian 16, Revision A.03,
 Gaussian 16:  EM64L-G16RevA.03 25-Dec-2016

 -------------
 #p 6-31g* mp2
 -------------

 ------------------------------------------------------
 Input file generated by CHIRIPA (05-May-2021 14:57:22)
 ------------------------------------------------------
 Symbolic Z-matrix:
 Charge =  0 Multiplicity = 1

                         Standard orientation:
 ---------------------------------------------------------------------
 Center     Atomic      Atomic             Coordinates (Angstroms)
 Number     Number       Type             X           Y           Z
 ---------------------------------------------------------------------
      1          6           0        1.816266   -2.386763    0.013446
      2          6           0        1.539849   -1.443330    1.008458
      3          6           0        2.228837   -0.227393    1.045065
      4          6           0        3.192197    0.013293    0.066649
      5          6           0        3.490217   -0.906583   -0.937493
      6          6           0        2.788853   -2.115856   -0.954647
      7          1           0        1.276236   -3.328744   -0.007435
      8          1           0        0.785048   -1.651017    1.761576
      9          1           0        2.034803    0.520708    1.804087
     10          1           0        4.248149   -0.671068   -1.674711
     11          1           0        3.005614   -2.846681   -1.728569
     12          7           0        3.928149    1.297024    0.095106
     13          8           0        4.772220    1.485022   -0.778300
     14          8           0        3.646982    2.090907    0.990278
     15          6           0       -3.114153    2.711105   -0.285049
     16          6           0       -4.311160    1.987442   -0.287355
     17          6           0       -4.299176    0.594860   -0.164380
     18          6           0       -3.066722   -0.044650   -0.040391
     19          6           0       -1.857204    0.648403   -0.034708
     20          6           0       -1.893147    2.040458   -0.158955
     21          1           0       -3.132768    3.792691   -0.381073
     22          1           0       -5.260883    2.505623   -0.385129
     23          1           0       -5.210938    0.009961   -0.163179
     24          1           0       -0.926003    0.103912    0.064357
     25          1           0       -0.961971    2.599879   -0.156851
     26          7           0       -3.041353   -1.518634    0.090470
     27          8           0       -1.942447   -2.058452    0.198353
     28          8           0       -4.120856   -2.106216    0.082677
 ---------------------------------------------------------------------

 SCF Done:  E(RHF) =  -868.340562851     A.U. after   16 cycles
 E2 =    -0.2600250935D+01 EUMP2 =    -0.87094081378599D+03

 The electronic state is 1-A.
 Alpha  occ. eigenvalues --  -20.61468 -20.61395 -20.60912 -20.60893 -15.86472
 Alpha  occ. eigenvalues --  -15.85953 -11.31526 -11.31160 -11.28067 -11.27995
 Alpha  occ. eigenvalues --  -11.27729 -11.27726 -11.27694 -11.27206 -11.27017
 Alpha  occ. eigenvalues --  -11.26956 -11.26591 -11.26524  -1.60501  -1.59989
 Alpha  occ. eigenvalues --   -1.40067  -1.39546  -1.19669  -1.19299  -1.09119
 Alpha  occ. eigenvalues --   -1.08660  -1.05024  -1.04675  -0.96008  -0.95534
 Alpha  occ. eigenvalues --   -0.86434  -0.86026  -0.82854  -0.82382  -0.77952
 Alpha  occ. eigenvalues --   -0.77479  -0.72724  -0.72163  -0.71808  -0.71322
 Alpha  occ. eigenvalues --   -0.70767  -0.70263  -0.65329  -0.65024  -0.64900
 Alpha  occ. eigenvalues --   -0.64572  -0.62395  -0.61983  -0.55529  -0.54996
 Alpha  occ. eigenvalues --   -0.53378  -0.53266  -0.52837  -0.52690  -0.49467
 Alpha  occ. eigenvalues --   -0.49421  -0.48939  -0.48902  -0.45539  -0.44989
 Alpha  occ. eigenvalues --   -0.37634  -0.37161  -0.36624  -0.36301
 Alpha virt. eigenvalues --    0.04534   0.05026   0.11027   0.11334   0.16109
 Alpha virt. eigenvalues --    0.16521   0.21099   0.21960   0.26811   0.27615
 Alpha virt. eigenvalues --    0.28548   0.28702   0.30727   0.31483   0.32245

 Mulliken charges:
               1
     1  C   -0.165542
     2  C   -0.222440
     3  C   -0.183388
     4  C    0.157599
     5  C   -0.171606
     6  C   -0.220308
     7  H    0.239414
     8  H    0.235502
     9  H    0.272413
    10  H    0.274828
    11  H    0.224882
    12  N    0.487893
    13  O   -0.460047
    14  O   -0.464290
    15  C   -0.169622
    16  C   -0.219073
    17  C   -0.170291
    18  C    0.155376
    19  C   -0.177717
    20  C   -0.222566
    21  H    0.228597
    22  H    0.224644
    23  H    0.275395
    24  H    0.280656
    25  H    0.230175
    26  N    0.489943
    27  O   -0.473491
    28  O   -0.456936
 Sum of Mulliken charges =  -0.00000

 Dipole moment (field-independent basis, Debye):
    X=             -2.8202    Y=              0.4940    Z=             -0.6094  Tot=              2.9273
 Quadrupole moment (field-independent basis, Debye-Ang):
   XX=           -115.1464   YY=           -105.2374   ZZ=           -102.6430
   XY=            -32.1542   XZ=             -1.1925   YZ=              0.6518

 Normal termination of Gaussian 16 at Thu May  6 00:12:49 2021.
