 Gaussian 16, Revision A.03,
 Gaussian 16:  EM64L-G16RevA.03 25-Dec-2016

 -------------
 #p 6-31g* mp2
 -------------

 ------------------------------------------------------
 Input file generated by CHIRIPA (05-May-2021 14:51:08)
 ------------------------------------------------------
 Symbolic Z-matrix:
 Charge =  0 Multiplicity = 1

                         Standard orientation:
 ---------------------------------------------------------------------
 Center     Atomic      Atomic             Coordinates (Angstroms)
 Number     Number       Type             X           Y           Z
 ---------------------------------------------------------------------
      1          6           0       -2.494318   -0.271409   -0.328083
      2          6           0       -3.565830   -0.726219   -1.319544
      3          6           0       -3.416739   -2.194616   -1.718764
      4          1           0       -1.501902   -0.433640   -0.770504
      5          1           0       -2.543430   -0.903207    0.569588
      6          1           0       -3.515621   -0.092860   -2.214502
      7          1           0       -4.555816   -0.562709   -0.874787
      8          1           0       -3.488491   -2.842229   -0.838962
      9          1           0       -2.442386   -2.369709   -2.186289
     10          1           0       -4.192889   -2.498626   -2.428009
     11          6           0       -2.630065    1.194304    0.080557
     12          6           0       -1.558553    1.649114    1.072017
     13          6           0       -1.707645    3.117511    1.471237
     14          1           0       -2.580953    1.826102   -0.817115
     15          1           0       -3.622482    1.356534    0.522977
     16          1           0       -0.568567    1.485604    0.627261
     17          1           0       -1.608762    1.015754    1.966975
     18          1           0       -2.681998    3.292604    1.938762
     19          1           0       -1.635892    3.765123    0.591436
     20          1           0       -0.931494    3.421520    2.180482
     21          6           0        2.887924   -0.389000   -0.563319
     22          6           0        3.282665    1.049668   -0.898578
     23          6           0        3.933058    1.178438   -2.276330
     24          1           0        3.780507   -1.027786   -0.610156
     25          1           0        2.196723   -0.760871   -1.332310
     26          1           0        3.971833    1.419185   -0.128435
     27          1           0        2.389072    1.685137   -0.850750
     28          1           0        3.248557    0.835714   -3.059017
     29          1           0        4.840311    0.568252   -2.332598
     30          1           0        4.207278    2.215076   -2.495524
     31          6           0        2.236459   -0.533895    0.810845
     32          6           0        1.841719   -1.972563    1.146105
     33          6           0        1.191325   -2.101333    2.523856
     34          1           0        2.927660   -0.162023    1.579837
     35          1           0        1.343876    0.104891    0.857682
     36          1           0        2.735311   -2.608033    1.098277
     37          1           0        1.152551   -2.342080    0.375962
     38          1           0        0.284073   -1.491146    2.580124
     39          1           0        1.875826   -1.758609    3.306543
     40          1           0        0.917106   -3.137972    2.743051
 ---------------------------------------------------------------------

 SCF Done:  E(RHF) =  -470.733380842     A.U. after   11 cycles
 E2 =    -0.1583706412D+01 EUMP2 =    -0.47231708725438D+03

 The electronic state is 1-A.
 Alpha  occ. eigenvalues --  -11.21689 -11.21666 -11.21624 -11.21550 -11.21490
 Alpha  occ. eigenvalues --  -11.21430 -11.21384 -11.21289 -11.21128 -11.21121
 Alpha  occ. eigenvalues --  -11.21090 -11.21021  -1.08518  -1.08404  -1.03602
 Alpha  occ. eigenvalues --   -1.03509  -0.96044  -0.95959  -0.87062  -0.86975
 Alpha  occ. eigenvalues --   -0.79693  -0.79561  -0.78392  -0.78159  -0.65232
 Alpha  occ. eigenvalues --   -0.64964  -0.61001  -0.60908  -0.59424  -0.59317
 Alpha  occ. eigenvalues --   -0.57663  -0.57563  -0.55331  -0.55251  -0.52738
 Alpha  occ. eigenvalues --   -0.52657  -0.52475  -0.52381  -0.50010  -0.49894
 Alpha  occ. eigenvalues --   -0.48073  -0.47869  -0.46785  -0.46607  -0.46160
 Alpha  occ. eigenvalues --   -0.45793  -0.45713  -0.45239  -0.43853  -0.43762
 Alpha virt. eigenvalues --    0.19855   0.23219   0.23620   0.23754   0.25125
 Alpha virt. eigenvalues --    0.25936   0.26981   0.27927   0.28505   0.29628
 Alpha virt. eigenvalues --    0.31023   0.31444   0.31749   0.31919   0.32001

 Mulliken charges:
               1
     1  C   -0.299826
     2  C   -0.299717
     3  C   -0.475765
     4  H    0.149526
     5  H    0.150173
     6  H    0.152096
     7  H    0.152356
     8  H    0.155519
     9  H    0.154934
    10  H    0.160564
    11  C   -0.297823
    12  C   -0.308178
    13  C   -0.475233
    14  H    0.149640
    15  H    0.150192
    16  H    0.158403
    17  H    0.152737
    18  H    0.155487
    19  H    0.155238
    20  H    0.160976
    21  C   -0.297855
    22  C   -0.300261
    23  C   -0.475637
    24  H    0.149813
    25  H    0.148554
    26  H    0.152284
    27  H    0.151285
    28  H    0.154928
    29  H    0.155436
    30  H    0.160284
    31  C   -0.307897
    32  C   -0.299061
    33  C   -0.477221
    34  H    0.149139
    35  H    0.159555
    36  H    0.151545
    37  H    0.152349
    38  H    0.156766
    39  H    0.154833
    40  H    0.159860
 Sum of Mulliken charges =  -0.00000

 Dipole moment (field-independent basis, Debye):
    X=             -0.0418    Y=              0.0225    Z=              0.0064  Tot=              0.0479
 Quadrupole moment (field-independent basis, Debye-Ang):
   XX=            -83.7276   YY=            -85.8362   ZZ=            -85.1060
   XY=             -0.1101   XZ=              0.3695   YZ=             -0.3862

 Normal termination of Gaussian 16 at Wed May  5 15:06:11 2021.
