 Gaussian 16, Revision A.03,
 Gaussian 16:  EM64L-G16RevA.03 25-Dec-2016

 -------------
 #p 6-31g* mp2
 -------------

 ------------------------------------------------------
 Input file generated by CHIRIPA (05-May-2021 14:55:25)
 ------------------------------------------------------
 Symbolic Z-matrix:
 Charge =  0 Multiplicity = 1

                         Standard orientation:
 ---------------------------------------------------------------------
 Center     Atomic      Atomic             Coordinates (Angstroms)
 Number     Number       Type             X           Y           Z
 ---------------------------------------------------------------------
      1          6           0        0.336112   -1.944988    0.755944
      2          6           0        1.017817   -2.230780   -0.431541
      3          6           0        2.149300   -1.494678   -0.795475
      4          6           0        2.573337   -0.475156    0.055440
      5          6           0        1.915550   -0.166380    1.245089
      6          6           0        0.786360   -0.915515    1.589001
      7          1           0       -0.541960   -2.521872    1.030880
      8          1           0        0.670420   -3.029712   -1.080439
      9          1           0        2.695947   -1.694722   -1.709027
     10          1           0        2.285785    0.636045    1.871553
     11          1           0        0.258920   -0.691343    2.511821
     12          7           0        3.769974    0.311021   -0.319242
     13          8           0        4.123345    1.204147    0.447628
     14          8           0        4.331867    0.019214   -1.372695
     15          6           0       -2.529803    1.223541   -0.495881
     16          6           0       -1.561806    1.899685    0.475611
     17          6           0       -0.544330    2.795640   -0.231354
     18          1           0       -1.956584    0.629039   -1.220404
     19          1           0       -3.057900    1.995233   -1.072944
     20          1           0       -1.036697    1.126984    1.051642
     21          1           0       -2.137408    2.492491    1.198022
     22          1           0       -1.051990    3.587199   -0.791993
     23          1           0        0.054975    2.213933   -0.939205
     24          1           0        0.137709    3.268965    0.481840
     25          6           0       -3.553056    0.324561    0.195869
     26          6           0       -4.521053   -0.351583   -0.775623
     27          6           0       -5.538530   -1.247537   -0.068658
     28          1           0       -3.024960   -0.447131    0.772932
     29          1           0       -4.126276    0.919062    0.920392
     30          1           0       -3.945452   -0.944389   -1.498034
     31          1           0       -5.046163    0.421117   -1.351654
     32          1           0       -6.137834   -0.665831    0.639193
     33          1           0       -5.030869   -2.039096    0.491981
     34          1           0       -6.220569   -1.720864   -0.781852
 ---------------------------------------------------------------------

 SCF Done:  E(RHF) =  -669.535012378     A.U. after   15 cycles
 E2 =    -0.2093769244D+01 EUMP2 =    -0.67162878162161D+03

 The electronic state is 1-A.
 Alpha  occ. eigenvalues --  -20.60836 -20.60831 -15.85892 -11.31310 -11.27871
 Alpha  occ. eigenvalues --  -11.27866 -11.27627 -11.26903 -11.26890 -11.22133
 Alpha  occ. eigenvalues --  -11.21940 -11.21788 -11.21699 -11.21632 -11.21150
 Alpha  occ. eigenvalues --   -1.59910  -1.39462  -1.19488  -1.08899  -1.08820
 Alpha  occ. eigenvalues --   -1.04903  -1.03892  -0.96346  -0.95694  -0.87356
 Alpha  occ. eigenvalues --   -0.86289  -0.82529  -0.79978  -0.78672  -0.77562
 Alpha  occ. eigenvalues --   -0.72109  -0.71234  -0.70580  -0.65517  -0.65136
 Alpha  occ. eigenvalues --   -0.64881  -0.62246  -0.61315  -0.59724  -0.57962
 Alpha  occ. eigenvalues --   -0.55669  -0.55370  -0.53220  -0.52999  -0.52988
 Alpha  occ. eigenvalues --   -0.52754  -0.50288  -0.48873  -0.48860  -0.48284
 Alpha  occ. eigenvalues --   -0.47034  -0.46205  -0.46138  -0.44856  -0.44158
 Alpha  occ. eigenvalues --   -0.37433  -0.36410
 Alpha virt. eigenvalues --    0.04945   0.11062   0.16341   0.20284   0.22776
 Alpha virt. eigenvalues --    0.23780   0.25683   0.26586   0.27023   0.27836
 Alpha virt. eigenvalues --    0.29372   0.30082   0.31118   0.31509   0.31953

 Mulliken charges:
               1
     1  C   -0.170548
     2  C   -0.218917
     3  C   -0.171300
     4  C    0.158753
     5  C   -0.168098
     6  C   -0.220009
     7  H    0.226581
     8  H    0.224090
     9  H    0.276151
    10  H    0.276514
    11  H    0.225425
    12  N    0.488054
    13  O   -0.459718
    14  O   -0.460140
    15  C   -0.297731
    16  C   -0.304940
    17  C   -0.475992
    18  H    0.150383
    19  H    0.151314
    20  H    0.152043
    21  H    0.149936
    22  H    0.156262
    23  H    0.157138
    24  H    0.161418
    25  C   -0.296654
    26  C   -0.299850
    27  C   -0.475102
    28  H    0.139396
    29  H    0.151021
    30  H    0.150241
    31  H    0.154920
    32  H    0.156847
    33  H    0.150591
    34  H    0.161920
 Sum of Mulliken charges =  -0.00000

 Dipole moment (field-independent basis, Debye):
    X=             -4.1405    Y=             -2.7495    Z=              1.2759  Tot=              5.1314
 Quadrupole moment (field-independent basis, Debye-Ang):
   XX=           -117.3062   YY=            -90.9490   ZZ=            -91.4673
   XY=             -6.5811   XZ=              3.1520   YZ=              2.0869

 Normal termination of Gaussian 16 at Thu May  6 04:48:03 2021.
