 Gaussian 16, Revision A.03,
 Gaussian 16:  EM64L-G16RevA.03 25-Dec-2016

 -------------
 #p 6-31g* mp2
 -------------

 ------------------------------------------------------
 Input file generated by CHIRIPA (05-May-2021 14:55:19)
 ------------------------------------------------------
 Symbolic Z-matrix:
 Charge =  0 Multiplicity = 1

                         Standard orientation:
 ---------------------------------------------------------------------
 Center     Atomic      Atomic             Coordinates (Angstroms)
 Number     Number       Type             X           Y           Z
 ---------------------------------------------------------------------
      1          6           0        5.523985    0.274261    0.632782
      2          6           0        5.277501   -0.684491   -0.355430
      3          6           0        3.967625   -0.993091   -0.734293
      4          6           0        2.923335   -0.320687   -0.101347
      5          6           0        3.136605    0.639408    0.886592
      6          6           0        4.454636    0.931991    1.249552
      7          1           0        6.544696    0.507767    0.920915
      8          1           0        6.106017   -1.196873   -0.836127
      9          1           0        3.748298   -1.731030   -1.496369
     10          1           0        2.290107    1.133519    1.347801
     11          1           0        4.643070    1.677020    2.017320
     12          7           0        1.532311   -0.638910   -0.494014
     13          8           0        0.629676   -0.032458    0.078788
     14          8           0        1.371002   -1.488759   -1.367153
     15          6           0       -4.039541   -0.345492    0.376909
     16          6           0       -5.331688   -1.126182    0.134292
     17          6           0       -5.324986   -2.502230    0.800807
     18          1           0       -3.188866   -0.931507    0.002901
     19          1           0       -3.887335   -0.229117    1.458892
     20          1           0       -5.482129   -1.239852   -0.946939
     21          1           0       -6.179404   -0.538157    0.508750
     22          1           0       -5.199510   -2.404984    1.884043
     23          1           0       -4.498273   -3.110666    0.420084
     24          1           0       -6.258078   -3.043072    0.614561
     25          6           0       -4.031095    1.032186   -0.283136
     26          6           0       -2.738948    1.812877   -0.040519
     27          6           0       -2.745650    3.188924   -0.707033
     28          1           0       -4.183301    0.915811   -1.365118
     29          1           0       -4.881771    1.618201    0.090873
     30          1           0       -1.891232    1.224851   -0.414976
     31          1           0       -2.588507    1.926546    1.040714
     32          1           0       -3.572364    3.797361   -0.326310
     33          1           0       -2.871127    3.091679   -1.790270
     34          1           0       -1.812558    3.729766   -0.520787
 ---------------------------------------------------------------------

 SCF Done:  E(RHF) =  -669.536240950     A.U. after   15 cycles
 E2 =    -0.2090898115D+01 EUMP2 =    -0.67162713906425D+03

 The electronic state is 1-A.
 Alpha  occ. eigenvalues --  -20.60992 -20.60978 -15.86015 -11.31317 -11.27878
 Alpha  occ. eigenvalues --  -11.27874 -11.27613 -11.26882 -11.26872 -11.20641
 Alpha  occ. eigenvalues --  -11.20225 -11.20220 -11.20144 -11.20110 -11.20036
 Alpha  occ. eigenvalues --   -1.60049  -1.39604  -1.19484  -1.08893  -1.07258
 Alpha  occ. eigenvalues --   -1.04877  -1.02430  -0.95738  -0.94927  -0.86278
 Alpha  occ. eigenvalues --   -0.85947  -0.82573  -0.78478  -0.77627  -0.77030
 Alpha  occ. eigenvalues --   -0.72236  -0.71359  -0.70592  -0.65140  -0.64880
 Alpha  occ. eigenvalues --   -0.63885  -0.62224  -0.59826  -0.58293  -0.56521
 Alpha  occ. eigenvalues --   -0.55383  -0.54225  -0.53210  -0.52969  -0.51654
 Alpha  occ. eigenvalues --   -0.51347  -0.49059  -0.48995  -0.48842  -0.46796
 Alpha  occ. eigenvalues --   -0.45502  -0.45016  -0.44605  -0.44399  -0.42676
 Alpha  occ. eigenvalues --   -0.37462  -0.36477
 Alpha virt. eigenvalues --    0.04891   0.11178   0.16385   0.21309   0.24013
 Alpha virt. eigenvalues --    0.25329   0.27234   0.27822   0.28122   0.28796
 Alpha virt. eigenvalues --    0.29046   0.30888   0.32353   0.32443   0.32856

 Mulliken charges:
               1
     1  C   -0.170518
     2  C   -0.218612
     3  C   -0.170498
     4  C    0.157639
     5  C   -0.170812
     6  C   -0.218564
     7  H    0.226087
     8  H    0.223873
     9  H    0.275834
    10  H    0.276142
    11  H    0.223958
    12  N    0.491228
    13  O   -0.462246
    14  O   -0.459527
    15  C   -0.299899
    16  C   -0.298820
    17  C   -0.475272
    18  H    0.162318
    19  H    0.146264
    20  H    0.150808
    21  H    0.148157
    22  H    0.153092
    23  H    0.157403
    24  H    0.156593
    25  C   -0.297281
    26  C   -0.309600
    27  C   -0.474461
    28  H    0.147462
    29  H    0.143348
    30  H    0.181526
    31  H    0.146047
    32  H    0.149647
    33  H    0.153103
    34  H    0.155581
 Sum of Mulliken charges =  -0.00000

 Dipole moment (field-independent basis, Debye):
    X=              5.2775    Y=              0.9805    Z=              1.3449  Tot=              5.5337
 Quadrupole moment (field-independent basis, Debye-Ang):
   XX=            -67.3382   YY=            -95.3614   ZZ=            -92.8843
   XY=              0.5242   XZ=              2.2450   YZ=              2.9936

 Normal termination of Gaussian 16 at Thu May  6 20:37:11 2021.
