 Gaussian 16, Revision A.03,
 Gaussian 16:  EM64L-G16RevA.03 25-Dec-2016

 -------------
 #p 6-31g* mp2
 -------------

 ------------------------------------------------------
 Input file generated by CHIRIPA (05-May-2021 14:51:09)
 ------------------------------------------------------
 Symbolic Z-matrix:
 Charge =  0 Multiplicity = 1

                         Standard orientation:
 ---------------------------------------------------------------------
 Center     Atomic      Atomic             Coordinates (Angstroms)
 Number     Number       Type             X           Y           Z
 ---------------------------------------------------------------------
      1          6           0        3.098451    0.430686    0.387057
      2          6           0        3.764735    1.422613   -0.566951
      3          6           0        4.261597    2.682554    0.142605
      4          1           0        2.256938    0.925331    0.891167
      5          1           0        3.813664    0.151942    1.173292
      6          1           0        3.048928    1.698341   -1.351942
      7          1           0        4.604641    0.925492   -1.068991
      8          1           0        4.995317    2.426428    0.913744
      9          1           0        3.430765    3.203668    0.629185
     10          1           0        4.734431    3.377845   -0.558008
     11          6           0        2.596505   -0.833989   -0.307475
     12          6           0        1.930220   -1.825917    0.646532
     13          6           0        1.433358   -3.085858   -0.063024
     14          1           0        1.881291   -0.555246   -1.093711
     15          1           0        3.438017   -1.328635   -0.811586
     16          1           0        1.090314   -1.328795    1.148572
     17          1           0        2.646027   -2.101644    1.431523
     18          1           0        2.264190   -3.606972   -0.549604
     19          1           0        0.699638   -2.829732   -0.834162
     20          1           0        0.960524   -3.781149    0.637589
     21          6           0       -2.973195   -0.507637    0.214251
     22          6           0       -2.142537   -1.567363   -0.510297
     23          6           0       -2.405118   -2.981252    0.009090
     24          1           0       -2.753938   -0.551283    1.289875
     25          1           0       -4.039544   -0.748123    0.102611
     26          1           0       -1.078121   -1.324186   -0.398495
     27          1           0       -2.363655   -1.521061   -1.584346
     28          1           0       -3.459259   -3.248498   -0.117278
     29          1           0       -2.166421   -3.050505    1.075311
     30          1           0       -1.800989   -3.722941   -0.522687
     31          6           0       -2.721760    0.910940   -0.293832
     32          6           0       -3.552418    1.970667    0.430717
     33          6           0       -3.289837    3.384556   -0.088671
     34          1           0       -1.655412    1.151427   -0.182193
     35          1           0       -2.941018    0.954587   -1.369456
     36          1           0       -3.331300    1.924364    1.504764
     37          1           0       -4.616834    1.727490    0.318913
     38          1           0       -3.528535    3.453808   -1.154893
     39          1           0       -2.235697    3.651802    0.037696
     40          1           0       -3.893966    4.126245    0.443106
 ---------------------------------------------------------------------

 SCF Done:  E(RHF) =  -470.732494711     A.U. after   11 cycles
 E2 =    -0.1584043716D+01 EUMP2 =    -0.47231653842738D+03

 The electronic state is 1-A.
 Alpha  occ. eigenvalues --  -11.21634 -11.21633 -11.21624 -11.21589 -11.21440
 Alpha  occ. eigenvalues --  -11.21439 -11.21380 -11.21376 -11.21102 -11.21091
 Alpha  occ. eigenvalues --  -11.21028 -11.21012  -1.08495  -1.08426  -1.03632
 Alpha  occ. eigenvalues --   -1.03471  -0.96081  -0.95909  -0.87069  -0.86951
 Alpha  occ. eigenvalues --   -0.79619  -0.79615  -0.78293  -0.78261  -0.65319
 Alpha  occ. eigenvalues --   -0.64915  -0.61332  -0.60635  -0.59412  -0.59295
 Alpha  occ. eigenvalues --   -0.57676  -0.57566  -0.55453  -0.55047  -0.52810
 Alpha  occ. eigenvalues --   -0.52575  -0.52458  -0.52355  -0.49941  -0.49900
 Alpha  occ. eigenvalues --   -0.48017  -0.47860  -0.46662  -0.46611  -0.45929
 Alpha  occ. eigenvalues --   -0.45788  -0.45745  -0.45596  -0.43873  -0.43723
 Alpha virt. eigenvalues --    0.20066   0.23181   0.23432   0.25124   0.25869
 Alpha virt. eigenvalues --    0.26435   0.26811   0.27707   0.29026   0.29397
 Alpha virt. eigenvalues --    0.30337   0.30781   0.31154   0.32167   0.32389

 Mulliken charges:
               1
     1  C   -0.298086
     2  C   -0.299762
     3  C   -0.475687
     4  H    0.148915
     5  H    0.149714
     6  H    0.152157
     7  H    0.152095
     8  H    0.155223
     9  H    0.155031
    10  H    0.160434
    11  C   -0.299746
    12  C   -0.301978
    13  C   -0.479621
    14  H    0.150154
    15  H    0.150181
    16  H    0.151685
    17  H    0.152728
    18  H    0.154719
    19  H    0.160252
    20  H    0.161509
    21  C   -0.297798
    22  C   -0.307608
    23  C   -0.475914
    24  H    0.149436
    25  H    0.149774
    26  H    0.159139
    27  H    0.151435
    28  H    0.154670
    29  H    0.154828
    30  H    0.162745
    31  C   -0.298224
    32  C   -0.299673
    33  C   -0.475684
    34  H    0.148398
    35  H    0.149768
    36  H    0.151980
    37  H    0.152183
    38  H    0.155254
    39  H    0.154929
    40  H    0.160444
 Sum of Mulliken charges =  -0.00000

 Dipole moment (field-independent basis, Debye):
    X=              0.0070    Y=             -0.0206    Z=             -0.0101  Tot=              0.0240
 Quadrupole moment (field-independent basis, Debye-Ang):
   XX=            -83.5796   YY=            -86.6159   ZZ=            -84.4966
   XY=             -0.8065   XZ=              0.5318   YZ=             -0.0528

 Normal termination of Gaussian 16 at Wed May  5 16:38:37 2021.
