 Gaussian 16, Revision A.03,
 Gaussian 16:  EM64L-G16RevA.03 25-Dec-2016

 -------------
 #p 6-31g* mp2
 -------------

 ------------------------------------------------------
 Input file generated by CHIRIPA (05-May-2021 14:55:20)
 ------------------------------------------------------
 Symbolic Z-matrix:
 Charge =  0 Multiplicity = 1

                         Standard orientation:
 ---------------------------------------------------------------------
 Center     Atomic      Atomic             Coordinates (Angstroms)
 Number     Number       Type             X           Y           Z
 ---------------------------------------------------------------------
      1          6           0        0.109099   -2.055914    0.579304
      2          6           0        0.480769   -1.843620   -0.752354
      3          6           0        1.600783   -1.066131   -1.061593
      4          6           0        2.329620   -0.513574   -0.009563
      5          6           0        1.984711   -0.706826    1.327217
      6          6           0        0.860931   -1.487841    1.613017
      7          1           0       -0.762417   -2.661256    0.810424
      8          1           0       -0.101242   -2.283552   -1.557195
      9          1           0        1.910925   -0.885667   -2.083680
     10          1           0        2.584605   -0.255193    2.107969
     11          1           0        0.574635   -1.651022    2.648127
     12          7           0        3.517322    0.311385   -0.324533
     13          8           0        4.142783    0.787139    0.620503
     14          8           0        3.800293    0.466614   -1.510479
     15          6           0       -2.708682    1.593471   -0.007530
     16          6           0       -1.290877    2.151100    0.122332
     17          6           0       -1.261951    3.677019    0.214668
     18          1           0       -3.185525    2.025230   -0.898119
     19          1           0       -3.304461    1.920854    0.855757
     20          1           0       -0.697565    1.821616   -0.740244
     21          1           0       -0.817287    1.717816    1.012608
     22          1           0       -1.830267    4.021146    1.084839
     23          1           0       -1.709864    4.125536   -0.677973
     24          1           0       -0.238720    4.054313    0.306900
     25          6           0       -2.754032    0.069346   -0.100882
     26          6           0       -4.171837   -0.488283   -0.230742
     27          6           0       -4.200762   -2.014203   -0.323080
     28          1           0       -2.158253   -0.258037   -0.964169
     29          1           0       -2.277189   -0.362414    0.789707
     30          1           0       -4.645426   -0.055000   -1.121019
     31          1           0       -4.765150   -0.158800    0.631833
     32          1           0       -3.752851   -2.462720    0.569562
     33          1           0       -3.632447   -2.358330   -1.193250
     34          1           0       -5.223994   -2.391497   -0.415310
 ---------------------------------------------------------------------

 SCF Done:  E(RHF) =  -669.534587501     A.U. after   15 cycles
 E2 =    -0.2094440484D+01 EUMP2 =    -0.67162902798503D+03

 The electronic state is 1-A.
 Alpha  occ. eigenvalues --  -20.60763 -20.60758 -15.85820 -11.31179 -11.27785
 Alpha  occ. eigenvalues --  -11.27773 -11.27484 -11.26774 -11.26744 -11.22255
 Alpha  occ. eigenvalues --  -11.22045 -11.21885 -11.21751 -11.21688 -11.21110
 Alpha  occ. eigenvalues --   -1.59840  -1.39394  -1.19368  -1.08922  -1.08721
 Alpha  occ. eigenvalues --   -1.04778  -1.03980  -0.96451  -0.95593  -0.87469
 Alpha  occ. eigenvalues --   -0.86175  -0.82432  -0.80059  -0.78676  -0.77472
 Alpha  occ. eigenvalues --   -0.72038  -0.71163  -0.70477  -0.65529  -0.65020
 Alpha  occ. eigenvalues --   -0.64781  -0.62130  -0.61382  -0.59841  -0.58053
 Alpha  occ. eigenvalues --   -0.55764  -0.55272  -0.53346  -0.52995  -0.52872
 Alpha  occ. eigenvalues --   -0.52821  -0.50416  -0.48798  -0.48792  -0.48383
 Alpha  occ. eigenvalues --   -0.47095  -0.46150  -0.46132  -0.44802  -0.44207
 Alpha  occ. eigenvalues --   -0.37211  -0.36347
 Alpha virt. eigenvalues --    0.05049   0.11154   0.16454   0.19640   0.22868
 Alpha virt. eigenvalues --    0.23895   0.24890   0.26259   0.27296   0.27822
 Alpha virt. eigenvalues --    0.29365   0.29752   0.31255   0.31689   0.32267

 Mulliken charges:
               1
     1  C   -0.166031
     2  C   -0.217576
     3  C   -0.172215
     4  C    0.159432
     5  C   -0.170034
     6  C   -0.221011
     7  H    0.228835
     8  H    0.223202
     9  H    0.275417
    10  H    0.275611
    11  H    0.223135
    12  N    0.488032
    13  O   -0.460651
    14  O   -0.460726
    15  C   -0.298762
    16  C   -0.300589
    17  C   -0.476577
    18  H    0.150351
    19  H    0.149200
    20  H    0.153225
    21  H    0.151820
    22  H    0.154027
    23  H    0.155388
    24  H    0.164695
    25  C   -0.298670
    26  C   -0.299514
    27  C   -0.476457
    28  H    0.148021
    29  H    0.146404
    30  H    0.154583
    31  H    0.153714
    32  H    0.147981
    33  H    0.150436
    34  H    0.165300
 Sum of Mulliken charges =  -0.00000

 Dipole moment (field-independent basis, Debye):
    X=             -4.1871    Y=             -2.8529    Z=              1.0997  Tot=              5.1846
 Quadrupole moment (field-independent basis, Debye-Ang):
   XX=           -114.9393   YY=            -93.5532   ZZ=            -89.0430
   XY=             -4.7702   XZ=              3.5185   YZ=              0.0957

 Normal termination of Gaussian 16 at Thu May  6 01:21:48 2021.
