 Gaussian 16, Revision A.03,
 Gaussian 16:  EM64L-G16RevA.03 25-Dec-2016

 -------------
 #p 6-31g* mp2
 -------------

 ------------------------------------------------------
 Input file generated by CHIRIPA (05-May-2021 14:55:21)
 ------------------------------------------------------
 Symbolic Z-matrix:
 Charge =  0 Multiplicity = 1

                         Standard orientation:
 ---------------------------------------------------------------------
 Center     Atomic      Atomic             Coordinates (Angstroms)
 Number     Number       Type             X           Y           Z
 ---------------------------------------------------------------------
      1          6           0       -2.118519    2.422708    0.608646
      2          6           0       -3.450672    2.274858    0.208609
      3          6           0       -3.926994    1.035732   -0.229836
      4          6           0       -3.039724   -0.039154   -0.255592
      5          6           0       -1.707000    0.076409    0.136560
      6          6           0       -1.252462    1.324947    0.571410
      7          1           0       -1.756962    3.388947    0.947844
      8          1           0       -4.125520    3.125651    0.236478
      9          1           0       -4.953478    0.893261   -0.545190
     10          1           0       -1.058053   -0.790065    0.097724
     11          1           0       -0.217388    1.436834    0.881490
     12          7           0       -3.532454   -1.355943   -0.717851
     13          8           0       -2.730697   -2.287417   -0.731209
     14          8           0       -4.711083   -1.431635   -1.058059
     15          6           0        3.666864   -0.300294    0.980471
     16          6           0        2.290129   -0.871202    1.322011
     17          6           0        2.064929   -1.010529    2.827888
     18          1           0        4.442581   -0.948774    1.410217
     19          1           0        3.778545    0.681433    1.461235
     20          1           0        2.180542   -1.850946    0.839611
     21          1           0        1.517601   -0.221392    0.891239
     22          1           0        2.147380   -0.036777    3.321458
     23          1           0        2.814088   -1.675590    3.269538
     24          1           0        1.074610   -1.420434    3.049489
     25          6           0        3.906938   -0.155051   -0.521193
     26          6           0        5.283673    0.415858   -0.862732
     27          6           0        5.508873    0.555184   -2.368610
     28          1           0        3.795257   -1.136778   -1.001956
     29          1           0        3.131220    0.493429   -0.950939
     30          1           0        6.056201   -0.233952   -0.431960
     31          1           0        5.393261    1.395601   -0.380332
     32          1           0        4.759714    1.220245   -2.810259
     33          1           0        5.426421   -0.418567   -2.862180
     34          1           0        6.499192    0.965089   -2.590210
 ---------------------------------------------------------------------

 SCF Done:  E(RHF) =  -669.535358387     A.U. after   15 cycles
 E2 =    -0.2091592549D+01 EUMP2 =    -0.67162695093659D+03

 The electronic state is 1-A.
 Alpha  occ. eigenvalues --  -20.60731 -20.60726 -15.85784 -11.31143 -11.27721
 Alpha  occ. eigenvalues --  -11.27691 -11.27467 -11.26737 -11.26709 -11.22445
 Alpha  occ. eigenvalues --  -11.22023 -11.22007 -11.21874 -11.21729 -11.21381
 Alpha  occ. eigenvalues --   -1.59807  -1.39360  -1.19319  -1.09021  -1.08717
 Alpha  occ. eigenvalues --   -1.04727  -1.04095  -0.96511  -0.95552  -0.87526
 Alpha  occ. eigenvalues --   -0.86123  -0.82395  -0.80187  -0.78823  -0.77426
 Alpha  occ. eigenvalues --   -0.72003  -0.71130  -0.70432  -0.65697  -0.64971
 Alpha  occ. eigenvalues --   -0.64724  -0.62178  -0.61411  -0.59877  -0.58120
 Alpha  occ. eigenvalues --   -0.55794  -0.55227  -0.53205  -0.53055  -0.52926
 Alpha  occ. eigenvalues --   -0.52817  -0.50454  -0.48766  -0.48758  -0.48472
 Alpha  occ. eigenvalues --   -0.47227  -0.46354  -0.46265  -0.44767  -0.44338
 Alpha  occ. eigenvalues --   -0.37306  -0.36325
 Alpha virt. eigenvalues --    0.05100   0.11326   0.16582   0.19378   0.22684
 Alpha virt. eigenvalues --    0.23748   0.25434   0.26137   0.27303   0.28142
 Alpha virt. eigenvalues --    0.29178   0.29732   0.31236   0.31389   0.32435

 Mulliken charges:
               1
     1  C   -0.170679
     2  C   -0.218734
     3  C   -0.170820
     4  C    0.158853
     5  C   -0.173907
     6  C   -0.223228
     7  H    0.225473
     8  H    0.223254
     9  H    0.275448
    10  H    0.278296
    11  H    0.227735
    12  N    0.488258
    13  O   -0.460475
    14  O   -0.460674
    15  C   -0.298157
    16  C   -0.307336
    17  C   -0.476819
    18  H    0.153804
    19  H    0.147714
    20  H    0.160007
    21  H    0.141769
    22  H    0.152990
    23  H    0.160421
    24  H    0.163445
    25  C   -0.298730
    26  C   -0.300024
    27  C   -0.476070
    28  H    0.153395
    29  H    0.146581
    30  H    0.153558
    31  H    0.151022
    32  H    0.155007
    33  H    0.157223
    34  H    0.161399
 Sum of Mulliken charges =  -0.00000

 Dipole moment (field-independent basis, Debye):
    X=              1.9137    Y=              4.5389    Z=              1.6435  Tot=              5.1927
 Quadrupole moment (field-independent basis, Debye-Ang):
   XX=           -100.5834   YY=            -93.8569   ZZ=            -97.2546
   XY=            -17.1061   XZ=             -4.3091   YZ=             -1.5069

 Normal termination of Gaussian 16 at Thu May  6 19:09:25 2021.
