 Gaussian 16, Revision A.03,
 Gaussian 16:  EM64L-G16RevA.03 25-Dec-2016

 -------------
 #p 6-31g* mp2
 -------------

 ------------------------------------------------------
 Input file generated by CHIRIPA (05-May-2021 14:57:25)
 ------------------------------------------------------
 Symbolic Z-matrix:
 Charge =  0 Multiplicity = 1

                         Standard orientation:
 ---------------------------------------------------------------------
 Center     Atomic      Atomic             Coordinates (Angstroms)
 Number     Number       Type             X           Y           Z
 ---------------------------------------------------------------------
      1          6           0       -4.170482    2.367071   -0.447609
      2          6           0       -2.792220    2.129379   -0.468076
      3          6           0       -2.289980    0.844081   -0.243776
      4          6           0       -3.198630   -0.184864   -0.001045
      5          6           0       -4.577224    0.020195    0.025747
      6          6           0       -5.057022    1.313577   -0.201198
      7          1           0       -4.551917    3.368662   -0.622878
      8          1           0       -2.101375    2.945624   -0.659186
      9          1           0       -1.227740    0.632044   -0.253973
     10          1           0       -5.241171   -0.813629    0.218959
     11          1           0       -6.127897    1.495235   -0.184711
     12          7           0       -2.678810   -1.549832    0.237811
     13          8           0       -3.500204   -2.439321    0.449374
     14          8           0       -1.459825   -1.704358    0.208941
     15          6           0        2.473331   -2.392485   -0.377353
     16          6           0        3.329631   -1.774052   -1.294311
     17          6           0        3.785234   -0.470969   -1.073069
     18          6           0        3.362704    0.187321    0.080799
     19          6           0        2.510113   -0.401869    1.013126
     20          6           0        2.067022   -1.705631    0.771414
     21          1           0        2.124268   -3.405015   -0.557170
     22          1           0        3.646814   -2.305064   -2.187321
     23          1           0        4.448647    0.031598   -1.766414
     24          1           0        2.211191    0.152847    1.894236
     25          1           0        1.402060   -2.183420    1.485269
     26          7           0        3.838408    1.567196    0.325854
     27          8           0        3.451584    2.125726    1.350085
     28          8           0        4.589080    2.064084   -0.510944
 ---------------------------------------------------------------------

 SCF Done:  E(RHF) =  -868.340174095     A.U. after   16 cycles
 E2 =    -0.2598871789D+01 EUMP2 =    -0.87093904588360D+03

 The electronic state is 1-A.
 Alpha  occ. eigenvalues --  -20.61366 -20.61320 -20.60522 -20.60515 -15.86381
 Alpha  occ. eigenvalues --  -15.85562 -11.31485 -11.30677 -11.28030 -11.27997
 Alpha  occ. eigenvalues --  -11.27706 -11.27202 -11.27132 -11.26989 -11.26937
 Alpha  occ. eigenvalues --  -11.26742 -11.26167 -11.25972  -1.60419  -1.59606
 Alpha  occ. eigenvalues --   -1.39980  -1.39165  -1.19631  -1.18784  -1.09075
 Alpha  occ. eigenvalues --   -1.08199  -1.04989  -1.04130  -0.95955  -0.95091
 Alpha  occ. eigenvalues --   -0.86400  -0.85522  -0.82794  -0.81928  -0.77871
 Alpha  occ. eigenvalues --   -0.77031  -0.72625  -0.71780  -0.71727  -0.70934
 Alpha  occ. eigenvalues --   -0.70731  -0.69838  -0.65286  -0.64981  -0.64411
 Alpha  occ. eigenvalues --   -0.64076  -0.62335  -0.61476  -0.55497  -0.54570
 Alpha  occ. eigenvalues --   -0.53340  -0.53072  -0.52481  -0.52185  -0.49378
 Alpha  occ. eigenvalues --   -0.49348  -0.48555  -0.48511  -0.45444  -0.44627
 Alpha  occ. eigenvalues --   -0.37598  -0.36700  -0.36583  -0.35717
 Alpha virt. eigenvalues --    0.04624   0.05461   0.11073   0.11934   0.16169
 Alpha virt. eigenvalues --    0.17068   0.21245   0.22202   0.27165   0.27851
 Alpha virt. eigenvalues --    0.28329   0.29014   0.30843   0.31822   0.32247

 Mulliken charges:
               1
     1  C   -0.170065
     2  C   -0.218677
     3  C   -0.171822
     4  C    0.157131
     5  C   -0.171038
     6  C   -0.218650
     7  H    0.227710
     8  H    0.228339
     9  H    0.276218
    10  H    0.275214
    11  H    0.224337
    12  N    0.490922
    13  O   -0.459229
    14  O   -0.470484
    15  C   -0.169124
    16  C   -0.219419
    17  C   -0.174102
    18  C    0.156110
    19  C   -0.180014
    20  C   -0.206387
    21  H    0.230341
    22  H    0.221494
    23  H    0.272290
    24  H    0.272195
    25  H    0.235466
    26  N    0.487645
    27  O   -0.463885
    28  O   -0.462515
 Sum of Mulliken charges =  -0.00000

 Dipole moment (field-independent basis, Debye):
    X=             -3.8067    Y=             -0.2024    Z=             -1.6861  Tot=              4.1684
 Quadrupole moment (field-independent basis, Debye-Ang):
   XX=            -99.8780   YY=           -108.4368   ZZ=           -102.4239
   XY=            -31.1467   XZ=             -3.3312   YZ=             -0.7110

 Normal termination of Gaussian 16 at Thu May  6 14:45:19 2021.
