 Gaussian 16, Revision A.03,
 Gaussian 16:  EM64L-G16RevA.03 25-Dec-2016

 -------------
 #p 6-31g* mp2
 -------------

 ------------------------------------------------------
 Input file generated by CHIRIPA (05-May-2021 14:55:22)
 ------------------------------------------------------
 Symbolic Z-matrix:
 Charge =  0 Multiplicity = 1

                         Standard orientation:
 ---------------------------------------------------------------------
 Center     Atomic      Atomic             Coordinates (Angstroms)
 Number     Number       Type             X           Y           Z
 ---------------------------------------------------------------------
      1          6           0       -2.161609    2.850804    0.229682
      2          6           0       -2.084362    2.021766    1.353626
      3          6           0       -2.369275    0.656973    1.250129
      4          6           0       -2.729860    0.152399    0.001661
      5          6           0       -2.815664    0.952656   -1.136547
      6          6           0       -2.526371    2.314548   -1.009632
      7          1           0       -1.938581    3.909881    0.319176
      8          1           0       -1.801345    2.435481    2.317362
      9          1           0       -2.317272   -0.007547    2.104019
     10          1           0       -3.100553    0.511289   -2.083886
     11          1           0       -2.587180    2.956010   -1.884203
     12          7           0       -3.033803   -1.290911   -0.120302
     13          8           0       -3.349146   -1.710994   -1.231484
     14          8           0       -2.950936   -1.974764    0.897595
     15          6           0        3.789187    0.152227   -0.200122
     16          6           0        5.289743    0.113086    0.091050
     17          6           0        5.994205    1.424244   -0.258796
     18          1           0        3.634311    0.380963   -1.263437
     19          1           0        3.334204    0.976502    0.366406
     20          1           0        5.741529   -0.711738   -0.474788
     21          1           0        5.441067   -0.115773    1.153754
     22          1           0        5.570594    2.254368    0.315703
     23          1           0        5.872764    1.655017   -1.322092
     24          1           0        7.065969    1.374213   -0.042750
     25          6           0        3.071015   -1.151328    0.144412
     26          6           0        1.570458   -1.112188   -0.146760
     27          6           0        0.865997   -2.423346    0.203087
     28          1           0        3.525999   -1.975603   -0.422117
     29          1           0        3.225891   -1.380064    1.207727
     30          1           0        1.419134   -0.883329   -1.209464
     31          1           0        1.118672   -0.287364    0.419078
     32          1           0        0.987439   -2.654119    1.266381
     33          1           0        1.289607   -3.253470   -0.371414
     34          1           0       -0.205768   -2.373314   -0.012960
 ---------------------------------------------------------------------

 SCF Done:  E(RHF) =  -669.535866827     A.U. after   15 cycles
 E2 =    -0.2091919400D+01 EUMP2 =    -0.67162778622685D+03

 The electronic state is 1-A.
 Alpha  occ. eigenvalues --  -20.60880 -20.60873 -15.85907 -11.31251 -11.27824
 Alpha  occ. eigenvalues --  -11.27811 -11.27555 -11.26832 -11.26814 -11.21615
 Alpha  occ. eigenvalues --  -11.21369 -11.21333 -11.21212 -11.21149 -11.20468
 Alpha  occ. eigenvalues --   -1.59952  -1.39503  -1.19420  -1.08823  -1.08321
 Alpha  occ. eigenvalues --   -1.04819  -1.03366  -0.95796  -0.95661  -0.86802
 Alpha  occ. eigenvalues --   -0.86218  -0.82494  -0.79435  -0.78134  -0.77546
 Alpha  occ. eigenvalues --   -0.72131  -0.71299  -0.70528  -0.65076  -0.64959
 Alpha  occ. eigenvalues --   -0.64822  -0.62167  -0.60767  -0.59173  -0.57409
 Alpha  occ. eigenvalues --   -0.55323  -0.55087  -0.53145  -0.52911  -0.52448
 Alpha  occ. eigenvalues --   -0.52222  -0.49740  -0.48894  -0.48891  -0.47748
 Alpha  occ. eigenvalues --   -0.46489  -0.45667  -0.45605  -0.44913  -0.43576
 Alpha  occ. eigenvalues --   -0.37392  -0.36412
 Alpha virt. eigenvalues --    0.04968   0.11223   0.16453   0.21352   0.22916
 Alpha virt. eigenvalues --    0.24337   0.26704   0.27282   0.27510   0.27923
 Alpha virt. eigenvalues --    0.28416   0.30852   0.31531   0.31878   0.32149

 Mulliken charges:
               1
     1  C   -0.170294
     2  C   -0.219035
     3  C   -0.170839
     4  C    0.158060
     5  C   -0.170467
     6  C   -0.218310
     7  H    0.225905
     8  H    0.223643
     9  H    0.276142
    10  H    0.275770
    11  H    0.223719
    12  N    0.486842
    13  O   -0.459016
    14  O   -0.457973
    15  C   -0.297311
    16  C   -0.299476
    17  C   -0.475384
    18  H    0.148934
    19  H    0.146290
    20  H    0.152867
    21  H    0.151750
    22  H    0.153316
    23  H    0.154810
    24  H    0.160396
    25  C   -0.297845
    26  C   -0.301696
    27  C   -0.478088
    28  H    0.150553
    29  H    0.148903
    30  H    0.150605
    31  H    0.147482
    32  H    0.154478
    33  H    0.155451
    34  H    0.169818
 Sum of Mulliken charges =  -0.00000

 Dipole moment (field-independent basis, Debye):
    X=              0.9442    Y=              5.0427    Z=              0.4194  Tot=              5.1474
 Quadrupole moment (field-independent basis, Debye-Ang):
   XX=           -101.8918   YY=            -94.1854   ZZ=            -89.1301
   XY=            -14.6866   XZ=             -0.1915   YZ=             -0.0906

 Normal termination of Gaussian 16 at Thu May  6 03:03:04 2021.
