 Gaussian 16, Revision A.03,
 Gaussian 16:  EM64L-G16RevA.03 25-Dec-2016

 -------------
 #p 6-31g* mp2
 -------------

 ------------------------------------------------------
 Input file generated by CHIRIPA (05-May-2021 14:57:27)
 ------------------------------------------------------
 Symbolic Z-matrix:
 Charge =  0 Multiplicity = 1

                         Standard orientation:
 ---------------------------------------------------------------------
 Center     Atomic      Atomic             Coordinates (Angstroms)
 Number     Number       Type             X           Y           Z
 ---------------------------------------------------------------------
      1          6           0        1.177995   -0.709743    0.928351
      2          6           0        1.976127   -1.651285    0.270322
      3          6           0        3.264862   -1.316038   -0.155495
      4          6           0        3.725718   -0.024336    0.094318
      5          6           0        2.954607    0.935934    0.747433
      6          6           0        1.668916    0.578591    1.164391
      7          1           0        0.178057   -0.978753    1.255695
      8          1           0        1.597485   -2.652571    0.085657
      9          1           0        3.904004   -2.025372   -0.667122
     10          1           0        3.359599    1.926167    0.917248
     11          1           0        1.051304    1.311857    1.675194
     12          7           0        5.088433    0.342271   -0.351786
     13          8           0        5.471194    1.486930   -0.119653
     14          8           0        5.747963   -0.521983   -0.925127
     15          6           0       -3.515547    2.606225   -0.256798
     16          6           0       -4.700318    1.908022   -0.001162
     17          6           0       -4.704107    0.510927    0.050415
     18          6           0       -3.499732   -0.159009   -0.159242
     19          6           0       -2.303004    0.508201   -0.416072
     20          6           0       -2.322774    1.905322   -0.463073
     21          1           0       -3.521754    3.691533   -0.295086
     22          1           0       -5.628119    2.449727    0.159416
     23          1           0       -5.606925   -0.054683    0.246435
     24          1           0       -1.393705   -0.059465   -0.572110
     25          1           0       -1.401156    2.444928   -0.661799
     26          7           0       -3.491273   -1.638065   -0.107061
     27          8           0       -2.417064   -2.204919   -0.295175
     28          8           0       -4.559013   -2.202487    0.120963
 ---------------------------------------------------------------------

 SCF Done:  E(RHF) =  -868.339154114     A.U. after   16 cycles
 E2 =    -0.2600367334D+01 EUMP2 =    -0.87093952144763D+03

 The electronic state is 1-A.
 Alpha  occ. eigenvalues --  -20.61767 -20.61707 -20.60874 -20.60861 -15.86773
 Alpha  occ. eigenvalues --  -15.85922 -11.32009 -11.31307 -11.28549 -11.28527
 Alpha  occ. eigenvalues --  -11.28245 -11.27910 -11.27793 -11.27544 -11.27507
 Alpha  occ. eigenvalues --  -11.27493 -11.26950 -11.26736  -1.60801  -1.59945
 Alpha  occ. eigenvalues --   -1.40363  -1.39498  -1.20165  -1.19465  -1.09577
 Alpha  occ. eigenvalues --   -1.08847  -1.05544  -1.04857  -0.96437  -0.95677
 Alpha  occ. eigenvalues --   -0.86949  -0.86238  -0.83269  -0.82506  -0.78349
 Alpha  occ. eigenvalues --   -0.77560  -0.72999  -0.72136  -0.72120  -0.71297
 Alpha  occ. eigenvalues --   -0.71269  -0.70481  -0.65812  -0.65530  -0.65097
 Alpha  occ. eigenvalues --   -0.64828  -0.62889  -0.62185  -0.56047  -0.55288
 Alpha  occ. eigenvalues --   -0.53886  -0.53631  -0.53157  -0.52916  -0.49762
 Alpha  occ. eigenvalues --   -0.49727  -0.48896  -0.48893  -0.45788  -0.44900
 Alpha  occ. eigenvalues --   -0.38131  -0.37489  -0.37108  -0.36470
 Alpha virt. eigenvalues --    0.04128   0.04918   0.10434   0.11135   0.15675
 Alpha virt. eigenvalues --    0.16291   0.20428   0.21813   0.26382   0.27188
 Alpha virt. eigenvalues --    0.27646   0.28688   0.30000   0.31141   0.32246

 Mulliken charges:
               1
     1  C   -0.182512
     2  C   -0.219492
     3  C   -0.171301
     4  C    0.158985
     5  C   -0.171960
     6  C   -0.224624
     7  H    0.237780
     8  H    0.234897
     9  H    0.277196
    10  H    0.274064
    11  H    0.220520
    12  N    0.488020
    13  O   -0.461506
    14  O   -0.458913
    15  C   -0.170045
    16  C   -0.218215
    17  C   -0.170004
    18  C    0.158312
    19  C   -0.180628
    20  C   -0.222613
    21  H    0.228576
    22  H    0.226418
    23  H    0.277461
    24  H    0.278054
    25  H    0.226070
    26  N    0.488818
    27  O   -0.468572
    28  O   -0.454786
 Sum of Mulliken charges =  -0.00000

 Dipole moment (field-independent basis, Debye):
    X=             -5.0207    Y=              3.8232    Z=              1.3554  Tot=              6.4546
 Quadrupole moment (field-independent basis, Debye-Ang):
   XX=           -135.0446   YY=           -102.3384   ZZ=           -105.1715
   XY=            -24.4325   XZ=              4.7022   YZ=              0.8603

 Normal termination of Gaussian 16 at Thu May  6 19:49:32 2021.
