 Gaussian 16, Revision A.03,
 Gaussian 16:  EM64L-G16RevA.03 25-Dec-2016

 -------------
 #p 6-31g* mp2
 -------------

 ------------------------------------------------------
 Input file generated by CHIRIPA (05-May-2021 14:55:19)
 ------------------------------------------------------
 Symbolic Z-matrix:
 Charge =  0 Multiplicity = 1

                         Standard orientation:
 ---------------------------------------------------------------------
 Center     Atomic      Atomic             Coordinates (Angstroms)
 Number     Number       Type             X           Y           Z
 ---------------------------------------------------------------------
      1          6           0       -2.077700    2.473835    0.898732
      2          6           0       -3.028525    2.506322   -0.126645
      3          6           0       -3.555192    1.319281   -0.644432
      4          6           0       -3.106567    0.112021   -0.111001
      5          6           0       -2.160426    0.046831    0.910693
      6          6           0       -1.647444    1.246357    1.413221
      7          1           0       -1.673887    3.400806    1.295034
      8          1           0       -3.364512    3.458144   -0.528131
      9          1           0       -4.292339    1.315470   -1.438169
     10          1           0       -1.844940   -0.917300    1.290611
     11          1           0       -0.909131    1.218091    2.209550
     12          7           0       -3.656882   -1.151254   -0.651082
     13          8           0       -3.245227   -2.201928   -0.163987
     14          8           0       -4.489455   -1.066815   -1.551266
     15          6           0        4.198856    0.225530   -0.226932
     16          6           0        5.692599    0.048396   -0.501408
     17          6           0        6.355834    1.328278   -1.011131
     18          1           0        3.700064    0.556918   -1.147981
     19          1           0        4.061278    1.029279    0.509584
     20          1           0        5.827398   -0.755717   -1.236151
     21          1           0        6.187862   -0.282794    0.420354
     22          1           0        6.250834    2.134782   -0.278241
     23          1           0        5.888321    1.659172   -1.944159
     24          1           0        7.423364    1.179129   -1.200850
     25          6           0        3.521767   -1.045304    0.283224
     26          6           0        2.028022   -0.868171    0.557700
     27          6           0        1.364788   -2.148053    1.067423
     28          1           0        3.659345   -1.849055   -0.453291
     29          1           0        4.020558   -1.376693    1.204275
     30          1           0        1.532761   -0.536981   -0.364062
     31          1           0        1.893226   -0.064058    1.292444
     32          1           0        1.832301   -2.478947    2.000450
     33          1           0        1.469789   -2.954557    0.334534
     34          1           0        0.297258   -1.998904    1.257142
 ---------------------------------------------------------------------

 SCF Done:  E(RHF) =  -669.535410065     A.U. after   15 cycles
 E2 =    -0.2091558380D+01 EUMP2 =    -0.67162696844478D+03

 The electronic state is 1-A.
 Alpha  occ. eigenvalues --  -20.60763 -20.60758 -15.85815 -11.31184 -11.27756
 Alpha  occ. eigenvalues --  -11.27748 -11.27496 -11.26777 -11.26766 -11.21981
 Alpha  occ. eigenvalues --  -11.21833 -11.21693 -11.21634 -11.21392 -11.21297
 Alpha  occ. eigenvalues --   -1.59838  -1.39391  -1.19359  -1.08753  -1.08723
 Alpha  occ. eigenvalues --   -1.04766  -1.03822  -0.96266  -0.95587  -0.87279
 Alpha  occ. eigenvalues --   -0.86160  -0.82419  -0.79882  -0.78535  -0.77469
 Alpha  occ. eigenvalues --   -0.72035  -0.71161  -0.70480  -0.65351  -0.65012
 Alpha  occ. eigenvalues --   -0.64774  -0.62174  -0.61209  -0.59624  -0.57882
 Alpha  occ. eigenvalues --   -0.55532  -0.55266  -0.53150  -0.53043  -0.52812
 Alpha  occ. eigenvalues --   -0.52573  -0.50186  -0.48793  -0.48790  -0.48198
 Alpha  occ. eigenvalues --   -0.46914  -0.46074  -0.45998  -0.44796  -0.44078
 Alpha  occ. eigenvalues --   -0.37337  -0.36352
 Alpha virt. eigenvalues --    0.05039   0.11251   0.16506   0.20115   0.22742
 Alpha virt. eigenvalues --    0.23862   0.25968   0.26136   0.26917   0.27992
 Alpha virt. eigenvalues --    0.28844   0.29610   0.31302   0.31532   0.32028

 Mulliken charges:
               1
     1  C   -0.170955
     2  C   -0.218523
     3  C   -0.170795
     4  C    0.158666
     5  C   -0.175252
     6  C   -0.219152
     7  H    0.225645
     8  H    0.223454
     9  H    0.275583
    10  H    0.281569
    11  H    0.224315
    12  N    0.487489
    13  O   -0.460429
    14  O   -0.460458
    15  C   -0.298089
    16  C   -0.299913
    17  C   -0.475787
    18  H    0.150489
    19  H    0.146832
    20  H    0.153484
    21  H    0.152147
    22  H    0.154098
    23  H    0.155496
    24  H    0.161230
    25  C   -0.298846
    26  C   -0.299961
    27  C   -0.477987
    28  H    0.152622
    29  H    0.149807
    30  H    0.155800
    31  H    0.143159
    32  H    0.155304
    33  H    0.163193
    34  H    0.155766
 Sum of Mulliken charges =  -0.00000

 Dipole moment (field-independent basis, Debye):
    X=              2.0059    Y=              4.4031    Z=              1.8308  Tot=              5.1733
 Quadrupole moment (field-independent basis, Debye-Ang):
   XX=           -105.9290   YY=            -93.2556   ZZ=            -92.9447
   XY=            -16.1429   XZ=             -3.7552   YZ=             -1.5135

 Normal termination of Gaussian 16 at Thu May  6 19:03:08 2021.
