 Gaussian 16, Revision A.03,
 Gaussian 16:  EM64L-G16RevA.03 25-Dec-2016

 -------------
 #p 6-31g* mp2
 -------------

 ------------------------------------------------------
 Input file generated by CHIRIPA (05-May-2021 14:53:14)
 ------------------------------------------------------
 Symbolic Z-matrix:
 Charge =  0 Multiplicity = 1

                         Standard orientation:
 ---------------------------------------------------------------------
 Center     Atomic      Atomic             Coordinates (Angstroms)
 Number     Number       Type             X           Y           Z
 ---------------------------------------------------------------------
      1          6           0       -4.233166   -0.011517    0.135097
      2          6           0       -4.511827   -1.116737   -0.884130
      3          6           0       -5.589444   -2.094991   -0.415562
      4          1           0       -3.927612   -0.467616    1.086704
      5          1           0       -5.164511    0.535977    0.335700
      6          1           0       -3.579936   -1.661099   -1.083791
      7          1           0       -4.816568   -0.657949   -1.833478
      8          1           0       -6.533347   -1.570669   -0.234639
      9          1           0       -5.289689   -2.579519    0.519308
     10          1           0       -5.772755   -2.876761   -1.159264
     11          6           0       -3.158164    0.974331   -0.318998
     12          6           0       -2.879503    2.079551    0.700229
     13          6           0       -1.801886    3.057805    0.231661
     14          1           0       -2.226819    0.426836   -0.519601
     15          1           0       -3.463717    1.430429   -1.270605
     16          1           0       -2.574762    1.620762    1.649577
     17          1           0       -3.811394    2.623913    0.899890
     18          1           0       -2.101641    3.542332   -0.703209
     19          1           0       -0.857983    2.533482    0.050738
     20          1           0       -1.618575    3.839575    0.975363
     21          6           0        0.720995   -1.029937    1.187995
     22          6           0        0.743064   -0.736036   -0.179359
     23          6           0        1.937611   -0.372639   -0.808287
     24          6           0        3.096662   -0.312888   -0.036070
     25          6           0        3.106946   -0.599870    1.328051
     26          6           0        1.900926   -0.961038    1.936017
     27          1           0       -0.211414   -1.311366    1.668419
     28          1           0       -0.171755   -0.788721   -0.762774
     29          1           0        1.983171   -0.139959   -1.865265
     30          1           0        4.035005   -0.538683    1.883370
     31          1           0        1.886772   -1.188745    2.998088
     32          7           0        4.367348    0.070643   -0.690792
     33          8           0        5.374863    0.115965    0.011702
     34          8           0        4.331737    0.318671   -1.894058
 ---------------------------------------------------------------------

 SCF Done:  E(RHF) =  -669.535556374     A.U. after   15 cycles
 E2 =    -0.2091894091D+01 EUMP2 =    -0.67162745046493D+03

 The electronic state is 1-A.
 Alpha  occ. eigenvalues --  -20.60788 -20.60782 -15.85842 -11.31230 -11.27810
 Alpha  occ. eigenvalues --  -11.27805 -11.27565 -11.26823 -11.26813 -11.22448
 Alpha  occ. eigenvalues --  -11.22347 -11.22293 -11.22235 -11.21773 -11.21575
 Alpha  occ. eigenvalues --   -1.59863  -1.39415  -1.19411  -1.09270  -1.08800
 Alpha  occ. eigenvalues --   -1.04818  -1.04260  -0.96699  -0.95630  -0.87710
 Alpha  occ. eigenvalues --   -0.86217  -0.82462  -0.80328  -0.79106  -0.77502
 Alpha  occ. eigenvalues --   -0.72060  -0.71186  -0.70517  -0.65978  -0.65061
 Alpha  occ. eigenvalues --   -0.64786  -0.62177  -0.61645  -0.60066  -0.58313
 Alpha  occ. eigenvalues --   -0.55993  -0.55319  -0.53354  -0.53159  -0.53132
 Alpha  occ. eigenvalues --   -0.52886  -0.50637  -0.48827  -0.48813  -0.48632
 Alpha  occ. eigenvalues --   -0.47376  -0.46607  -0.46564  -0.44816  -0.44547
 Alpha  occ. eigenvalues --   -0.37385  -0.36408
 Alpha virt. eigenvalues --    0.05031   0.11111   0.16484   0.18932   0.22977
 Alpha virt. eigenvalues --    0.23642   0.24537   0.25786   0.27081   0.28377
 Alpha virt. eigenvalues --    0.29903   0.30762   0.30809   0.31261   0.31524

 Mulliken charges:
               1
     1  C   -0.298182
     2  C   -0.299314
     3  C   -0.475840
     4  H    0.145404
     5  H    0.153935
     6  H    0.145405
     7  H    0.155245
     8  H    0.157757
     9  H    0.154281
    10  H    0.162693
    11  C   -0.302490
    12  C   -0.298825
    13  C   -0.478142
    14  H    0.141486
    15  H    0.153974
    16  H    0.148610
    17  H    0.154968
    18  H    0.156800
    19  H    0.157209
    20  H    0.162945
    21  C   -0.172137
    22  C   -0.222157
    23  C   -0.171912
    24  C    0.158775
    25  C   -0.170594
    26  C   -0.218515
    27  H    0.225801
    28  H    0.229182
    29  H    0.276436
    30  H    0.275908
    31  H    0.223678
    32  N    0.488043
    33  O   -0.460300
    34  O   -0.460124
 Sum of Mulliken charges =  -0.00000

 Dipole moment (field-independent basis, Debye):
    X=             -4.5852    Y=             -1.2817    Z=              2.2999  Tot=              5.2874
 Quadrupole moment (field-independent basis, Debye-Ang):
   XX=           -121.0985   YY=            -94.7207   ZZ=            -91.0642
   XY=             -4.2160   XZ=             10.3719   YZ=             -1.2815

 Normal termination of Gaussian 16 at Thu May  6 17:06:02 2021.
