 Gaussian 16, Revision A.03,
 Gaussian 16:  EM64L-G16RevA.03 25-Dec-2016

 -------------
 #p 6-31g* mp2
 -------------

 ------------------------------------------------------
 Input file generated by CHIRIPA (05-May-2021 14:51:08)
 ------------------------------------------------------
 Symbolic Z-matrix:
 Charge =  0 Multiplicity = 1

                         Standard orientation:
 ---------------------------------------------------------------------
 Center     Atomic      Atomic             Coordinates (Angstroms)
 Number     Number       Type             X           Y           Z
 ---------------------------------------------------------------------
      1          6           0        2.633522   -0.513100   -0.090446
      2          6           0        1.979265   -1.640475    0.708905
      3          6           0        0.492507   -1.804235    0.391846
      4          1           0        2.106972    0.428465    0.117270
      5          1           0        2.506269   -0.712232   -1.163548
      6          1           0        2.108920   -1.439982    1.780170
      7          1           0        2.507554   -2.579431    0.499409
      8          1           0        0.347455   -2.028575   -0.669866
      9          1           0       -0.053444   -0.882652    0.618171
     10          1           0        0.044794   -2.615525    0.974274
     11          6           0        4.119828   -0.337047    0.215537
     12          6           0        4.774085    0.790327   -0.583814
     13          6           0        6.260843    0.954087   -0.266755
     14          1           0        4.247081   -0.137916    1.288639
     15          1           0        4.646378   -1.278612    0.007821
     16          1           0        4.245796    1.729283   -0.374318
     17          1           0        4.644430    0.589834   -1.655079
     18          1           0        6.806794    0.032504   -0.493080
     19          1           0        6.405895    1.178427    0.794957
     20          1           0        6.708556    1.765377   -0.849183
     21          6           0       -2.928862    1.000355    0.165375
     22          6           0       -3.526680    2.380294   -0.110967
     23          6           0       -2.619117    3.520933    0.350622
     24          1           0       -2.732313    0.901792    1.241757
     25          1           0       -1.955498    0.922538   -0.338512
     26          1           0       -4.499259    2.454983    0.392151
     27          1           0       -3.722007    2.475511   -1.186792
     28          1           0       -1.651994    3.474618   -0.160387
     29          1           0       -2.433663    3.453973    1.427526
     30          1           0       -3.065834    4.498366    0.143428
     31          6           0       -3.824488   -0.150207   -0.290466
     32          6           0       -3.226670   -1.530147   -0.014124
     33          6           0       -4.134233   -2.670786   -0.475713
     34          1           0       -4.797852   -0.072389    0.213421
     35          1           0       -4.021037   -0.051645   -1.366848
     36          1           0       -3.031343   -1.625363    1.061700
     37          1           0       -2.254091   -1.604834   -0.517242
     38          1           0       -4.319688   -2.603824   -1.552617
     39          1           0       -5.101357   -2.624470    0.035295
     40          1           0       -3.687516   -3.648218   -0.268518
 ---------------------------------------------------------------------

 SCF Done:  E(RHF) =  -470.732688819     A.U. after   11 cycles
 E2 =    -0.1583338125D+01 EUMP2 =    -0.47231602694407D+03

 The electronic state is 1-A.
 Alpha  occ. eigenvalues --  -11.21601 -11.21594 -11.21564 -11.21418 -11.21401
 Alpha  occ. eigenvalues --  -11.21372 -11.21342 -11.21291 -11.21078 -11.21070
 Alpha  occ. eigenvalues --  -11.21016 -11.20979  -1.08431  -1.08373  -1.03539
 Alpha  occ. eigenvalues --   -1.03452  -0.95977  -0.95931  -0.87034  -0.86917
 Alpha  occ. eigenvalues --   -0.79723  -0.79432  -0.78304  -0.78101  -0.65054
 Alpha  occ. eigenvalues --   -0.65013  -0.60930  -0.60861  -0.59394  -0.59252
 Alpha  occ. eigenvalues --   -0.57602  -0.57524  -0.55288  -0.55197  -0.52745
 Alpha  occ. eigenvalues --   -0.52607  -0.52416  -0.52320  -0.49947  -0.49847
 Alpha  occ. eigenvalues --   -0.48054  -0.47764  -0.46674  -0.46522  -0.45958
 Alpha  occ. eigenvalues --   -0.45733  -0.45655  -0.45358  -0.43779  -0.43696
 Alpha virt. eigenvalues --    0.21987   0.23066   0.23942   0.24318   0.25666
 Alpha virt. eigenvalues --    0.26475   0.26826   0.27474   0.27837   0.29551
 Alpha virt. eigenvalues --    0.30343   0.31025   0.31724   0.31805   0.32361

 Mulliken charges:
               1
     1  C   -0.298371
     2  C   -0.300943
     3  C   -0.479025
     4  H    0.149498
     5  H    0.149050
     6  H    0.151785
     7  H    0.151555
     8  H    0.153206
     9  H    0.161223
    10  H    0.161183
    11  C   -0.298190
    12  C   -0.299643
    13  C   -0.475699
    14  H    0.149604
    15  H    0.149657
    16  H    0.151955
    17  H    0.151784
    18  H    0.155163
    19  H    0.155227
    20  H    0.160238
    21  C   -0.300767
    22  C   -0.299444
    23  C   -0.475756
    24  H    0.149209
    25  H    0.151280
    26  H    0.152059
    27  H    0.152029
    28  H    0.154937
    29  H    0.154927
    30  H    0.160340
    31  C   -0.297739
    32  C   -0.306168
    33  C   -0.475408
    34  H    0.148922
    35  H    0.149032
    36  H    0.151100
    37  H    0.163537
    38  H    0.154438
    39  H    0.154426
    40  H    0.159789
 Sum of Mulliken charges =  -0.00000

 Dipole moment (field-independent basis, Debye):
    X=              0.0134    Y=             -0.0035    Z=              0.0012  Tot=              0.0139
 Quadrupole moment (field-independent basis, Debye-Ang):
   XX=            -86.2688   YY=            -85.3415   ZZ=            -83.4685
   XY=             -0.9483   XZ=             -0.8672   YZ=              0.1903

 Normal termination of Gaussian 16 at Thu May  6 08:27:15 2021.
