 Gaussian 16, Revision A.03,
 Gaussian 16:  EM64L-G16RevA.03 25-Dec-2016

 -------------
 #p 6-31g* mp2
 -------------

 ------------------------------------------------------
 Input file generated by CHIRIPA (05-May-2021 14:57:27)
 ------------------------------------------------------
 Symbolic Z-matrix:
 Charge =  0 Multiplicity = 1

                         Standard orientation:
 ---------------------------------------------------------------------
 Center     Atomic      Atomic             Coordinates (Angstroms)
 Number     Number       Type             X           Y           Z
 ---------------------------------------------------------------------
      1          6           0       -6.008748    0.893397   -0.202323
      2          6           0       -5.675117   -0.300111   -0.850976
      3          6           0       -4.400748   -0.855907   -0.703926
      4          6           0       -3.480445   -0.188626    0.102962
      5          6           0       -3.782719    1.001874    0.762228
      6          6           0       -5.063152    1.539441    0.600792
      7          1           0       -7.001064    1.318073   -0.322143
      8          1           0       -6.407462   -0.804021   -1.475308
      9          1           0       -4.115875   -1.778665   -1.194622
     10          1           0       -3.031418    1.481186    1.378040
     11          1           0       -5.319467    2.466463    1.105746
     12          7           0       -2.128119   -0.767374    0.266252
     13          8           0       -1.335283   -0.160071    0.982655
     14          8           0       -1.886607   -1.817339   -0.325255
     15          6           0        4.002610    2.583294   -0.351717
     16          6           0        2.720821    2.024354   -0.385281
     17          6           0        2.543114    0.645961   -0.233629
     18          6           0        3.674392   -0.147487   -0.049400
     19          6           0        4.964381    0.379551   -0.011359
     20          6           0        5.118332    1.760558   -0.165192
     21          1           0        4.131430    3.655078   -0.470372
     22          1           0        1.852520    2.660873   -0.529990
     23          1           0        1.562190    0.186912   -0.255553
     24          1           0        5.810792   -0.280558    0.134464
     25          1           0        6.114980    2.191877   -0.138701
     26          7           0        3.498835   -1.608115    0.112302
     27          8           0        4.511666   -2.285535    0.273282
     28          8           0        2.351729   -2.047878    0.075003
 ---------------------------------------------------------------------

 SCF Done:  E(RHF) =  -868.337626985     A.U. after   16 cycles
 E2 =    -0.2599453719D+01 EUMP2 =    -0.87093708070454D+03

 The electronic state is 1-A.
 Alpha  occ. eigenvalues --  -20.60926 -20.60864 -20.59576 -20.59487 -15.85932
 Alpha  occ. eigenvalues --  -15.84586 -11.31331 -11.30101 -11.27925 -11.27873
 Alpha  occ. eigenvalues --  -11.27643 -11.26932 -11.26897 -11.26796 -11.26594
 Alpha  occ. eigenvalues --  -11.26558 -11.25853 -11.25762  -1.59952  -1.58620
 Alpha  occ. eigenvalues --   -1.39508  -1.38158  -1.19503  -1.18327  -1.08890
 Alpha  occ. eigenvalues --   -1.07716  -1.04909  -1.03745  -0.95716  -0.94505
 Alpha  occ. eigenvalues --   -0.86305  -0.85143  -0.82548  -0.81325  -0.77595
 Alpha  occ. eigenvalues --   -0.76320  -0.72130  -0.71287  -0.70796  -0.70607
 Alpha  occ. eigenvalues --   -0.69955  -0.69442  -0.65154  -0.64908  -0.63978
 Alpha  occ. eigenvalues --   -0.63768  -0.62255  -0.61059  -0.55404  -0.54299
 Alpha  occ. eigenvalues --   -0.53239  -0.52999  -0.52092  -0.51841  -0.48895
 Alpha  occ. eigenvalues --   -0.48858  -0.47605  -0.47529  -0.44907  -0.43531
 Alpha  occ. eigenvalues --   -0.37486  -0.36515  -0.36368  -0.35359
 Alpha virt. eigenvalues --    0.04910   0.06196   0.11138   0.12285   0.16392
 Alpha virt. eigenvalues --    0.17622   0.21276   0.22368   0.27190   0.28076
 Alpha virt. eigenvalues --    0.28321   0.29353   0.30844   0.31870   0.32404

 Mulliken charges:
               1
     1  C   -0.170820
     2  C   -0.218519
     3  C   -0.170706
     4  C    0.158031
     5  C   -0.172018
     6  C   -0.218521
     7  H    0.225955
     8  H    0.224453
     9  H    0.277767
    10  H    0.273561
    11  H    0.223009
    12  N    0.487127
    13  O   -0.466461
    14  O   -0.449082
    15  C   -0.171537
    16  C   -0.220861
    17  C   -0.173683
    18  C    0.155823
    19  C   -0.171558
    20  C   -0.219822
    21  H    0.220725
    22  H    0.220039
    23  H    0.294503
    24  H    0.272874
    25  H    0.219194
    26  N    0.486171
    27  O   -0.467989
    28  O   -0.447655
 Sum of Mulliken charges =  -0.00000

 Dipole moment (field-independent basis, Debye):
    X=             -4.6016    Y=              6.9138    Z=             -1.1723  Tot=              8.3874
 Quadrupole moment (field-independent basis, Debye-Ang):
   XX=            -64.0185   YY=           -105.3670   ZZ=           -104.5393
   XY=             13.0217   XZ=              1.0461   YZ=              2.8637

 Normal termination of Gaussian 16 at Thu May  6 11:31:11 2021.
