 Gaussian 16, Revision A.03,
 Gaussian 16:  EM64L-G16RevA.03 25-Dec-2016

 -------------
 #p 6-31g* mp2
 -------------

 ------------------------------------------------------
 Input file generated by CHIRIPA (05-May-2021 14:51:08)
 ------------------------------------------------------
 Symbolic Z-matrix:
 Charge =  0 Multiplicity = 1

                         Standard orientation:
 ---------------------------------------------------------------------
 Center     Atomic      Atomic             Coordinates (Angstroms)
 Number     Number       Type             X           Y           Z
 ---------------------------------------------------------------------
      1          6           0        4.322485    0.476504   -0.015658
      2          6           0        4.076532    1.982998    0.073619
      3          6           0        5.373163    2.791751    0.123223
      4          1           0        4.922439    0.157570    0.847639
      5          1           0        4.923619    0.262552   -0.910229
      6          1           0        3.474871    2.193897    0.967006
      7          1           0        3.476932    2.298350   -0.789891
      8          1           0        5.974708    2.610625   -0.773403
      9          1           0        5.972635    2.505579    0.993476
     10          1           0        5.174046    3.866070    0.186861
     11          6           0        3.035798   -0.345460   -0.066036
     12          6           0        3.281751   -1.851953   -0.155313
     13          6           0        1.985120   -2.660706   -0.204918
     14          1           0        2.434664   -0.131507    0.828535
     15          1           0        2.435844   -0.026525   -0.929333
     16          1           0        3.881351   -2.167305    0.708196
     17          1           0        3.883413   -2.062852   -1.048700
     18          1           0        1.385648   -2.374534   -1.075171
     19          1           0        1.383575   -2.479581    0.691708
     20          1           0        2.184237   -3.735025   -0.268556
     21          6           0       -4.074765    0.441597   -0.371153
     22          6           0       -4.970659    1.344993    0.476923
     23          6           0       -5.755706    2.354165   -0.361568
     24          1           0       -3.376326    1.064526   -0.946555
     25          1           0       -4.694147   -0.092819   -1.104749
     26          1           0       -4.349953    1.876505    1.209614
     27          1           0       -5.666919    0.719832    1.050517
     28          1           0       -6.398681    1.838767   -1.082364
     29          1           0       -5.074234    3.002011   -0.922363
     30          1           0       -6.389542    2.989698    0.264700
     31          6           0       -3.283518   -0.572641    0.452848
     32          6           0       -2.387624   -1.476038   -0.395228
     33          6           0       -1.602576   -2.485211    0.443261
     34          1           0       -2.664136   -0.038226    1.186443
     35          1           0       -3.981957   -1.195570    1.028250
     36          1           0       -1.691365   -0.850876   -0.968824
     37          1           0       -3.008330   -2.007549   -1.127920
     38          1           0       -2.284049   -3.133055    1.004058
     39          1           0       -0.959602   -1.969811    1.164059
     40          1           0       -0.968741   -3.120743   -0.183005
 ---------------------------------------------------------------------

 SCF Done:  E(RHF) =  -470.732103389     A.U. after   11 cycles
 E2 =    -0.1583021730D+01 EUMP2 =    -0.47231512511927D+03

 The electronic state is 1-A.
 Alpha  occ. eigenvalues --  -11.21613 -11.21582 -11.21555 -11.21542 -11.21407
 Alpha  occ. eigenvalues --  -11.21371 -11.21348 -11.21311 -11.21080 -11.21056
 Alpha  occ. eigenvalues --  -11.20955 -11.20916  -1.08428  -1.08387  -1.03550
 Alpha  occ. eigenvalues --   -1.03448  -0.96056  -0.95846  -0.87130  -0.86812
 Alpha  occ. eigenvalues --   -0.79690  -0.79447  -0.78246  -0.78200  -0.65064
 Alpha  occ. eigenvalues --   -0.65018  -0.60977  -0.60842  -0.59337  -0.59329
 Alpha  occ. eigenvalues --   -0.57671  -0.57459  -0.55386  -0.55114  -0.52932
 Alpha  occ. eigenvalues --   -0.52610  -0.52369  -0.52099  -0.50063  -0.49719
 Alpha  occ. eigenvalues --   -0.47891  -0.47822  -0.46716  -0.46457  -0.45790
 Alpha  occ. eigenvalues --   -0.45738  -0.45721  -0.45614  -0.43818  -0.43654
 Alpha virt. eigenvalues --    0.21988   0.23071   0.23581   0.24906   0.25963
 Alpha virt. eigenvalues --    0.26549   0.27098   0.27594   0.27612   0.29392
 Alpha virt. eigenvalues --    0.29612   0.31263   0.31433   0.32079   0.32376

 Mulliken charges:
               1
     1  C   -0.298185
     2  C   -0.299609
     3  C   -0.475696
     4  H    0.149709
     5  H    0.149642
     6  H    0.151721
     7  H    0.151782
     8  H    0.155240
     9  H    0.155227
    10  H    0.160212
    11  C   -0.297923
    12  C   -0.300669
    13  C   -0.478217
    14  H    0.148636
    15  H    0.149194
    16  H    0.151610
    17  H    0.151376
    18  H    0.154643
    19  H    0.161488
    20  H    0.159254
    21  C   -0.298237
    22  C   -0.299609
    23  C   -0.475679
    24  H    0.149555
    25  H    0.149420
    26  H    0.151855
    27  H    0.151887
    28  H    0.155138
    29  H    0.155132
    30  H    0.160169
    31  C   -0.298384
    32  C   -0.300302
    33  C   -0.477678
    34  H    0.149412
    35  H    0.149591
    36  H    0.151744
    37  H    0.151504
    38  H    0.153548
    39  H    0.154357
    40  H    0.167140
 Sum of Mulliken charges =  -0.00000

 Dipole moment (field-independent basis, Debye):
    X=              0.0036    Y=             -0.0269    Z=              0.0035  Tot=              0.0274
 Quadrupole moment (field-independent basis, Debye-Ang):
   XX=            -85.5400   YY=            -85.4321   ZZ=            -83.9664
   XY=              0.4322   XZ=             -0.2184   YZ=              0.3302

 Normal termination of Gaussian 16 at Thu May  6 16:32:45 2021.
