 Gaussian 16, Revision A.03,
 Gaussian 16:  EM64L-G16RevA.03 25-Dec-2016

 -------------
 #p 6-31g* mp2
 -------------

 ------------------------------------------------------
 Input file generated by CHIRIPA (05-May-2021 14:57:27)
 ------------------------------------------------------
 Symbolic Z-matrix:
 Charge =  0 Multiplicity = 1

                         Standard orientation:
 ---------------------------------------------------------------------
 Center     Atomic      Atomic             Coordinates (Angstroms)
 Number     Number       Type             X           Y           Z
 ---------------------------------------------------------------------
      1          6           0        2.158800   -1.664977    0.688014
      2          6           0        2.058375   -0.960195   -0.516028
      3          6           0        3.049807   -0.048034   -0.889620
      4          6           0        4.132862    0.135535   -0.031375
      5          6           0        4.261347   -0.551545    1.174735
      6          6           0        3.258027   -1.458767    1.528072
      7          1           0        1.384014   -2.371648    0.970362
      8          1           0        1.205823   -1.118317   -1.170396
      9          1           0        2.997147    0.510919   -1.816020
     10          1           0        5.123038   -0.372594    1.806307
     11          1           0        3.338648   -2.004712    2.463748
     12          7           0        5.188739    1.098585   -0.416159
     13          8           0        6.132930    1.242303    0.357461
     14          8           0        5.052153    1.691470   -1.484086
     15          6           0       -5.986652    1.428936    0.495004
     16          6           0       -4.822891    1.564851    1.259013
     17          6           0       -3.693355    0.791159    0.976004
     18          6           0       -3.762800   -0.112715   -0.082995
     19          6           0       -4.907602   -0.271114   -0.862499
     20          6           0       -6.025225    0.513001   -0.561452
     21          1           0       -6.859475    2.034007    0.721858
     22          1           0       -4.790067    2.275374    2.080065
     23          1           0       -2.779457    0.876100    1.551325
     24          1           0       -4.910098   -0.987872   -1.674701
     25          1           0       -6.927658    0.405321   -1.156484
     26          7           0       -2.573316   -0.937307   -0.392151
     27          8           0       -2.660015   -1.726467   -1.330419
     28          8           0       -1.576823   -0.778847    0.309653
 ---------------------------------------------------------------------

 SCF Done:  E(RHF) =  -868.340823805     A.U. after   16 cycles
 E2 =    -0.2598409509D+01 EUMP2 =    -0.87093923331469D+03

 The electronic state is 1-A.
 Alpha  occ. eigenvalues --  -20.61859 -20.61851 -20.59952 -20.59945 -15.86861
 Alpha  occ. eigenvalues --  -15.84993 -11.31892 -11.30095 -11.28418 -11.28415
 Alpha  occ. eigenvalues --  -11.28098 -11.27356 -11.27346 -11.26673 -11.26559
 Alpha  occ. eigenvalues --  -11.26144 -11.25614 -11.25339  -1.60921  -1.59033
 Alpha  occ. eigenvalues --   -1.40478  -1.38594  -1.20034  -1.18211  -1.09494
 Alpha  occ. eigenvalues --   -1.07616  -1.05383  -1.03570  -0.96384  -0.94510
 Alpha  occ. eigenvalues --   -0.86797  -0.84948  -0.83224  -0.81361  -0.78308
 Alpha  occ. eigenvalues --   -0.76472  -0.73102  -0.72212  -0.71216  -0.71134
 Alpha  occ. eigenvalues --   -0.70355  -0.69238  -0.65688  -0.65382  -0.63836
 Alpha  occ. eigenvalues --   -0.63515  -0.62732  -0.60919  -0.55896  -0.53962
 Alpha  occ. eigenvalues --   -0.53731  -0.53468  -0.51924  -0.51632  -0.49868
 Alpha  occ. eigenvalues --   -0.49833  -0.47989  -0.47943  -0.45949  -0.44060
 Alpha  occ. eigenvalues --   -0.37993  -0.36970  -0.36118  -0.35181
 Alpha virt. eigenvalues --    0.04188   0.06039   0.10690   0.12487   0.15759
 Alpha virt. eigenvalues --    0.17639   0.20871   0.22780   0.26807   0.27733
 Alpha virt. eigenvalues --    0.28636   0.29613   0.30490   0.31947   0.32385

 Mulliken charges:
               1
     1  C   -0.168835
     2  C   -0.216031
     3  C   -0.175180
     4  C    0.157302
     5  C   -0.173597
     6  C   -0.220686
     7  H    0.234206
     8  H    0.237917
     9  H    0.271734
    10  H    0.270919
    11  H    0.218741
    12  N    0.488219
    13  O   -0.464175
    14  O   -0.463347
    15  C   -0.169500
    16  C   -0.218524
    17  C   -0.170465
    18  C    0.157340
    19  C   -0.170352
    20  C   -0.218583
    21  H    0.228258
    22  H    0.225972
    23  H    0.276204
    24  H    0.276186
    25  H    0.225667
    26  N    0.489286
    27  O   -0.460274
    28  O   -0.468401
 Sum of Mulliken charges =  -0.00000

 Dipole moment (field-independent basis, Debye):
    X=             -8.6003    Y=             -0.5504    Z=              2.4124  Tot=              8.9492
 Quadrupole moment (field-independent basis, Debye-Ang):
   XX=           -103.2948   YY=           -106.4446   ZZ=            -99.3810
   XY=            -25.1919   XZ=              6.2936   YZ=              1.0522

 Normal termination of Gaussian 16 at Fri May  7 02:02:36 2021.
