 Gaussian 16, Revision A.03,
 Gaussian 16:  EM64L-G16RevA.03 25-Dec-2016

 -------------
 #p 6-31g* mp2
 -------------

 ------------------------------------------------------
 Input file generated by CHIRIPA (05-May-2021 14:53:16)
 ------------------------------------------------------
 Symbolic Z-matrix:
 Charge =  0 Multiplicity = 1

                         Standard orientation:
 ---------------------------------------------------------------------
 Center     Atomic      Atomic             Coordinates (Angstroms)
 Number     Number       Type             X           Y           Z
 ---------------------------------------------------------------------
      1          6           0       -4.555139    0.092016    0.398183
      2          6           0       -5.864990   -0.177367   -0.343241
      3          6           0       -7.098652    0.098584    0.516830
      4          1           0       -4.519170   -0.529318    1.303499
      5          1           0       -4.541407    1.137555    0.735904
      6          1           0       -5.875644   -1.221708   -0.680665
      7          1           0       -5.897759    0.444539   -1.246997
      8          1           0       -7.115432    1.143768    0.842268
      9          1           0       -7.093191   -0.531946    1.411817
     10          1           0       -8.023932   -0.100504   -0.032789
     11          6           0       -3.312881   -0.179280   -0.448529
     12          6           0       -2.003031    0.090103    0.292896
     13          6           0       -0.769369   -0.185848   -0.567175
     14          1           0       -3.326614   -1.224819   -0.786249
     15          1           0       -3.348851    0.442053   -1.353844
     16          1           0       -1.970262   -0.531803    1.196652
     17          1           0       -1.992377    1.134444    0.630320
     18          1           0       -0.774830    0.444682   -1.462162
     19          1           0       -0.752589   -1.231032   -0.892613
     20          1           0        0.155911    0.013240   -0.017556
     21          6           0        3.200371   -2.484443    0.102221
     22          6           0        2.876922   -1.838747   -1.095685
     23          6           0        2.803738   -0.443791   -1.153070
     24          6           0        3.061175    0.277570    0.011685
     25          6           0        3.385921   -0.336658    1.220219
     26          6           0        3.453393   -1.732663    1.254318
     27          1           0        3.255003   -3.568486    0.137754
     28          1           0        2.679928   -2.420030   -1.991981
     29          1           0        2.555528    0.081760   -2.067185
     30          1           0        3.577084    0.269748    2.097230
     31          1           0        3.704818   -2.231429    2.186017
     32          7           0        2.986722    1.754903   -0.036740
     33          8           0        3.217923    2.367668    1.003309
     34          8           0        2.698575    2.272097   -1.113828
 ---------------------------------------------------------------------

 SCF Done:  E(RHF) =  -669.534597494     A.U. after   15 cycles
 E2 =    -0.2092730584D+01 EUMP2 =    -0.67162732807837D+03

 The electronic state is 1-A.
 Alpha  occ. eigenvalues --  -20.60774 -20.60763 -15.85822 -11.31152 -11.27781
 Alpha  occ. eigenvalues --  -11.27737 -11.27519 -11.26778 -11.26754 -11.21551
 Alpha  occ. eigenvalues --  -11.21477 -11.21331 -11.21272 -11.21022 -11.20949
 Alpha  occ. eigenvalues --   -1.59847  -1.39400  -1.19377  -1.08766  -1.08353
 Alpha  occ. eigenvalues --   -1.04772  -1.03452  -0.95919  -0.95593  -0.86944
 Alpha  occ. eigenvalues --   -0.86164  -0.82427  -0.79528  -0.78170  -0.77471
 Alpha  occ. eigenvalues --   -0.72042  -0.71185  -0.70478  -0.65022  -0.64981
 Alpha  occ. eigenvalues --   -0.64769  -0.62115  -0.60846  -0.59331  -0.57545
 Alpha  occ. eigenvalues --   -0.55280  -0.55195  -0.53523  -0.52860  -0.52364
 Alpha  occ. eigenvalues --   -0.52147  -0.49850  -0.48801  -0.48796  -0.47842
 Alpha  occ. eigenvalues --   -0.46549  -0.45714  -0.45634  -0.44805  -0.43713
 Alpha  occ. eigenvalues --   -0.37313  -0.36323
 Alpha virt. eigenvalues --    0.05038   0.11266   0.16511   0.21370   0.22930
 Alpha virt. eigenvalues --    0.24312   0.26690   0.27039   0.27629   0.27914
 Alpha virt. eigenvalues --    0.28426   0.30694   0.31393   0.31777   0.31935

 Mulliken charges:
               1
     1  C   -0.298296
     2  C   -0.299537
     3  C   -0.475678
     4  H    0.148590
     5  H    0.151279
     6  H    0.150638
     7  H    0.152491
     8  H    0.156022
     9  H    0.154599
    10  H    0.159930
    11  C   -0.298562
    12  C   -0.299975
    13  C   -0.478360
    14  H    0.146742
    15  H    0.150822
    16  H    0.149628
    17  H    0.156411
    18  H    0.157752
    19  H    0.148843
    20  H    0.163254
    21  C   -0.170902
    22  C   -0.215886
    23  C   -0.167690
    24  C    0.156362
    25  C   -0.172848
    26  C   -0.217964
    27  H    0.225612
    28  H    0.223558
    29  H    0.275864
    30  H    0.275789
    31  H    0.223428
    32  N    0.489304
    33  O   -0.460985
    34  O   -0.460235
 Sum of Mulliken charges =  -0.00000

 Dipole moment (field-independent basis, Debye):
    X=              0.3182    Y=             -5.1743    Z=              0.1527  Tot=              5.1863
 Quadrupole moment (field-independent basis, Debye-Ang):
   XX=            -94.7972   YY=            -97.3636   ZZ=            -90.2248
   XY=            -16.0871   XZ=              2.3012   YZ=             -0.1951

 Normal termination of Gaussian 16 at Thu May  6 02:45:00 2021.
