 Gaussian 16, Revision A.03,
 Gaussian 16:  EM64L-G16RevA.03 25-Dec-2016

 -------------
 #p 6-31g* mp2
 -------------

 ------------------------------------------------------
 Input file generated by CHIRIPA (05-May-2021 14:57:24)
 ------------------------------------------------------
 Symbolic Z-matrix:
 Charge =  0 Multiplicity = 1

                         Standard orientation:
 ---------------------------------------------------------------------
 Center     Atomic      Atomic             Coordinates (Angstroms)
 Number     Number       Type             X           Y           Z
 ---------------------------------------------------------------------
      1          6           0        0.959314    0.946839    1.022253
      2          6           0        1.353519   -0.321438    1.461111
      3          6           0        2.565315   -0.874666    1.036804
      4          6           0        3.361959   -0.128602    0.169603
      5          6           0        2.996789    1.137498   -0.285293
      6          6           0        1.780759    1.670983    0.151986
      7          1           0        0.016317    1.368931    1.356903
      8          1           0        0.717588   -0.886091    2.136984
      9          1           0        2.894836   -1.854332    1.360978
     10          1           0        3.651944    1.676416   -0.958909
     11          1           0        1.477165    2.656174   -0.190470
     12          7           0        4.647074   -0.703829   -0.286458
     13          8           0        5.330996   -0.026320   -1.050571
     14          8           0        4.946092   -1.821309    0.128830
     15          6           0       -1.971396    2.260096   -0.386347
     16          6           0       -1.660941    1.244511   -1.296692
     17          6           0       -2.307757    0.007010   -1.227654
     18          6           0       -3.264114   -0.181433   -0.231080
     19          6           0       -3.595370    0.810741    0.690413
     20          6           0       -2.935920    2.040357    0.602557
     21          1           0       -1.464027    3.218354   -0.447287
     22          1           0       -0.912307    1.412344   -2.065732
     23          1           0       -2.086772   -0.796585   -1.919622
     24          1           0       -4.346149    0.613724    1.446015
     25          1           0       -3.179053    2.827253    1.310883
     26          7           0       -3.955558   -1.487346   -0.148031
     27          8           0       -4.794307   -1.628278    0.739253
     28          8           0       -3.645668   -2.345262   -0.971796
 ---------------------------------------------------------------------

 SCF Done:  E(RHF) =  -868.335492772     A.U. after   16 cycles
 E2 =    -0.2603385109D+01 EUMP2 =    -0.87093887788110D+03

 The electronic state is 1-A.
 Alpha  occ. eigenvalues --  -20.61564 -20.61551 -20.61023 -20.61011 -15.86618
 Alpha  occ. eigenvalues --  -15.86082 -11.32201 -11.31487 -11.28788 -11.28689
 Alpha  occ. eigenvalues --  -11.28564 -11.28182 -11.28081 -11.27888 -11.27759
 Alpha  occ. eigenvalues --  -11.27758 -11.27204 -11.27005  -1.60633  -1.60097
 Alpha  occ. eigenvalues --   -1.40178  -1.39649  -1.20405  -1.19702  -1.09799
 Alpha  occ. eigenvalues --   -1.09059  -1.05792  -1.05130  -0.96577  -0.95883
 Alpha  occ. eigenvalues --   -0.87195  -0.86517  -0.83362  -0.82736  -0.78356
 Alpha  occ. eigenvalues --   -0.77782  -0.72826  -0.72297  -0.71966  -0.71540
 Alpha  occ. eigenvalues --   -0.71427  -0.70799  -0.66033  -0.65787  -0.65344
 Alpha  occ. eigenvalues --   -0.65146  -0.63100  -0.62480  -0.56345  -0.55894
 Alpha  occ. eigenvalues --   -0.54067  -0.53851  -0.53243  -0.53223  -0.49605
 Alpha  occ. eigenvalues --   -0.49571  -0.49060  -0.49047  -0.45534  -0.45046
 Alpha  occ. eigenvalues --   -0.38700  -0.37890  -0.36910  -0.36681
 Alpha virt. eigenvalues --    0.04100   0.04776   0.09875   0.11158   0.15447
 Alpha virt. eigenvalues --    0.16237   0.19303   0.21857   0.25274   0.26499
 Alpha virt. eigenvalues --    0.27917   0.29089   0.29801   0.31083   0.31901

 Mulliken charges:
               1
     1  C   -0.165243
     2  C   -0.222656
     3  C   -0.169046
     4  C    0.156918
     5  C   -0.171074
     6  C   -0.226994
     7  H    0.230755
     8  H    0.226687
     9  H    0.278027
    10  H    0.274974
    11  H    0.212809
    12  N    0.488173
    13  O   -0.461207
    14  O   -0.458613
    15  C   -0.187659
    16  C   -0.208869
    17  C   -0.170317
    18  C    0.158064
    19  C   -0.172361
    20  C   -0.222883
    21  H    0.224257
    22  H    0.228183
    23  H    0.280526
    24  H    0.278579
    25  H    0.226320
    26  N    0.487558
    27  O   -0.458553
    28  O   -0.456353
 Sum of Mulliken charges =  -0.00000

 Dipole moment (field-independent basis, Debye):
    X=             -2.3089    Y=              6.3630    Z=              1.2611  Tot=              6.8854
 Quadrupole moment (field-independent basis, Debye-Ang):
   XX=           -150.4817   YY=           -104.1863   ZZ=           -100.2569
   XY=             -8.3274   XZ=              2.3706   YZ=             -2.0117

 Normal termination of Gaussian 16 at Thu May  6 21:17:23 2021.
