 Gaussian 16, Revision A.03,
 Gaussian 16:  EM64L-G16RevA.03 25-Dec-2016

 -------------
 #p 6-31g* mp2
 -------------

 ------------------------------------------------------
 Input file generated by CHIRIPA (05-May-2021 14:57:25)
 ------------------------------------------------------
 Symbolic Z-matrix:
 Charge =  0 Multiplicity = 1

                         Standard orientation:
 ---------------------------------------------------------------------
 Center     Atomic      Atomic             Coordinates (Angstroms)
 Number     Number       Type             X           Y           Z
 ---------------------------------------------------------------------
      1          6           0       -1.799297    1.314217   -0.437127
      2          6           0       -1.695133    0.037703    0.125173
      3          6           0       -2.838097   -0.736927    0.344560
      4          6           0       -4.074848   -0.201458   -0.011822
      5          6           0       -4.211243    1.066925   -0.573864
      6          6           0       -3.054806    1.823856   -0.784239
      7          1           0       -0.906182    1.909094   -0.604052
      8          1           0       -0.721396   -0.360651    0.395720
      9          1           0       -2.786234   -1.728197    0.778279
     10          1           0       -5.195696    1.437026   -0.833280
     11          1           0       -3.138718    2.814896   -1.221096
     12          7           0       -5.291984   -1.012155    0.215663
     13          8           0       -6.369927   -0.517612   -0.106988
     14          8           0       -5.144986   -2.126772    0.712309
     15          6           0        2.212725    1.840445    0.729864
     16          6           0        2.251722    1.388651   -0.593346
     17          6           0        3.168167    0.406875   -0.981668
     18          6           0        4.034879   -0.103523   -0.016478
     19          6           0        4.020478    0.326097    1.309610
     20          6           0        3.095671    1.308664    1.675451
     21          1           0        1.497560    2.603421    1.022789
     22          1           0        1.567216    1.799843   -1.329836
     23          1           0        3.219934    0.039009   -1.999220
     24          1           0        4.715486   -0.102735    2.021289
     25          1           0        3.067646    1.657636    2.703788
     26          7           0        5.009505   -1.143304   -0.415677
     27          8           0        5.762394   -1.576981    0.453644
     28          8           0        5.002074   -1.504920   -1.590334
 ---------------------------------------------------------------------

 SCF Done:  E(RHF) =  -868.336781045     A.U. after   16 cycles
 E2 =    -0.2600597440D+01 EUMP2 =    -0.87093737848497D+03

 The electronic state is 1-A.
 Alpha  occ. eigenvalues --  -20.61497 -20.61490 -20.61145 -20.61139 -15.86559
 Alpha  occ. eigenvalues --  -15.86200 -11.32142 -11.31694 -11.28775 -11.28704
 Alpha  occ. eigenvalues --  -11.28605 -11.28257 -11.28226 -11.28144 -11.27924
 Alpha  occ. eigenvalues --  -11.27756 -11.27366 -11.27290  -1.60568  -1.60217
 Alpha  occ. eigenvalues --   -1.40114  -1.39766  -1.20361  -1.19877  -1.09733
 Alpha  occ. eigenvalues --   -1.09277  -1.05788  -1.05281  -0.96517  -0.96090
 Alpha  occ. eigenvalues --   -0.87193  -0.86683  -0.83331  -0.82907  -0.78332
 Alpha  occ. eigenvalues --   -0.77904  -0.72773  -0.72417  -0.71896  -0.71540
 Alpha  occ. eigenvalues --   -0.71526  -0.71045  -0.66015  -0.65821  -0.65530
 Alpha  occ. eigenvalues --   -0.65265  -0.63115  -0.62610  -0.56318  -0.55909
 Alpha  occ. eigenvalues --   -0.54119  -0.53864  -0.53620  -0.53358  -0.49549
 Alpha  occ. eigenvalues --   -0.49511  -0.49186  -0.49164  -0.45470  -0.45142
 Alpha  occ. eigenvalues --   -0.38384  -0.37919  -0.37388  -0.36872
 Alpha virt. eigenvalues --    0.04194   0.04599   0.10107   0.10764   0.15622
 Alpha virt. eigenvalues --    0.16030   0.18305   0.21897   0.24886   0.26797
 Alpha virt. eigenvalues --    0.26928   0.29259   0.29789   0.30659   0.32000

 Mulliken charges:
               1
     1  C   -0.174637
     2  C   -0.221071
     3  C   -0.170508
     4  C    0.159633
     5  C   -0.170653
     6  C   -0.218227
     7  H    0.215078
     8  H    0.228270
     9  H    0.278052
    10  H    0.277065
    11  H    0.223338
    12  N    0.487834
    13  O   -0.459231
    14  O   -0.458463
    15  C   -0.174849
    16  C   -0.225563
    17  C   -0.170118
    18  C    0.158770
    19  C   -0.169722
    20  C   -0.218569
    21  H    0.224846
    22  H    0.219992
    23  H    0.279146
    24  H    0.279376
    25  H    0.227609
    26  N    0.487914
    27  O   -0.457374
    28  O   -0.457937
 Sum of Mulliken charges =  -0.00000

 Dipole moment (field-independent basis, Debye):
    X=              1.0244    Y=              6.3333    Z=              0.6944  Tot=              6.4531
 Quadrupole moment (field-independent basis, Debye-Ang):
   XX=           -164.5801   YY=           -105.1849   ZZ=           -100.3388
   XY=              0.1944   XZ=             12.2543   YZ=             -1.7497

 Normal termination of Gaussian 16 at Thu May  6 06:45:13 2021.
