 Gaussian 16, Revision A.03,
 Gaussian 16:  EM64L-G16RevA.03 25-Dec-2016

 -------------
 #p 6-31g* mp2
 -------------

 ------------------------------------------------------
 Input file generated by CHIRIPA (05-May-2021 14:57:23)
 ------------------------------------------------------
 Symbolic Z-matrix:
 Charge =  0 Multiplicity = 1

                         Standard orientation:
 ---------------------------------------------------------------------
 Center     Atomic      Atomic             Coordinates (Angstroms)
 Number     Number       Type             X           Y           Z
 ---------------------------------------------------------------------
      1          6           0        2.658270    1.806724   -0.635331
      2          6           0        2.260188    0.494190   -0.360909
      3          6           0        3.209017   -0.486934   -0.058142
      4          6           0        4.553457   -0.118984   -0.038498
      5          6           0        4.981467    1.180154   -0.307457
      6          6           0        4.015247    2.144920   -0.607778
      7          1           0        1.914442    2.562531   -0.869578
      8          1           0        1.207041    0.228675   -0.381585
      9          1           0        2.928534   -1.510617    0.158238
     10          1           0        6.038654    1.414624   -0.279236
     11          1           0        4.327306    3.163458   -0.820486
     12          7           0        5.567145   -1.148997    0.280733
     13          8           0        6.745386   -0.799329    0.291614
     14          8           0        5.164239   -2.286486    0.514021
     15          6           0       -2.011043    0.663697    0.552834
     16          6           0       -3.076492    1.481394    0.943617
     17          6           0       -4.396663    1.095582    0.692925
     18          6           0       -4.616028   -0.119847    0.046474
     19          6           0       -3.575736   -0.956390   -0.355124
     20          6           0       -2.263621   -0.550444   -0.094148
     21          1           0       -0.988631    0.971224    0.751572
     22          1           0       -2.883324    2.424844    1.446243
     23          1           0       -5.240241    1.709336    0.984645
     24          1           0       -3.799760   -1.891263   -0.854366
     25          1           0       -1.438143   -1.187500   -0.398768
     26          7           0       -6.009370   -0.538946   -0.224366
     27          8           0       -6.176068   -1.614473   -0.795409
     28          8           0       -6.908391    0.216028    0.139521
 ---------------------------------------------------------------------

 SCF Done:  E(RHF) =  -868.336310354     A.U. after   16 cycles
 E2 =    -0.2599880734D+01 EUMP2 =    -0.87093619108756D+03

 The electronic state is 1-A.
 Alpha  occ. eigenvalues --  -20.61394 -20.61386 -20.61269 -20.61264 -15.86455
 Alpha  occ. eigenvalues --  -15.86329 -11.31977 -11.31852 -11.28639 -11.28544
 Alpha  occ. eigenvalues --  -11.28444 -11.28420 -11.28402 -11.28326 -11.27775
 Alpha  occ. eigenvalues --  -11.27580 -11.27570 -11.27504  -1.60465  -1.60341
 Alpha  occ. eigenvalues --   -1.40014  -1.39890  -1.20187  -1.20055  -1.09560
 Alpha  occ. eigenvalues --   -1.09447  -1.05628  -1.05476  -0.96358  -0.96250
 Alpha  occ. eigenvalues --   -0.87035  -0.86882  -0.83199  -0.83068  -0.78218
 Alpha  occ. eigenvalues --   -0.78063  -0.72671  -0.72545  -0.71791  -0.71665
 Alpha  occ. eigenvalues --   -0.71323  -0.71223  -0.65850  -0.65803  -0.65679
 Alpha  occ. eigenvalues --   -0.65422  -0.62995  -0.62795  -0.56176  -0.56034
 Alpha  occ. eigenvalues --   -0.53927  -0.53811  -0.53726  -0.53572  -0.49442
 Alpha  occ. eigenvalues --   -0.49414  -0.49318  -0.49288  -0.45385  -0.45259
 Alpha  occ. eigenvalues --   -0.38179  -0.38083  -0.37226  -0.37066
 Alpha virt. eigenvalues --    0.04354   0.04462   0.10340   0.10555   0.15785
 Alpha virt. eigenvalues --    0.15874   0.17512   0.22029   0.24557   0.26065
 Alpha virt. eigenvalues --    0.27636   0.28869   0.30029   0.30549   0.31799

 Mulliken charges:
               1
     1  C   -0.171683
     2  C   -0.223317
     3  C   -0.169878
     4  C    0.159243
     5  C   -0.169268
     6  C   -0.218131
     7  H    0.225249
     8  H    0.216513
     9  H    0.276153
    10  H    0.278503
    11  H    0.226312
    12  N    0.488029
    13  O   -0.457942
    14  O   -0.459186
    15  C   -0.174727
    16  C   -0.217914
    17  C   -0.169875
    18  C    0.159263
    19  C   -0.169528
    20  C   -0.219099
    21  H    0.219936
    22  H    0.224745
    23  H    0.277854
    24  H    0.278309
    25  H    0.219517
    26  N    0.487910
    27  O   -0.458381
    28  O   -0.458604
 Sum of Mulliken charges =  -0.00000

 Dipole moment (field-independent basis, Debye):
    X=              1.3692    Y=              5.1217    Z=             -0.1771  Tot=              5.3045
 Quadrupole moment (field-independent basis, Debye-Ang):
   XX=           -177.8244   YY=           -100.4514   ZZ=           -105.2285
   XY=             11.0287   XZ=            -10.5519   YZ=              1.6370

 Normal termination of Gaussian 16 at Fri May  7 03:23:10 2021.
