 Gaussian 16, Revision A.03,
 Gaussian 16:  EM64L-G16RevA.03 25-Dec-2016

 -------------
 #p 6-31g* mp2
 -------------

 ------------------------------------------------------
 Input file generated by CHIRIPA (05-May-2021 14:55:22)
 ------------------------------------------------------
 Symbolic Z-matrix:
 Charge =  0 Multiplicity = 1

                         Standard orientation:
 ---------------------------------------------------------------------
 Center     Atomic      Atomic             Coordinates (Angstroms)
 Number     Number       Type             X           Y           Z
 ---------------------------------------------------------------------
      1          6           0       -0.562991   -0.274500    0.608556
      2          6           0       -1.458943    0.263571    1.538218
      3          6           0       -2.826361    0.324231    1.253547
      4          6           0       -3.265297   -0.164445    0.023985
      5          6           0       -2.397516   -0.706339   -0.922903
      6          6           0       -1.034306   -0.756887   -0.616877
      7          1           0        0.497617   -0.317695    0.837990
      8          1           0       -1.095748    0.638945    2.490703
      9          1           0       -3.541928    0.735670    1.955044
     10          1           0       -2.789434   -1.072673   -1.863975
     11          1           0       -0.340799   -1.175297   -1.340774
     12          7           0       -4.710693   -0.105579   -0.288687
     13          8           0       -5.072180   -0.542736   -1.379034
     14          8           0       -5.454739    0.376603    0.562508
     15          6           0        3.821964   -0.449818    0.261241
     16          6           0        4.705379   -1.535223   -0.354763
     17          6           0        4.589021   -2.875285    0.372210
     18          1           0        4.094089   -0.320306    1.317706
     19          1           0        2.776006   -0.786213    0.246860
     20          1           0        5.749191   -1.196301   -0.340485
     21          1           0        4.431249   -1.662032   -1.409935
     22          1           0        3.556811   -3.239254    0.346313
     23          1           0        4.882242   -2.770877    1.421839
     24          1           0        5.228814   -3.636739   -0.084640
     25          6           0        3.927355    0.895634   -0.454565
     26          6           0        3.043940    1.981038    0.161438
     27          6           0        3.160298    3.321100   -0.565535
     28          1           0        4.973313    1.232027   -0.440186
     29          1           0        3.655230    0.766122   -1.511032
     30          1           0        3.318070    2.107847    1.216610
     31          1           0        2.000128    1.642117    0.147159
     32          1           0        2.867077    3.216692   -1.615165
     33          1           0        4.192508    3.685068   -0.539638
     34          1           0        2.520505    4.082554   -0.108685
 ---------------------------------------------------------------------

 SCF Done:  E(RHF) =  -669.535307919     A.U. after   15 cycles
 E2 =    -0.2092017573D+01 EUMP2 =    -0.67162732549209D+03

 The electronic state is 1-A.
 Alpha  occ. eigenvalues --  -20.60754 -20.60749 -15.85808 -11.31178 -11.27746
 Alpha  occ. eigenvalues --  -11.27738 -11.27436 -11.26765 -11.26747 -11.22604
 Alpha  occ. eigenvalues --  -11.22568 -11.22520 -11.22350 -11.21902 -11.21799
 Alpha  occ. eigenvalues --   -1.59830  -1.39383  -1.19348  -1.09453  -1.08739
 Alpha  occ. eigenvalues --   -1.04751  -1.04434  -0.96877  -0.95576  -0.87885
 Alpha  occ. eigenvalues --   -0.86146  -0.82414  -0.80512  -0.79307  -0.77456
 Alpha  occ. eigenvalues --   -0.72025  -0.71153  -0.70481  -0.66085  -0.64996
 Alpha  occ. eigenvalues --   -0.64747  -0.62099  -0.61831  -0.60244  -0.58500
 Alpha  occ. eigenvalues --   -0.56184  -0.55266  -0.53520  -0.53297  -0.53075
 Alpha  occ. eigenvalues --   -0.52841  -0.50817  -0.48822  -0.48787  -0.48780
 Alpha  occ. eigenvalues --   -0.47559  -0.46780  -0.46727  -0.44788  -0.44723
 Alpha  occ. eigenvalues --   -0.37308  -0.36357
 Alpha virt. eigenvalues --    0.05040   0.11297   0.16413   0.19234   0.22665
 Alpha virt. eigenvalues --    0.23469   0.24915   0.26011   0.27041   0.27366
 Alpha virt. eigenvalues --    0.30198   0.30436   0.30920   0.31149   0.31758

 Mulliken charges:
               1
     1  C   -0.177270
     2  C   -0.220839
     3  C   -0.170639
     4  C    0.158506
     5  C   -0.170800
     6  C   -0.222169
     7  H    0.238167
     8  H    0.224458
     9  H    0.275526
    10  H    0.275531
    11  H    0.222424
    12  N    0.487985
    13  O   -0.460489
    14  O   -0.460376
    15  C   -0.302882
    16  C   -0.299817
    17  C   -0.476217
    18  H    0.152306
    19  H    0.139666
    20  H    0.156142
    21  H    0.152709
    22  H    0.153013
    23  H    0.156809
    24  H    0.164071
    25  C   -0.298685
    26  C   -0.304608
    27  C   -0.475639
    28  H    0.154224
    29  H    0.150690
    30  H    0.152309
    31  H    0.148204
    32  H    0.157246
    33  H    0.157581
    34  H    0.162863
 Sum of Mulliken charges =  -0.00000

 Dipole moment (field-independent basis, Debye):
    X=              5.3206    Y=             -0.1599    Z=              1.0792  Tot=              5.4313
 Quadrupole moment (field-independent basis, Debye-Ang):
   XX=           -126.8356   YY=            -95.0980   ZZ=            -90.6332
   XY=             -0.3316   XZ=             -4.0472   YZ=              2.5669

 Normal termination of Gaussian 16 at Thu May  6 19:11:27 2021.
