 Gaussian 16, Revision A.03,
 Gaussian 16:  EM64L-G16RevA.03 25-Dec-2016

 -------------
 #p 6-31g* mp2
 -------------

 ------------------------------------------------------
 Input file generated by CHIRIPA (05-May-2021 14:57:21)
 ------------------------------------------------------
 Symbolic Z-matrix:
 Charge =  0 Multiplicity = 1

                         Standard orientation:
 ---------------------------------------------------------------------
 Center     Atomic      Atomic             Coordinates (Angstroms)
 Number     Number       Type             X           Y           Z
 ---------------------------------------------------------------------
      1          6           0        4.871664    0.734032    1.432003
      2          6           0        4.350197   -0.517666    1.775288
      3          6           0        3.381729   -1.127777    0.972554
      4          6           0        2.955538   -0.454883   -0.171503
      5          6           0        3.455902    0.792918   -0.540174
      6          6           0        4.423643    1.384183    0.277403
      7          1           0        5.623711    1.200661    2.061351
      8          1           0        4.696270   -1.024906    2.671383
      9          1           0        2.961096   -2.096179    1.214801
     10          1           0        3.091249    1.274067   -1.439586
     11          1           0        4.826847    2.356333    0.008338
     12          7           0        1.930650   -1.090805   -1.029178
     13          8           0        1.571783   -0.477306   -2.031910
     14          8           0        1.505615   -2.190697   -0.682452
     15          6           0       -4.849361   -1.111794    1.149769
     16          6           0       -4.202953   -1.553979   -0.009174
     17          6           0       -3.245544   -0.752380   -0.637946
     18          6           0       -2.957694    0.491404   -0.078093
     19          6           0       -3.584572    0.959952    1.075500
     20          6           0       -4.538655    0.141551    1.687460
     21          1           0       -5.591807   -1.741021    1.631684
     22          1           0       -4.442242   -2.526885   -0.428984
     23          1           0       -2.729980   -1.070010   -1.536125
     24          1           0       -3.324874    1.934620    1.470463
     25          1           0       -5.039076    0.487546    2.587409
     26          7           0       -1.945889    1.348915   -0.734847
     27          8           0       -1.710160    2.440613   -0.221755
     28          8           0       -1.407723    0.913096   -1.750267
 ---------------------------------------------------------------------

 SCF Done:  E(RHF) =  -868.337032400     A.U. after   16 cycles
 E2 =    -0.2599913232D+01 EUMP2 =    -0.87093694563229D+03

 The electronic state is 1-A.
 Alpha  occ. eigenvalues --  -20.60100 -20.60055 -20.59936 -20.59917 -15.85052
 Alpha  occ. eigenvalues --  -15.85020 -11.30544 -11.30493 -11.27186 -11.27144
 Alpha  occ. eigenvalues --  -11.27071 -11.27003 -11.26934 -11.26890 -11.26227
 Alpha  occ. eigenvalues --  -11.26181 -11.26150 -11.26089  -1.59093  -1.59066
 Alpha  occ. eigenvalues --   -1.38645  -1.38599  -1.18738  -1.18691  -1.08120
 Alpha  occ. eigenvalues --   -1.08078  -1.04159  -1.04104  -0.94940  -0.94876
 Alpha  occ. eigenvalues --   -0.85554  -0.85501  -0.81777  -0.81687  -0.76782
 Alpha  occ. eigenvalues --   -0.76729  -0.71381  -0.71148  -0.70534  -0.70261
 Alpha  occ. eigenvalues --   -0.69856  -0.69805  -0.64395  -0.64337  -0.64173
 Alpha  occ. eigenvalues --   -0.64117  -0.61501  -0.61440  -0.54679  -0.54631
 Alpha  occ. eigenvalues --   -0.52486  -0.52438  -0.52257  -0.52199  -0.48102
 Alpha  occ. eigenvalues --   -0.48069  -0.48016  -0.47947  -0.44282  -0.43676
 Alpha  occ. eigenvalues --   -0.36743  -0.36694  -0.35764  -0.35709
 Alpha virt. eigenvalues --    0.05619   0.05934   0.11887   0.11940   0.17114
 Alpha virt. eigenvalues --    0.17355   0.21972   0.22041   0.27879   0.27949
 Alpha virt. eigenvalues --    0.28890   0.28980   0.31485   0.31572   0.33197

 Mulliken charges:
               1
     1  C   -0.171292
     2  C   -0.218932
     3  C   -0.172149
     4  C    0.158012
     5  C   -0.167944
     6  C   -0.218571
     7  H    0.223379
     8  H    0.220346
     9  H    0.272466
    10  H    0.281414
    11  H    0.223325
    12  N    0.486525
    13  O   -0.445274
    14  O   -0.471123
    15  C   -0.171396
    16  C   -0.218857
    17  C   -0.168305
    18  C    0.156762
    19  C   -0.172205
    20  C   -0.219206
    21  H    0.223147
    22  H    0.223698
    23  H    0.284126
    24  H    0.272579
    25  H    0.220177
    26  N    0.485422
    27  O   -0.469800
    28  O   -0.446325
 Sum of Mulliken charges =  -0.00000

 Dipole moment (field-independent basis, Debye):
    X=              0.0852    Y=             -0.7529    Z=              4.9519  Tot=              5.0096
 Quadrupole moment (field-independent basis, Debye-Ang):
   XX=            -64.9247   YY=           -105.5158   ZZ=           -102.4384
   XY=             12.7580   XZ=              1.1603   YZ=             -0.4306

 Normal termination of Gaussian 16 at Thu May  6 04:53:10 2021.
