 Gaussian 16, Revision A.03,
 Gaussian 16:  EM64L-G16RevA.03 25-Dec-2016

 -------------
 #p 6-31g* mp2
 -------------

 ------------------------------------------------------
 Input file generated by CHIRIPA (05-May-2021 14:55:20)
 ------------------------------------------------------
 Symbolic Z-matrix:
 Charge =  0 Multiplicity = 1

                         Standard orientation:
 ---------------------------------------------------------------------
 Center     Atomic      Atomic             Coordinates (Angstroms)
 Number     Number       Type             X           Y           Z
 ---------------------------------------------------------------------
      1          6           0       -0.572530   -1.259459    0.802347
      2          6           0       -0.882700    0.012422    1.294926
      3          6           0       -2.079948    0.639681    0.937587
      4          6           0       -2.947893   -0.036832    0.081847
      5          6           0       -2.667216   -1.304554   -0.425492
      6          6           0       -1.464206   -1.912736   -0.054778
      7          1           0        0.359760   -1.739319    1.085131
      8          1           0       -0.192104    0.522136    1.960744
      9          1           0       -2.345090    1.623874    1.304305
     10          1           0       -3.375570   -1.787677   -1.087492
     11          1           0       -1.225946   -2.900543   -0.438854
     12          7           0       -4.218416    0.617121   -0.303531
     13          8           0       -4.966247    0.000019   -1.058893
     14          8           0       -4.442364    1.734409    0.157067
     15          6           0        3.895022    0.840204   -0.137370
     16          6           0        3.019841    2.081187   -0.316259
     17          6           0        3.813901    3.383975   -0.216236
     18          1           0        4.397331    0.891129    0.838354
     19          1           0        4.688077    0.846634   -0.897909
     20          1           0        2.227844    2.071705    0.443520
     21          1           0        2.519409    2.027208   -1.291591
     22          1           0        4.593751    3.419703   -0.983802
     23          1           0        4.300529    3.464453    0.761167
     24          1           0        3.168801    4.258383   -0.347063
     25          6           0        3.115526   -0.469999   -0.234756
     26          6           0        3.990707   -1.710982   -0.055866
     27          6           0        3.196647   -3.013770   -0.155889
     28          1           0        2.322472   -0.476429    0.525783
     29          1           0        2.613217   -0.520924   -1.210480
     30          1           0        4.491139   -1.657002    0.919465
     31          1           0        4.782705   -1.701499   -0.815646
     32          1           0        2.710019   -3.094248   -1.133293
     33          1           0        2.416797   -3.049498    0.611677
     34          1           0        3.841749   -3.888178   -0.025063
 ---------------------------------------------------------------------

 SCF Done:  E(RHF) =  -669.534672729     A.U. after   15 cycles
 E2 =    -0.2092736893D+01 EUMP2 =    -0.67162740962235D+03

 The electronic state is 1-A.
 Alpha  occ. eigenvalues --  -20.60720 -20.60715 -15.85775 -11.31125 -11.27710
 Alpha  occ. eigenvalues --  -11.27704 -11.27397 -11.26713 -11.26686 -11.22579
 Alpha  occ. eigenvalues --  -11.22350 -11.22280 -11.22269 -11.22134 -11.21589
 Alpha  occ. eigenvalues --   -1.59797  -1.39351  -1.19303  -1.09306  -1.08693
 Alpha  occ. eigenvalues --   -1.04707  -1.04380  -0.96840  -0.95538  -0.87856
 Alpha  occ. eigenvalues --   -0.86104  -0.82380  -0.80447  -0.79107  -0.77417
 Alpha  occ. eigenvalues --   -0.71993  -0.71120  -0.70448  -0.65949  -0.64953
 Alpha  occ. eigenvalues --   -0.64699  -0.62060  -0.61783  -0.60219  -0.58441
 Alpha  occ. eigenvalues --   -0.56158  -0.55233  -0.53511  -0.53290  -0.53017
 Alpha  occ. eigenvalues --   -0.52799  -0.50801  -0.48785  -0.48748  -0.48707
 Alpha  occ. eigenvalues --   -0.47468  -0.46616  -0.46539  -0.44760  -0.44622
 Alpha  occ. eigenvalues --   -0.37232  -0.36310
 Alpha virt. eigenvalues --    0.05105   0.11241   0.16541   0.19110   0.22314
 Alpha virt. eigenvalues --    0.23149   0.25169   0.25884   0.26462   0.28309
 Alpha virt. eigenvalues --    0.28996   0.30521   0.30949   0.31456   0.31874

 Mulliken charges:
               1
     1  C   -0.170744
     2  C   -0.220343
     3  C   -0.170686
     4  C    0.157936
     5  C   -0.170727
     6  C   -0.222417
     7  H    0.232758
     8  H    0.223111
     9  H    0.275328
    10  H    0.275389
    11  H    0.223691
    12  N    0.488071
    13  O   -0.460678
    14  O   -0.460677
    15  C   -0.299124
    16  C   -0.299027
    17  C   -0.476482
    18  H    0.149747
    19  H    0.152792
    20  H    0.146408
    21  H    0.155796
    22  H    0.157133
    23  H    0.155106
    24  H    0.163017
    25  C   -0.299752
    26  C   -0.300789
    27  C   -0.478484
    28  H    0.140206
    29  H    0.154204
    30  H    0.153530
    31  H    0.156873
    32  H    0.157534
    33  H    0.144867
    34  H    0.166435
 Sum of Mulliken charges =  -0.00000

 Dipole moment (field-independent basis, Debye):
    X=              4.6849    Y=             -2.2706    Z=              1.2296  Tot=              5.3494
 Quadrupole moment (field-independent basis, Debye-Ang):
   XX=           -121.0312   YY=            -92.4701   ZZ=            -92.5319
   XY=              7.3021   XZ=             -3.4050   YZ=              2.3647

 Normal termination of Gaussian 16 at Thu May  6 14:07:18 2021.
