 Gaussian 16, Revision A.03,
 Gaussian 16:  EM64L-G16RevA.03 25-Dec-2016

 -------------
 #p 6-31g* mp2
 -------------

 ------------------------------------------------------
 Input file generated by CHIRIPA (05-May-2021 14:57:24)
 ------------------------------------------------------
 Symbolic Z-matrix:
 Charge =  0 Multiplicity = 1

                         Standard orientation:
 ---------------------------------------------------------------------
 Center     Atomic      Atomic             Coordinates (Angstroms)
 Number     Number       Type             X           Y           Z
 ---------------------------------------------------------------------
      1          6           0        1.936852    2.618940   -0.398466
      2          6           0        1.529482    1.553668   -1.208261
      3          6           0        2.136769    0.299890   -1.090833
      4          6           0        3.152852    0.146014   -0.148927
      5          6           0        3.580931    1.187936    0.672313
      6          6           0        2.959474    2.433002    0.537586
      7          1           0        1.459594    3.589521   -0.496406
      8          1           0        0.735558    1.695168   -1.936071
      9          1           0        1.840990   -0.541956   -1.705023
     10          1           0        4.375063    1.016302    1.388772
     11          1           0        3.277897    3.258508    1.167816
     12          7           0        3.803260   -1.176694   -0.015455
     13          8           0        4.696143   -1.286440    0.822013
     14          8           0        3.407851   -2.078639   -0.750834
     15          6           0       -5.330984    0.621589   -0.243555
     16          6           0       -4.765121    0.679107    1.034338
     17          6           0       -3.499531    0.136280    1.275519
     18          6           0       -2.824720   -0.459296    0.210996
     19          6           0       -3.361828   -0.532203   -1.073329
     20          6           0       -4.628770    0.017183   -1.291462
     21          1           0       -6.314650    1.045817   -0.421958
     22          1           0       -5.308173    1.147885    1.850050
     23          1           0       -3.037921    0.167042    2.255002
     24          1           0       -2.796296   -1.005946   -1.866524
     25          1           0       -5.065760   -0.028929   -2.284920
     26          7           0       -1.484181   -1.037435    0.454123
     27          8           0       -0.910095   -1.556700   -0.500564
     28          8           0       -1.032935   -0.960367    1.594770
 ---------------------------------------------------------------------

 SCF Done:  E(RHF) =  -868.337771830     A.U. after   16 cycles
 E2 =    -0.2600027998D+01 EUMP2 =    -0.87093779982777D+03

 The electronic state is 1-A.
 Alpha  occ. eigenvalues --  -20.61136 -20.61103 -20.59639 -20.59595 -15.86165
 Alpha  occ. eigenvalues --  -15.84679 -11.31574 -11.30085 -11.28154 -11.28124
 Alpha  occ. eigenvalues --  -11.27875 -11.27163 -11.27144 -11.26781 -11.26643
 Alpha  occ. eigenvalues --  -11.26614 -11.25824 -11.25783  -1.60182  -1.58687
 Alpha  occ. eigenvalues --   -1.39739  -1.38240  -1.19745  -1.18318  -1.09128
 Alpha  occ. eigenvalues --   -1.07730  -1.05151  -1.03747  -0.95956  -0.94541
 Alpha  occ. eigenvalues --   -0.86545  -0.85156  -0.82788  -0.81383  -0.77834
 Alpha  occ. eigenvalues --   -0.76385  -0.72382  -0.71511  -0.70913  -0.70843
 Alpha  occ. eigenvalues --   -0.69991  -0.69479  -0.65393  -0.65146  -0.63999
 Alpha  occ. eigenvalues --   -0.63798  -0.62495  -0.61089  -0.55639  -0.54331
 Alpha  occ. eigenvalues --   -0.53485  -0.53237  -0.52064  -0.51871  -0.49133
 Alpha  occ. eigenvalues --   -0.49124  -0.47683  -0.47643  -0.45136  -0.43637
 Alpha  occ. eigenvalues --   -0.37728  -0.36762  -0.36347  -0.35317
 Alpha virt. eigenvalues --    0.04670   0.06186   0.10889   0.12319   0.16173
 Alpha virt. eigenvalues --    0.17595   0.21049   0.22264   0.26955   0.27805
 Alpha virt. eigenvalues --    0.28248   0.29220   0.30655   0.31725   0.32202

 Mulliken charges:
               1
     1  C   -0.170733
     2  C   -0.223997
     3  C   -0.156864
     4  C    0.159271
     5  C   -0.169324
     6  C   -0.219346
     7  H    0.219509
     8  H    0.216995
     9  H    0.283328
    10  H    0.273224
    11  H    0.218779
    12  N    0.489154
    13  O   -0.465482
    14  O   -0.456178
    15  C   -0.171075
    16  C   -0.218683
    17  C   -0.171208
    18  C    0.158219
    19  C   -0.173277
    20  C   -0.218697
    21  H    0.226525
    22  H    0.224427
    23  H    0.276732
    24  H    0.274534
    25  H    0.224076
    26  N    0.489015
    27  O   -0.463048
    28  O   -0.455877
 Sum of Mulliken charges =  -0.00000

 Dipole moment (field-independent basis, Debye):
    X=             -7.1960    Y=              6.4360    Z=             -1.2859  Tot=              9.7395
 Quadrupole moment (field-independent basis, Debye-Ang):
   XX=            -92.2695   YY=           -106.1649   ZZ=            -98.2496
   XY=             11.3218   XZ=              2.2422   YZ=              3.2433

 Normal termination of Gaussian 16 at Thu May  6 21:14:27 2021.
