 Gaussian 16, Revision A.03,
 Gaussian 16:  EM64L-G16RevA.03 25-Dec-2016

 -------------
 #p 6-31g* mp2
 -------------

 ------------------------------------------------------
 Input file generated by CHIRIPA (05-May-2021 14:57:24)
 ------------------------------------------------------
 Symbolic Z-matrix:
 Charge =  0 Multiplicity = 1

                         Standard orientation:
 ---------------------------------------------------------------------
 Center     Atomic      Atomic             Coordinates (Angstroms)
 Number     Number       Type             X           Y           Z
 ---------------------------------------------------------------------
      1          6           0        5.958641   -0.389738    0.301575
      2          6           0        5.078545   -1.365853    0.780272
      3          6           0        3.697306   -1.212756    0.627668
      4          6           0        3.228530   -0.065969   -0.011409
      5          6           0        4.079917    0.924257   -0.499141
      6          6           0        5.457402    0.750192   -0.335480
      7          1           0        7.030163   -0.516811    0.424416
      8          1           0        5.464982   -2.252159    1.275421
      9          1           0        2.993486   -1.952815    0.988735
     10          1           0        3.664855    1.797006   -0.988478
     11          1           0        6.138540    1.509893   -0.708241
     12          7           0        1.768262    0.107206   -0.178817
     13          8           0        1.380465    1.126616   -0.745434
     14          8           0        1.039150   -0.779747    0.259756
     15          6           0       -2.723042    2.475917    0.355411
     16          6           0       -3.631872    1.881472    1.236992
     17          6           0       -4.052262    0.562627    1.040855
     18          6           0       -3.541336   -0.135715   -0.052106
     19          6           0       -2.634719    0.428814   -0.948009
     20          6           0       -2.228239    1.748971   -0.732358
     21          1           0       -2.401876    3.500937    0.515354
     22          1           0       -4.017804    2.443629    2.082617
     23          1           0       -4.754854    0.077960    1.707848
     24          1           0       -2.267488   -0.156843   -1.782015
     25          1           0       -1.522325    2.208060   -1.418630
     26          7           0       -3.979021   -1.532612   -0.270076
     27          8           0       -3.514133   -2.126516   -1.240537
     28          8           0       -4.778679   -2.007145    0.533667
 ---------------------------------------------------------------------

 SCF Done:  E(RHF) =  -868.339332114     A.U. after   16 cycles
 E2 =    -0.2599170222D+01 EUMP2 =    -0.87093850233618D+03

 The electronic state is 1-A.
 Alpha  occ. eigenvalues --  -20.61362 -20.61300 -20.59565 -20.59545 -15.86364
 Alpha  occ. eigenvalues --  -15.84600 -11.31561 -11.29729 -11.28135 -11.28078
 Alpha  occ. eigenvalues --  -11.27820 -11.27100 -11.27063 -11.26341 -11.26169
 Alpha  occ. eigenvalues --  -11.26008 -11.25381 -11.25107  -1.60393  -1.58632
 Alpha  occ. eigenvalues --   -1.39952  -1.38194  -1.19717  -1.17873  -1.09144
 Alpha  occ. eigenvalues --   -1.07334  -1.05094  -1.03231  -0.96007  -0.94211
 Alpha  occ. eigenvalues --   -0.86500  -0.84663  -0.82847  -0.81043  -0.77911
 Alpha  occ. eigenvalues --   -0.76107  -0.72597  -0.71699  -0.70839  -0.70822
 Alpha  occ. eigenvalues --   -0.69939  -0.69045  -0.65374  -0.65095  -0.63543
 Alpha  occ. eigenvalues --   -0.63253  -0.62442  -0.60598  -0.55602  -0.53819
 Alpha  occ. eigenvalues --   -0.53433  -0.53183  -0.51601  -0.51349  -0.49344
 Alpha  occ. eigenvalues --   -0.49302  -0.47596  -0.47568  -0.45394  -0.43653
 Alpha  occ. eigenvalues --   -0.37688  -0.36690  -0.35870  -0.34759
 Alpha virt. eigenvalues --    0.04613   0.06409   0.10967   0.12855   0.16144
 Alpha virt. eigenvalues --    0.17952   0.21125   0.22828   0.27045   0.27984
 Alpha virt. eigenvalues --    0.28811   0.29626   0.30704   0.32162   0.32376

 Mulliken charges:
               1
     1  C   -0.170171
     2  C   -0.218572
     3  C   -0.170251
     4  C    0.157981
     5  C   -0.170991
     6  C   -0.218524
     7  H    0.226962
     8  H    0.225499
     9  H    0.278286
    10  H    0.273291
    11  H    0.223893
    12  N    0.489720
    13  O   -0.470974
    14  O   -0.454166
    15  C   -0.173451
    16  C   -0.219034
    17  C   -0.173451
    18  C    0.158099
    19  C   -0.161434
    20  C   -0.205363
    21  H    0.220063
    22  H    0.216776
    23  H    0.270065
    24  H    0.274700
    25  H    0.230215
    26  N    0.488627
    27  O   -0.461612
    28  O   -0.466185
 Sum of Mulliken charges =  -0.00000

 Dipole moment (field-independent basis, Debye):
    X=              7.1764    Y=              4.2155    Z=              1.2624  Tot=              8.4182
 Quadrupole moment (field-independent basis, Debye-Ang):
   XX=            -82.9286   YY=           -103.4045   ZZ=           -101.6666
   XY=            -19.6687   XZ=             -3.4310   YZ=             -2.7569

 Normal termination of Gaussian 16 at Wed May  5 21:04:40 2021.
