 Gaussian 16, Revision A.03,
 Gaussian 16:  EM64L-G16RevA.03 25-Dec-2016

 -------------
 #p 6-31g* mp2
 -------------

 ------------------------------------------------------
 Input file generated by CHIRIPA (05-May-2021 14:57:25)
 ------------------------------------------------------
 Symbolic Z-matrix:
 Charge =  0 Multiplicity = 1

                         Standard orientation:
 ---------------------------------------------------------------------
 Center     Atomic      Atomic             Coordinates (Angstroms)
 Number     Number       Type             X           Y           Z
 ---------------------------------------------------------------------
      1          6           0       -2.001097   -0.062370    1.060580
      2          6           0       -2.742676    1.117769    0.942880
      3          6           0       -4.034146    1.094423    0.407988
      4          6           0       -4.555375   -0.132070   -0.001067
      5          6           0       -3.841467   -1.324859    0.103244
      6          6           0       -2.551888   -1.277775    0.641126
      7          1           0       -0.998587   -0.035014    1.477258
      8          1           0       -2.317471    2.063107    1.267815
      9          1           0       -4.630263    1.993058    0.305436
     10          1           0       -4.292170   -2.252059   -0.229299
     11          1           0       -1.978276   -2.195857    0.731335
     12          7           0       -5.921595   -0.169350   -0.568916
     13          8           0       -6.358141   -1.262690   -0.922006
     14          8           0       -6.530023    0.895475   -0.650153
     15          6           0        2.836473    2.158155   -0.023752
     16          6           0        2.341144    0.911586    0.372781
     17          6           0        3.159784   -0.221207    0.338795
     18          6           0        4.474614   -0.070543   -0.099169
     19          6           0        4.997310    1.157821   -0.500666
     20          6           0        4.160640    2.277084   -0.458444
     21          1           0        2.193530    3.032881    0.005848
     22          1           0        1.313192    0.816250    0.710818
     23          1           0        2.802072   -1.198278    0.640112
     24          1           0        6.026382    1.221504   -0.832891
     25          1           0        4.548019    3.243925   -0.766990
     26          7           0        5.350815   -1.262619   -0.139508
     27          8           0        6.505503   -1.103413   -0.529364
     28          8           0        4.866303   -2.333601    0.219493
 ---------------------------------------------------------------------

 SCF Done:  E(RHF) =  -868.336457402     A.U. after   16 cycles
 E2 =    -0.2599586658D+01 EUMP2 =    -0.87093604406011D+03

 The electronic state is 1-A.
 Alpha  occ. eigenvalues --  -20.61336 -20.61324 -20.61229 -20.61222 -15.86393
 Alpha  occ. eigenvalues --  -15.86285 -11.31867 -11.31799 -11.28523 -11.28418
 Alpha  occ. eigenvalues --  -11.28383 -11.28341 -11.28279 -11.28245 -11.27623
 Alpha  occ. eigenvalues --  -11.27510 -11.27440 -11.27433  -1.60406  -1.60300
 Alpha  occ. eigenvalues --   -1.39957  -1.39849  -1.20063  -1.19993  -1.09439
 Alpha  occ. eigenvalues --   -1.09390  -1.05499  -1.05407  -0.96250  -0.96197
 Alpha  occ. eigenvalues --   -0.86895  -0.86815  -0.83105  -0.83004  -0.78124
 Alpha  occ. eigenvalues --   -0.78009  -0.72609  -0.72503  -0.71730  -0.71623
 Alpha  occ. eigenvalues --   -0.71206  -0.71162  -0.65725  -0.65660  -0.65563
 Alpha  occ. eigenvalues --   -0.65396  -0.62862  -0.62742  -0.56112  -0.55911
 Alpha  occ. eigenvalues --   -0.53800  -0.53751  -0.53574  -0.53511  -0.49377
 Alpha  occ. eigenvalues --   -0.49356  -0.49274  -0.49247  -0.45338  -0.45221
 Alpha  occ. eigenvalues --   -0.38048  -0.38015  -0.37096  -0.36994
 Alpha virt. eigenvalues --    0.04440   0.04491   0.10557   0.10642   0.15789
 Alpha virt. eigenvalues --    0.15915   0.17981   0.21899   0.24644   0.26539
 Alpha virt. eigenvalues --    0.27670   0.28744   0.29708   0.31558   0.31969

 Mulliken charges:
               1
     1  C   -0.174944
     2  C   -0.218791
     3  C   -0.170234
     4  C    0.159702
     5  C   -0.169933
     6  C   -0.217798
     7  H    0.220285
     8  H    0.220318
     9  H    0.277059
    10  H    0.278505
    11  H    0.226389
    12  N    0.487880
    13  O   -0.458045
    14  O   -0.459238
    15  C   -0.170913
    16  C   -0.219251
    17  C   -0.171101
    18  C    0.159178
    19  C   -0.169683
    20  C   -0.218064
    21  H    0.225844
    22  H    0.215909
    23  H    0.273149
    24  H    0.278020
    25  H    0.226042
    26  N    0.488189
    27  O   -0.458019
    28  O   -0.460455
 Sum of Mulliken charges =  -0.00000

 Dipole moment (field-independent basis, Debye):
    X=              1.7132    Y=              4.3073    Z=              2.0254  Tot=              5.0587
 Quadrupole moment (field-independent basis, Debye-Ang):
   XX=           -172.4014   YY=            -99.0536   ZZ=           -105.8909
   XY=             20.2793   XZ=             -9.8598   YZ=             -1.1972

 Normal termination of Gaussian 16 at Wed May  5 16:27:13 2021.
