 Gaussian 16, Revision A.03,
 Gaussian 16:  EM64L-G16RevA.03 25-Dec-2016

 -------------
 #p 6-31g* mp2
 -------------

 ------------------------------------------------------
 Input file generated by CHIRIPA (05-May-2021 14:55:19)
 ------------------------------------------------------
 Symbolic Z-matrix:
 Charge =  0 Multiplicity = 1

                         Standard orientation:
 ---------------------------------------------------------------------
 Center     Atomic      Atomic             Coordinates (Angstroms)
 Number     Number       Type             X           Y           Z
 ---------------------------------------------------------------------
      1          6           0       -5.340622   -1.793520   -0.044495
      2          6           0       -3.967744   -2.055785   -0.098751
      3          6           0       -3.045480   -1.005947   -0.141373
      4          6           0       -3.533183    0.299910   -0.128204
      5          6           0       -4.894885    0.593476   -0.074557
      6          6           0       -5.799003   -0.472056   -0.032592
      7          1           0       -6.050011   -2.615155   -0.011640
      8          1           0       -3.608892   -3.081057   -0.108116
      9          1           0       -1.977234   -1.180515   -0.183739
     10          1           0       -5.222388    1.625995   -0.066498
     11          1           0       -6.864631   -0.265393    0.009507
     12          7           0       -2.566429    1.419634   -0.172978
     13          8           0       -3.021609    2.561250   -0.160299
     14          8           0       -1.371813    1.134455   -0.219903
     15          6           0        4.131472    0.201615    0.482482
     16          6           0        2.827300   -0.588684    0.370473
     17          6           0        1.646220    0.123004    1.031036
     18          1           0        4.355242    0.379148    1.543309
     19          1           0        3.993832    1.189940    0.022414
     20          1           0        2.967779   -1.575740    0.829386
     21          1           0        2.606709   -0.764522   -0.690204
     22          1           0        1.477617    1.100631    0.567981
     23          1           0        1.840738    0.284804    2.096206
     24          1           0        0.724165   -0.459440    0.939194
     25          6           0        5.321369   -0.496952   -0.173171
     26          6           0        6.625542    0.293347   -0.061162
     27          6           0        7.806622   -0.418341   -0.721725
     28          1           0        5.459009   -1.485277    0.286897
     29          1           0        5.097600   -0.674485   -1.233998
     30          1           0        6.846132    0.469186    0.999515
     31          1           0        6.485063    1.280403   -0.520075
     32          1           0        7.612104   -0.580141   -1.786895
     33          1           0        7.975225   -1.395967   -0.258670
     34          1           0        8.728676    0.164103   -0.629883
 ---------------------------------------------------------------------

 SCF Done:  E(RHF) =  -669.535381737     A.U. after   15 cycles
 E2 =    -0.2091264624D+01 EUMP2 =    -0.67162664636122D+03

 The electronic state is 1-A.
 Alpha  occ. eigenvalues --  -20.60845 -20.60835 -15.85878 -11.31244 -11.27816
 Alpha  occ. eigenvalues --  -11.27808 -11.27553 -11.26828 -11.26818 -11.21171
 Alpha  occ. eigenvalues --  -11.20880 -11.20811 -11.20728 -11.20700 -11.19834
 Alpha  occ. eigenvalues --   -1.59913  -1.39468  -1.19416  -1.08813  -1.07824
 Alpha  occ. eigenvalues --   -1.04818  -1.02862  -0.95661  -0.95271  -0.86292
 Alpha  occ. eigenvalues --   -0.86216  -0.82483  -0.78946  -0.77648  -0.77508
 Alpha  occ. eigenvalues --   -0.72112  -0.71229  -0.70526  -0.65074  -0.64823
 Alpha  occ. eigenvalues --   -0.64456  -0.62170  -0.60250  -0.58692  -0.56910
 Alpha  occ. eigenvalues --   -0.55321  -0.54549  -0.53147  -0.52915  -0.51961
 Alpha  occ. eigenvalues --   -0.51711  -0.49243  -0.48859  -0.48818  -0.47238
 Alpha  occ. eigenvalues --   -0.45980  -0.45168  -0.45094  -0.44857  -0.43095
 Alpha  occ. eigenvalues --   -0.37395  -0.36421
 Alpha virt. eigenvalues --    0.04992   0.11226   0.16483   0.20973   0.23394
 Alpha virt. eigenvalues --    0.24371   0.26534   0.27233   0.27669   0.28105
 Alpha virt. eigenvalues --    0.29225   0.30291   0.31563   0.32104   0.32374

 Mulliken charges:
               1
     1  C   -0.170548
     2  C   -0.219233
     3  C   -0.171896
     4  C    0.157410
     5  C   -0.170517
     6  C   -0.218649
     7  H    0.225808
     8  H    0.223869
     9  H    0.277975
    10  H    0.275760
    11  H    0.223637
    12  N    0.492003
    13  O   -0.460141
    14  O   -0.462656
    15  C   -0.298071
    16  C   -0.300990
    17  C   -0.472373
    18  H    0.148183
    19  H    0.152035
    20  H    0.144805
    21  H    0.150244
    22  H    0.173215
    23  H    0.147598
    24  H    0.157109
    25  C   -0.297598
    26  C   -0.299312
    27  C   -0.475349
    28  H    0.147195
    29  H    0.148778
    30  H    0.151293
    31  H    0.152570
    32  H    0.154623
    33  H    0.153960
    34  H    0.159262
 Sum of Mulliken charges =  -0.00000

 Dipole moment (field-independent basis, Debye):
    X=             -3.6305    Y=             -3.8080    Z=              0.1155  Tot=              5.2626
 Quadrupole moment (field-independent basis, Debye-Ang):
   XX=            -69.7509   YY=            -95.2853   ZZ=            -95.3007
   XY=             10.9305   XZ=              0.2404   YZ=              0.1262

 Normal termination of Gaussian 16 at Thu May  6 02:54:21 2021.
