 Gaussian 16, Revision A.03,
 Gaussian 16:  EM64L-G16RevA.03 25-Dec-2016

 -------------
 #p 6-31g* mp2
 -------------

 ------------------------------------------------------
 Input file generated by CHIRIPA (05-May-2021 14:57:26)
 ------------------------------------------------------
 Symbolic Z-matrix:
 Charge =  0 Multiplicity = 1

                         Standard orientation:
 ---------------------------------------------------------------------
 Center     Atomic      Atomic             Coordinates (Angstroms)
 Number     Number       Type             X           Y           Z
 ---------------------------------------------------------------------
      1          6           0       -1.041379   -1.598328   -0.098452
      2          6           0       -2.015960   -1.654751   -1.100214
      3          6           0       -3.158922   -0.853191   -1.024795
      4          6           0       -3.295663   -0.002813    0.071311
      5          6           0       -2.342331    0.076044    1.085327
      6          6           0       -1.207382   -0.734634    0.989204
      7          1           0       -0.156610   -2.224541   -0.165081
      8          1           0       -1.889690   -2.324569   -1.946053
      9          1           0       -3.929001   -0.876893   -1.786265
     10          1           0       -2.496127    0.753637    1.916371
     11          1           0       -0.452143   -0.688721    1.768660
     12          7           0       -4.501425    0.850589    0.162113
     13          8           0       -4.598319    1.591428    1.138026
     14          8           0       -5.326775    0.762487   -0.744349
     15          6           0        2.733600   -2.298760    0.462742
     16          6           0        2.521539   -1.819697   -0.834195
     17          6           0        2.719759   -0.468464   -1.133240
     18          6           0        3.132066    0.379569   -0.106529
     19          6           0        3.351691   -0.067521    1.195456
     20          6           0        3.147271   -1.422687    1.471651
     21          1           0        2.577210   -3.349957    0.686172
     22          1           0        2.200264   -2.497770   -1.619717
     23          1           0        2.562952   -0.070930   -2.128628
     24          1           0        3.671803    0.632605    1.957538
     25          1           0        3.312732   -1.791939    2.479778
     26          7           0        3.345195    1.812141   -0.411019
     27          8           0        3.708565    2.538837    0.511213
     28          8           0        3.144840    2.181168   -1.566144
 ---------------------------------------------------------------------

 SCF Done:  E(RHF) =  -868.336077747     A.U. after   16 cycles
 E2 =    -0.2602416906D+01 EUMP2 =    -0.87093849465352D+03

 The electronic state is 1-A.
 Alpha  occ. eigenvalues --  -20.61524 -20.61516 -20.60784 -20.60777 -15.86587
 Alpha  occ. eigenvalues --  -15.85841 -11.32249 -11.31257 -11.28846 -11.28839
 Alpha  occ. eigenvalues --  -11.28691 -11.27962 -11.27939 -11.27870 -11.27838
 Alpha  occ. eigenvalues --  -11.27543 -11.26908 -11.26841  -1.60591  -1.59858
 Alpha  occ. eigenvalues --   -1.40136  -1.39410  -1.20478  -1.19448  -1.09836
 Alpha  occ. eigenvalues --   -1.08833  -1.05912  -1.04867  -0.96598  -0.95660
 Alpha  occ. eigenvalues --   -0.87302  -0.86265  -0.83412  -0.82498  -0.78396
 Alpha  occ. eigenvalues --   -0.77530  -0.72800  -0.72059  -0.71918  -0.71568
 Alpha  occ. eigenvalues --   -0.71181  -0.70612  -0.66116  -0.65906  -0.65103
 Alpha  occ. eigenvalues --   -0.64896  -0.63222  -0.62221  -0.56412  -0.55645
 Alpha  occ. eigenvalues --   -0.54049  -0.53975  -0.53146  -0.52956  -0.49581
 Alpha  occ. eigenvalues --   -0.49535  -0.48824  -0.48809  -0.45475  -0.44805
 Alpha  occ. eigenvalues --   -0.38488  -0.37803  -0.37110  -0.36479
 Alpha virt. eigenvalues --    0.04070   0.05042   0.09992   0.11163   0.15410
 Alpha virt. eigenvalues --    0.16567   0.19784   0.21741   0.25772   0.26914
 Alpha virt. eigenvalues --    0.27231   0.29024   0.29939   0.31010   0.32229

 Mulliken charges:
               1
     1  C   -0.168431
     2  C   -0.221611
     3  C   -0.169629
     4  C    0.158558
     5  C   -0.169666
     6  C   -0.222006
     7  H    0.222365
     8  H    0.219241
     9  H    0.275757
    10  H    0.276538
    11  H    0.222056
    12  N    0.488166
    13  O   -0.459487
    14  O   -0.460376
    15  C   -0.179481
    16  C   -0.226941
    17  C   -0.165232
    18  C    0.160317
    19  C   -0.171959
    20  C   -0.221195
    21  H    0.227973
    22  H    0.223819
    23  H    0.279975
    24  H    0.279620
    25  H    0.227348
    26  N    0.488019
    27  O   -0.457421
    28  O   -0.456319
 Sum of Mulliken charges =  -0.00000

 Dipole moment (field-independent basis, Debye):
    X=              3.7642    Y=             -7.8010    Z=              0.7486  Tot=              8.6940
 Quadrupole moment (field-independent basis, Debye-Ang):
   XX=           -137.2461   YY=           -109.2785   ZZ=            -96.9262
   XY=             -5.1423   XZ=              7.8609   YZ=              3.4546

 Normal termination of Gaussian 16 at Fri May  7 03:33:49 2021.
