 Gaussian 16, Revision A.03,
 Gaussian 16:  EM64L-G16RevA.03 25-Dec-2016

 -------------
 #p 6-31g* mp2
 -------------

 ------------------------------------------------------
 Input file generated by CHIRIPA (05-May-2021 14:57:23)
 ------------------------------------------------------
 Symbolic Z-matrix:
 Charge =  0 Multiplicity = 1

                         Standard orientation:
 ---------------------------------------------------------------------
 Center     Atomic      Atomic             Coordinates (Angstroms)
 Number     Number       Type             X           Y           Z
 ---------------------------------------------------------------------
      1          6           0        2.273096   -2.429131    0.940056
      2          6           0        3.185857   -1.600050    1.600368
      3          6           0        3.457122   -0.316340    1.117614
      4          6           0        2.794684    0.107988   -0.033217
      5          6           0        1.880029   -0.694524   -0.713416
      6          6           0        1.624239   -1.974524   -0.212697
      7          1           0        2.068382   -3.424907    1.322048
      8          1           0        3.691245   -1.950458    2.495824
      9          1           0        4.159120    0.346263    1.609117
     10          1           0        1.391793   -0.317338   -1.603795
     11          1           0        0.914891   -2.616224   -0.727568
     12          7           0        3.073669    1.465031   -0.553797
     13          8           0        2.476924    1.815325   -1.569585
     14          8           0        3.883799    2.152691    0.063819
     15          6           0       -3.020991    2.379986    1.026609
     16          6           0       -3.663942    1.263305    1.570812
     17          6           0       -3.520192    0.003840    0.981209
     18          6           0       -2.722380   -0.103237   -0.156912
     19          6           0       -2.068965    0.990464   -0.722736
     20          6           0       -2.226955    2.240249   -0.116413
     21          1           0       -3.138192    3.354608    1.491121
     22          1           0       -4.281221    1.368853    2.458433
     23          1           0       -4.006623   -0.877314    1.381672
     24          1           0       -1.460153    0.853917   -1.608242
     25          1           0       -1.726445    3.105732   -0.541234
     26          7           0       -2.562660   -1.431452   -0.789949
     27          8           0       -1.854280   -1.499336   -1.792061
     28          8           0       -3.148875   -2.379472   -0.272025
 ---------------------------------------------------------------------

 SCF Done:  E(RHF) =  -868.341091540     A.U. after   16 cycles
 E2 =    -0.2599357374D+01 EUMP2 =    -0.87094044891319D+03

 The electronic state is 1-A.
 Alpha  occ. eigenvalues --  -20.61443 -20.61403 -20.60789 -20.60763 -15.86437
 Alpha  occ. eigenvalues --  -15.85817 -11.31433 -11.30919 -11.27973 -11.27917
 Alpha  occ. eigenvalues --  -11.27608 -11.27480 -11.27362 -11.27090 -11.26916
 Alpha  occ. eigenvalues --  -11.26805 -11.26458 -11.26204  -1.60487  -1.59857
 Alpha  occ. eigenvalues --   -1.40052  -1.39419  -1.19564  -1.19048  -1.09027
 Alpha  occ. eigenvalues --   -1.08491  -1.04901  -1.04382  -0.95925  -0.95373
 Alpha  occ. eigenvalues --   -0.86322  -0.85797  -0.82769  -0.82194  -0.77863
 Alpha  occ. eigenvalues --   -0.77276  -0.72667  -0.72043  -0.71790  -0.71177
 Alpha  occ. eigenvalues --   -0.70669  -0.70145  -0.65215  -0.64892  -0.64681
 Alpha  occ. eigenvalues --   -0.64338  -0.62257  -0.61700  -0.55418  -0.54894
 Alpha  occ. eigenvalues --   -0.53268  -0.52984  -0.52760  -0.52426  -0.49442
 Alpha  occ. eigenvalues --   -0.49386  -0.48812  -0.48769  -0.45531  -0.44884
 Alpha  occ. eigenvalues --   -0.37528  -0.37033  -0.36501  -0.35963
 Alpha virt. eigenvalues --    0.04583   0.05197   0.11080   0.11712   0.16166
 Alpha virt. eigenvalues --    0.16770   0.20862   0.22113   0.25966   0.27652
 Alpha virt. eigenvalues --    0.28354   0.29267   0.31065   0.31382   0.31834

 Mulliken charges:
               1
     1  C   -0.171396
     2  C   -0.218735
     3  C   -0.172732
     4  C    0.158476
     5  C   -0.176093
     6  C   -0.225700
     7  H    0.227302
     8  H    0.221800
     9  H    0.273101
    10  H    0.277415
    11  H    0.242878
    12  N    0.488128
    13  O   -0.465957
    14  O   -0.461365
    15  C   -0.170027
    16  C   -0.218651
    17  C   -0.171469
    18  C    0.158192
    19  C   -0.172274
    20  C   -0.218926
    21  H    0.228069
    22  H    0.223801
    23  H    0.274191
    24  H    0.277230
    25  H    0.232465
    26  N    0.488425
    27  O   -0.469150
    28  O   -0.458999
 Sum of Mulliken charges =  -0.00000

 Dipole moment (field-independent basis, Debye):
    X=             -1.7476    Y=             -0.0938    Z=              4.0874  Tot=              4.4463
 Quadrupole moment (field-independent basis, Debye-Ang):
   XX=           -104.7875   YY=           -106.3548   ZZ=           -101.2821
   XY=            -25.0353   XZ=             -0.6614   YZ=             -1.4656

 Normal termination of Gaussian 16 at Fri May  7 09:28:19 2021.
