 Gaussian 16, Revision A.03,
 Gaussian 16:  EM64L-G16RevA.03 25-Dec-2016

 -------------
 #p 6-31g* mp2
 -------------

 ------------------------------------------------------
 Input file generated by CHIRIPA (05-May-2021 14:51:12)
 ------------------------------------------------------
 Symbolic Z-matrix:
 Charge =  0 Multiplicity = 1

                         Standard orientation:
 ---------------------------------------------------------------------
 Center     Atomic      Atomic             Coordinates (Angstroms)
 Number     Number       Type             X           Y           Z
 ---------------------------------------------------------------------
      1          6           0        2.458388    1.049645    0.115733
      2          6           0        2.669435    2.538575   -0.160911
      3          6           0        1.445009    3.384410    0.190000
      4          1           0        1.590313    0.696169   -0.457369
      5          1           0        2.208993    0.912780    1.177084
      6          1           0        2.919716    2.672453   -1.221124
      7          1           0        3.537224    2.888503    0.412769
      8          1           0        1.196220    3.280432    1.251081
      9          1           0        0.575203    3.063154   -0.392095
     10          1           0        1.617724    4.445432   -0.015575
     11          6           0        3.673672    0.191007   -0.230030
     12          6           0        3.462625   -1.297923    0.046615
     13          6           0        4.687051   -2.143757   -0.304296
     14          1           0        3.923067    0.327872   -1.291380
     15          1           0        4.541747    0.544483    0.343073
     16          1           0        2.594836   -1.647851   -0.527065
     17          1           0        3.212344   -1.431801    1.106828
     18          1           0        5.556857   -1.822501    0.277799
     19          1           0        4.935840   -2.039779   -1.365378
     20          1           0        4.514336   -3.204779   -0.098721
     21          6           0       -2.510536   -1.087086   -0.181585
     22          6           0       -1.280756   -1.080529    0.727033
     23          6           0       -0.178140   -2.019240    0.236265
     24          1           0       -2.902439   -2.111125   -0.250140
     25          1           0       -2.208296   -0.799374   -1.198083
     26          1           0       -1.585464   -1.366825    1.741825
     27          1           0       -0.891848   -0.056352    0.793585
     28          1           0        0.154053   -1.732184   -0.766655
     29          1           0       -0.543504   -3.050104    0.186972
     30          1           0        0.691501   -1.998918    0.900471
     31          6           0       -3.621525   -0.153566    0.295881
     32          6           0       -4.851304   -0.160125   -0.612736
     33          6           0       -5.953919    0.778587   -0.121969
     34          1           0       -3.923765   -0.441279    1.312379
     35          1           0       -3.229621    0.870472    0.364436
     36          1           0       -5.240211   -1.184301   -0.679289
     37          1           0       -4.546597    0.126173   -1.627529
     38          1           0       -5.588556    1.809451   -0.072676
     39          1           0       -6.286113    0.491533    0.880952
     40          1           0       -6.823562    0.758266   -0.786176
 ---------------------------------------------------------------------

 SCF Done:  E(RHF) =  -470.731566825     A.U. after   11 cycles
 E2 =    -0.1584441936D+01 EUMP2 =    -0.47231600876086D+03

 The electronic state is 1-A.
 Alpha  occ. eigenvalues --  -11.21620 -11.21584 -11.21525 -11.21468 -11.21393
 Alpha  occ. eigenvalues --  -11.21375 -11.21328 -11.21316 -11.21115 -11.21055
 Alpha  occ. eigenvalues --  -11.21008 -11.20942  -1.08450  -1.08369  -1.03543
 Alpha  occ. eigenvalues --   -1.03464  -0.95971  -0.95948  -0.87051  -0.86917
 Alpha  occ. eigenvalues --   -0.79753  -0.79417  -0.78241  -0.78202  -0.65159
 Alpha  occ. eigenvalues --   -0.64941  -0.60972  -0.60848  -0.59523  -0.59159
 Alpha  occ. eigenvalues --   -0.57582  -0.57552  -0.55295  -0.55224  -0.52843
 Alpha  occ. eigenvalues --   -0.52570  -0.52381  -0.52312  -0.49987  -0.49865
 Alpha  occ. eigenvalues --   -0.48013  -0.47773  -0.46747  -0.46456  -0.45863
 Alpha  occ. eigenvalues --   -0.45760  -0.45624  -0.45490  -0.43791  -0.43618
 Alpha virt. eigenvalues --    0.21050   0.23187   0.23909   0.24108   0.25354
 Alpha virt. eigenvalues --    0.26337   0.27086   0.27484   0.28228   0.30016
 Alpha virt. eigenvalues --    0.30435   0.30845   0.31587   0.32105   0.32271

 Mulliken charges:
               1
     1  C   -0.302049
     2  C   -0.299543
     3  C   -0.476022
     4  H    0.153733
     5  H    0.149573
     6  H    0.151824
     7  H    0.152167
     8  H    0.155398
     9  H    0.154371
    10  H    0.160593
    11  C   -0.297767
    12  C   -0.305801
    13  C   -0.475079
    14  H    0.148919
    15  H    0.149166
    16  H    0.162116
    17  H    0.150035
    18  H    0.154452
    19  H    0.154670
    20  H    0.160066
    21  C   -0.298358
    22  C   -0.302779
    23  C   -0.479302
    24  H    0.149529
    25  H    0.148668
    26  H    0.151416
    27  H    0.154855
    28  H    0.153036
    29  H    0.153891
    30  H    0.168371
    31  C   -0.298271
    32  C   -0.299565
    33  C   -0.475695
    34  H    0.149499
    35  H    0.149751
    36  H    0.151873
    37  H    0.151697
    38  H    0.155247
    39  H    0.155163
    40  H    0.160151
 Sum of Mulliken charges =  -0.00000

 Dipole moment (field-independent basis, Debye):
    X=              0.0140    Y=             -0.0071    Z=              0.0069  Tot=              0.0171
 Quadrupole moment (field-independent basis, Debye-Ang):
   XX=            -86.2137   YY=            -85.1685   ZZ=            -83.6646
   XY=              1.4942   XZ=              0.4558   YZ=             -0.6089

 Normal termination of Gaussian 16 at Thu May  6 05:29:19 2021.
