 Gaussian 16, Revision A.03,
 Gaussian 16:  EM64L-G16RevA.03 25-Dec-2016

 -------------
 #p 6-31g* mp2
 -------------

 ------------------------------------------------------
 Input file generated by CHIRIPA (05-May-2021 14:57:23)
 ------------------------------------------------------
 Symbolic Z-matrix:
 Charge =  0 Multiplicity = 1

                         Standard orientation:
 ---------------------------------------------------------------------
 Center     Atomic      Atomic             Coordinates (Angstroms)
 Number     Number       Type             X           Y           Z
 ---------------------------------------------------------------------
      1          6           0       -1.787615    2.029261   -0.776305
      2          6           0       -3.113327    2.141633   -0.344586
      3          6           0       -3.853053    1.000927   -0.018791
      4          6           0       -3.232892   -0.241962   -0.136767
      5          6           0       -1.913859   -0.386587   -0.563996
      6          6           0       -1.193160    0.767734   -0.884442
      7          1           0       -1.220369    2.920677   -1.027313
      8          1           0       -3.577568    3.120057   -0.259660
      9          1           0       -4.880969    1.059098    0.317993
     10          1           0       -1.478262   -1.375574   -0.638678
     11          1           0       -0.163762    0.677443   -1.219452
     12          7           0       -4.005936   -1.456783    0.205306
     13          8           0       -3.436625   -2.540249    0.092946
     14          8           0       -5.166520   -1.302491    0.579306
     15          6           0        4.221723   -2.067073   -0.627114
     16          6           0        4.067259   -0.976148   -1.488825
     17          6           0        3.450307    0.197329   -1.045125
     18          6           0        2.997571    0.245617    0.272445
     19          6           0        3.136782   -0.824410    1.155026
     20          6           0        3.756811   -1.987862    0.689740
     21          1           0        4.702181   -2.974764   -0.980176
     22          1           0        4.427348   -1.034831   -2.512024
     23          1           0        3.317769    1.056788   -1.691020
     24          1           0        2.767627   -0.736059    2.169589
     25          1           0        3.875411   -2.833527    1.361178
     26          7           0        2.342804    1.482618    0.753596
     27          8           0        1.952557    1.499957    1.918947
     28          8           0        2.232242    2.411419   -0.043739
 ---------------------------------------------------------------------

 SCF Done:  E(RHF) =  -868.339516056     A.U. after   16 cycles
 E2 =    -0.2599626224D+01 EUMP2 =    -0.87093914227966D+03

 The electronic state is 1-A.
 Alpha  occ. eigenvalues --  -20.61741 -20.61658 -20.60384 -20.60372 -15.86723
 Alpha  occ. eigenvalues --  -15.85431 -11.31952 -11.30618 -11.28518 -11.28427
 Alpha  occ. eigenvalues --  -11.28140 -11.27455 -11.27395 -11.27216 -11.27187
 Alpha  occ. eigenvalues --  -11.26768 -11.26116 -11.26097  -1.60766  -1.59460
 Alpha  occ. eigenvalues --   -1.40324  -1.39020  -1.20092  -1.18770  -1.09504
 Alpha  occ. eigenvalues --   -1.08163  -1.05454  -1.04168  -0.96364  -0.95034
 Alpha  occ. eigenvalues --   -0.86856  -0.85556  -0.83191  -0.81894  -0.78271
 Alpha  occ. eigenvalues --   -0.76996  -0.72942  -0.72105  -0.71651  -0.71160
 Alpha  occ. eigenvalues --   -0.70781  -0.69803  -0.65729  -0.65429  -0.64414
 Alpha  occ. eigenvalues --   -0.64159  -0.62793  -0.61537  -0.55927  -0.54559
 Alpha  occ. eigenvalues --   -0.53808  -0.53523  -0.52477  -0.52260  -0.49716
 Alpha  occ. eigenvalues --   -0.49684  -0.48419  -0.48394  -0.45745  -0.44467
 Alpha  occ. eigenvalues --   -0.38052  -0.37056  -0.36671  -0.35781
 Alpha virt. eigenvalues --    0.04222   0.05569   0.10527   0.11873   0.15743
 Alpha virt. eigenvalues --    0.17115   0.20809   0.22018   0.26659   0.27286
 Alpha virt. eigenvalues --    0.27914   0.29051   0.30427   0.31313   0.32125

 Mulliken charges:
               1
     1  C   -0.165684
     2  C   -0.219075
     3  C   -0.170871
     4  C    0.157885
     5  C   -0.171482
     6  C   -0.221229
     7  H    0.236085
     8  H    0.223081
     9  H    0.273799
    10  H    0.270990
    11  H    0.220012
    12  N    0.488403
    13  O   -0.464156
    14  O   -0.461549
    15  C   -0.170079
    16  C   -0.218100
    17  C   -0.177327
    18  C    0.154648
    19  C   -0.170643
    20  C   -0.217991
    21  H    0.229292
    22  H    0.225798
    23  H    0.273980
    24  H    0.278828
    25  H    0.227961
    26  N    0.488577
    27  O   -0.452618
    28  O   -0.468534
 Sum of Mulliken charges =  -0.00000

 Dipole moment (field-independent basis, Debye):
    X=              5.3254    Y=             -0.0421    Z=             -2.7743  Tot=              6.0049
 Quadrupole moment (field-independent basis, Debye-Ang):
   XX=           -106.1757   YY=           -107.0880   ZZ=           -101.8332
   XY=            -30.5842   XZ=             -2.4951   YZ=             -3.3464

 Normal termination of Gaussian 16 at Wed May  5 16:19:57 2021.
