 Gaussian 16, Revision A.03,
 Gaussian 16:  EM64L-G16RevA.03 25-Dec-2016

 -------------
 #p 6-31g* mp2
 -------------

 ------------------------------------------------------
 Input file generated by CHIRIPA (05-May-2021 14:55:19)
 ------------------------------------------------------
 Symbolic Z-matrix:
 Charge =  0 Multiplicity = 1

                         Standard orientation:
 ---------------------------------------------------------------------
 Center     Atomic      Atomic             Coordinates (Angstroms)
 Number     Number       Type             X           Y           Z
 ---------------------------------------------------------------------
      1          6           0       -2.621766    2.087607   -0.908250
      2          6           0       -3.756573    1.478118   -0.363038
      3          6           0       -3.711698    0.147933    0.064914
      4          6           0       -2.510135   -0.546284   -0.067746
      5          6           0       -1.362552    0.033133   -0.606838
      6          6           0       -1.430478    1.364444   -1.028199
      7          1           0       -2.665580    3.121363   -1.238134
      8          1           0       -4.683099    2.037304   -0.268667
      9          1           0       -4.575274   -0.348471    0.490633
     10          1           0       -0.453225   -0.549911   -0.688093
     11          1           0       -0.547604    1.835207   -1.451238
     12          7           0       -2.450426   -1.955087    0.381818
     13          8           0       -1.379791   -2.545064    0.254122
     14          8           0       -3.475391   -2.442654    0.853371
     15          6           0        3.523737   -0.281450    0.346980
     16          6           0        4.224105   -0.941173   -0.841394
     17          6           0        4.815474   -2.307891   -0.494758
     18          1           0        4.240021   -0.173812    1.172992
     19          1           0        2.726780   -0.945725    0.708909
     20          1           0        5.018600   -0.275238   -1.201846
     21          1           0        3.506122   -1.047078   -1.664741
     22          1           0        4.031094   -2.992252   -0.155641
     23          1           0        5.552167   -2.216026    0.309883
     24          1           0        5.311350   -2.761545   -1.358567
     25          6           0        2.927400    1.085536    0.016131
     26          6           0        2.227031    1.745260    1.204505
     27          6           0        1.635663    3.111979    0.857868
     28          1           0        3.724358    1.749812   -0.345798
     29          1           0        2.211116    0.977898   -0.809881
     30          1           0        2.945016    1.851165    2.027851
     31          1           0        1.432536    1.079325    1.564957
     32          1           0        0.898971    3.020113    0.053228
     33          1           0        2.420043    3.796339    0.518753
     34          1           0        1.139787    3.565632    1.721678
 ---------------------------------------------------------------------

 SCF Done:  E(RHF) =  -669.535295089     A.U. after   15 cycles
 E2 =    -0.2092486338D+01 EUMP2 =    -0.67162778142734D+03

 The electronic state is 1-A.
 Alpha  occ. eigenvalues --  -20.60819 -20.60813 -15.85872 -11.31238 -11.27812
 Alpha  occ. eigenvalues --  -11.27803 -11.27541 -11.26817 -11.26805 -11.22062
 Alpha  occ. eigenvalues --  -11.21929 -11.21751 -11.21693 -11.21595 -11.21028
 Alpha  occ. eigenvalues --   -1.59893  -1.39447  -1.19412  -1.08815  -1.08781
 Alpha  occ. eigenvalues --   -1.04819  -1.03839  -0.96307  -0.95638  -0.87323
 Alpha  occ. eigenvalues --   -0.86213  -0.82475  -0.79921  -0.78582  -0.77523
 Alpha  occ. eigenvalues --   -0.72090  -0.71216  -0.70514  -0.65479  -0.65057
 Alpha  occ. eigenvalues --   -0.64835  -0.62212  -0.61179  -0.59679  -0.57904
 Alpha  occ. eigenvalues --   -0.55641  -0.55303  -0.53137  -0.52981  -0.52959
 Alpha  occ. eigenvalues --   -0.52655  -0.50236  -0.48850  -0.48845  -0.48220
 Alpha  occ. eigenvalues --   -0.46951  -0.46134  -0.46017  -0.44852  -0.44108
 Alpha  occ. eigenvalues --   -0.37377  -0.36397
 Alpha virt. eigenvalues --    0.04997   0.11136   0.16395   0.18792   0.22736
 Alpha virt. eigenvalues --    0.23901   0.25257   0.26127   0.27197   0.28569
 Alpha virt. eigenvalues --    0.29702   0.30654   0.31418   0.31809   0.32627

 Mulliken charges:
               1
     1  C   -0.171371
     2  C   -0.218497
     3  C   -0.170525
     4  C    0.158617
     5  C   -0.173716
     6  C   -0.218083
     7  H    0.226310
     8  H    0.223759
     9  H    0.275800
    10  H    0.276482
    11  H    0.226195
    12  N    0.488167
    13  O   -0.460987
    14  O   -0.460065
    15  C   -0.301611
    16  C   -0.299145
    17  C   -0.476980
    18  H    0.151999
    19  H    0.156241
    20  H    0.151086
    21  H    0.149928
    22  H    0.161060
    23  H    0.155201
    24  H    0.160660
    25  C   -0.298413
    26  C   -0.301926
    27  C   -0.475723
    28  H    0.151472
    29  H    0.137850
    30  H    0.155934
    31  H    0.155852
    32  H    0.145009
    33  H    0.156153
    34  H    0.163269
 Sum of Mulliken charges =  -0.00000

 Dipole moment (field-independent basis, Debye):
    X=             -0.1581    Y=              4.8868    Z=             -1.4739  Tot=              5.1067
 Quadrupole moment (field-independent basis, Debye-Ang):
   XX=            -88.0096   YY=           -101.5922   ZZ=            -94.8374
   XY=            -12.1676   XZ=              2.9975   YZ=              0.8786

 Normal termination of Gaussian 16 at Thu May  6 07:40:05 2021.
