 Gaussian 16, Revision A.03,
 Gaussian 16:  EM64L-G16RevA.03 25-Dec-2016

 -------------
 #p 6-31g* mp2
 -------------

 ------------------------------------------------------
 Input file generated by CHIRIPA (05-May-2021 14:53:14)
 ------------------------------------------------------
 Symbolic Z-matrix:
 Charge =  0 Multiplicity = 1

                         Standard orientation:
 ---------------------------------------------------------------------
 Center     Atomic      Atomic             Coordinates (Angstroms)
 Number     Number       Type             X           Y           Z
 ---------------------------------------------------------------------
      1          6           0       -4.143515    0.748912    0.496408
      2          6           0       -2.952591    1.468039   -0.138053
      3          6           0       -2.270139    2.442326    0.822582
      4          1           0       -4.871785    1.494776    0.843186
      5          1           0       -3.802329    0.206613    1.389100
      6          1           0       -3.295662    2.007694   -1.030068
      7          1           0       -2.227160    0.720370   -0.483533
      8          1           0       -1.900589    1.915016    1.708007
      9          1           0       -2.975162    3.209654    1.158366
     10          1           0       -1.421576    2.945387    0.348525
     11          6           0       -4.836176   -0.228475   -0.451571
     12          6           0       -6.027100   -0.947602    0.182890
     13          6           0       -6.709552   -1.921888   -0.777744
     14          1           0       -5.177363    0.313824   -1.344263
     15          1           0       -4.107906   -0.974339   -0.798349
     16          1           0       -6.752531   -0.199933    0.528371
     17          1           0       -5.684029   -1.487257    1.074906
     18          1           0       -6.004530   -2.689217   -1.113529
     19          1           0       -7.079103   -1.394579   -1.663169
     20          1           0       -7.558116   -2.424950   -0.303687
     21          6           0        1.007927    0.011311    0.249025
     22          6           0        1.700231   -0.997081    0.927538
     23          6           0        3.085302   -1.125395    0.787308
     24          6           0        3.749360   -0.224043   -0.043283
     25          6           0        3.087782    0.791115   -0.732526
     26          6           0        1.702687    0.900624   -0.577385
     27          1           0       -0.068038    0.103683    0.363751
     28          1           0        1.163275   -1.689149    1.570006
     29          1           0        3.646126   -1.896818    1.300921
     30          1           0        3.650479    1.466084   -1.365936
     31          1           0        1.167641    1.684723   -1.105550
     32          7           0        5.215685   -0.349928   -0.199631
     33          8           0        5.777561    0.456758   -0.937322
     34          8           0        5.775348   -1.252900    0.418475
 ---------------------------------------------------------------------

 SCF Done:  E(RHF) =  -669.535420462     A.U. after   15 cycles
 E2 =    -0.2091438097D+01 EUMP2 =    -0.67162685855831D+03

 The electronic state is 1-A.
 Alpha  occ. eigenvalues --  -20.60728 -20.60722 -15.85782 -11.31139 -11.27713
 Alpha  occ. eigenvalues --  -11.27708 -11.27409 -11.26721 -11.26709 -11.22880
 Alpha  occ. eigenvalues --  -11.22395 -11.22310 -11.22288 -11.22195 -11.21636
 Alpha  occ. eigenvalues --   -1.59804  -1.39357  -1.19311  -1.09389  -1.08703
 Alpha  occ. eigenvalues --   -1.04716  -1.04484  -0.96909  -0.95539  -0.87917
 Alpha  occ. eigenvalues --   -0.86111  -0.82379  -0.80563  -0.79153  -0.77426
 Alpha  occ. eigenvalues --   -0.71999  -0.71127  -0.70455  -0.66029  -0.64962
 Alpha  occ. eigenvalues --   -0.64724  -0.62073  -0.61892  -0.60303  -0.58508
 Alpha  occ. eigenvalues --   -0.56251  -0.55116  -0.53609  -0.53319  -0.53040
 Alpha  occ. eigenvalues --   -0.52803  -0.50852  -0.48864  -0.48755  -0.48749
 Alpha  occ. eigenvalues --   -0.47616  -0.46692  -0.46601  -0.44765  -0.44716
 Alpha  occ. eigenvalues --   -0.37280  -0.36323
 Alpha virt. eigenvalues --    0.05103   0.11316   0.16568   0.18770   0.22479
 Alpha virt. eigenvalues --    0.23918   0.25361   0.25820   0.26564   0.27423
 Alpha virt. eigenvalues --    0.29306   0.29528   0.30829   0.31370   0.32072

 Mulliken charges:
               1
     1  C   -0.298331
     2  C   -0.306589
     3  C   -0.479147
     4  H    0.154044
     5  H    0.148198
     6  H    0.157898
     7  H    0.143795
     8  H    0.154426
     9  H    0.163060
    10  H    0.158265
    11  C   -0.298830
    12  C   -0.300259
    13  C   -0.476204
    14  H    0.151786
    15  H    0.148565
    16  H    0.153624
    17  H    0.151947
    18  H    0.155554
    19  H    0.156418
    20  H    0.162360
    21  C   -0.177205
    22  C   -0.220401
    23  C   -0.170557
    24  C    0.158226
    25  C   -0.170842
    26  C   -0.222050
    27  H    0.237697
    28  H    0.223293
    29  H    0.275330
    30  H    0.275465
    31  H    0.223586
    32  N    0.488035
    33  O   -0.460566
    34  O   -0.460592
 Sum of Mulliken charges =  -0.00000

 Dipole moment (field-independent basis, Debye):
    X=             -5.4477    Y=              0.4991    Z=              0.5605  Tot=              5.4992
 Quadrupole moment (field-independent basis, Debye-Ang):
   XX=           -133.0135   YY=            -91.9162   ZZ=            -93.6250
   XY=              1.7305   XZ=              2.1352   YZ=             -3.6186

 Normal termination of Gaussian 16 at Thu May  6 15:25:47 2021.
