 Gaussian 16, Revision A.03,
 Gaussian 16:  EM64L-G16RevA.03 25-Dec-2016

 -------------
 #p 6-31g* mp2
 -------------

 ------------------------------------------------------
 Input file generated by CHIRIPA (05-May-2021 14:51:13)
 ------------------------------------------------------
 Symbolic Z-matrix:
 Charge =  0 Multiplicity = 1

                         Standard orientation:
 ---------------------------------------------------------------------
 Center     Atomic      Atomic             Coordinates (Angstroms)
 Number     Number       Type             X           Y           Z
 ---------------------------------------------------------------------
      1          6           0        3.052291   -0.299389    0.993546
      2          6           0        1.840182   -1.199372    0.751045
      3          6           0        1.266288   -1.779230    2.044183
      4          1           0        3.829250   -0.874332    1.515772
      5          1           0        2.763434    0.519317    1.667102
      6          1           0        2.130882   -2.015357    0.077044
      7          1           0        1.066093   -0.622273    0.229166
      8          1           0        0.949098   -0.977215    2.718544
      9          1           0        2.019937   -2.378214    2.565558
     10          1           0        0.400626   -2.419426    1.847616
     11          6           0        3.637234    0.287835   -0.289707
     12          6           0        4.849343    1.187818   -0.047207
     13          6           0        5.423237    1.767676   -1.340344
     14          1           0        3.926091   -0.530871   -0.963263
     15          1           0        2.860275    0.862778   -0.811933
     16          1           0        5.623433    0.610719    0.474673
     17          1           0        4.558643    2.003803    0.626795
     18          1           0        4.669588    2.366660   -1.861719
     19          1           0        5.740428    0.965661   -2.014705
     20          1           0        6.288900    2.407872   -1.143777
     21          6           0       -3.331579   -0.733964   -0.541767
     22          6           0       -1.954941   -1.218461   -0.997959
     23          6           0       -1.944618   -2.700353   -1.374370
     24          1           0       -3.658146   -1.334482    0.318277
     25          1           0       -4.060504   -0.914561   -1.343919
     26          1           0       -1.228559   -1.035739   -0.195714
     27          1           0       -1.631529   -0.616593   -1.856897
     28          1           0       -2.647600   -2.895376   -2.190693
     29          1           0       -2.242341   -3.316903   -0.520071
     30          1           0       -0.950801   -3.025574   -1.697509
     31          6           0       -3.357946    0.745518   -0.162072
     32          6           0       -4.734585    1.230015    0.294120
     33          6           0       -4.744906    2.711907    0.670531
     34          1           0       -2.629020    0.926114    0.640080
     35          1           0       -3.031379    1.346036   -1.022116
     36          1           0       -5.057996    0.628147    1.153059
     37          1           0       -5.460966    1.047293   -0.508125
     38          1           0       -4.447184    3.328457   -0.183768
     39          1           0       -4.041925    2.906930    1.486854
     40          1           0       -5.738724    3.037128    0.993670
 ---------------------------------------------------------------------

 SCF Done:  E(RHF) =  -470.733202203     A.U. after   11 cycles
 E2 =    -0.1582973457D+01 EUMP2 =    -0.47231617565934D+03

 The electronic state is 1-A.
 Alpha  occ. eigenvalues --  -11.21610 -11.21599 -11.21582 -11.21563 -11.21409
 Alpha  occ. eigenvalues --  -11.21402 -11.21346 -11.21343 -11.21105 -11.21083
 Alpha  occ. eigenvalues --  -11.21069 -11.21064  -1.08450  -1.08413  -1.03573
 Alpha  occ. eigenvalues --   -1.03494  -0.96005  -0.95963  -0.87005  -0.86994
 Alpha  occ. eigenvalues --   -0.79685  -0.79521  -0.78319  -0.78168  -0.65144
 Alpha  occ. eigenvalues --   -0.64994  -0.61078  -0.60822  -0.59453  -0.59246
 Alpha  occ. eigenvalues --   -0.57689  -0.57485  -0.55299  -0.55242  -0.52691
 Alpha  occ. eigenvalues --   -0.52662  -0.52411  -0.52404  -0.49962  -0.49899
 Alpha  occ. eigenvalues --   -0.48055  -0.47826  -0.46829  -0.46474  -0.45942
 Alpha  occ. eigenvalues --   -0.45752  -0.45742  -0.45408  -0.43792  -0.43776
 Alpha virt. eigenvalues --    0.21086   0.23130   0.23514   0.25018   0.26092
 Alpha virt. eigenvalues --    0.26702   0.26924   0.27734   0.27837   0.28944
 Alpha virt. eigenvalues --    0.30881   0.30903   0.31426   0.31781   0.32476

 Mulliken charges:
               1
     1  C   -0.297624
     2  C   -0.304957
     3  C   -0.477344
     4  H    0.149522
     5  H    0.149320
     6  H    0.151877
     7  H    0.157245
     8  H    0.154662
     9  H    0.155689
    10  H    0.161127
    11  C   -0.298425
    12  C   -0.299646
    13  C   -0.475714
    14  H    0.149471
    15  H    0.149983
    16  H    0.151920
    17  H    0.151924
    18  H    0.155203
    19  H    0.155162
    20  H    0.160245
    21  C   -0.297511
    22  C   -0.307941
    23  C   -0.475758
    24  H    0.149541
    25  H    0.149438
    26  H    0.161066
    27  H    0.151355
    28  H    0.155193
    29  H    0.154612
    30  H    0.160949
    31  C   -0.298335
    32  C   -0.299621
    33  C   -0.475714
    34  H    0.149035
    35  H    0.149447
    36  H    0.152067
    37  H    0.152028
    38  H    0.155109
    39  H    0.155074
    40  H    0.160330
 Sum of Mulliken charges =  -0.00000

 Dipole moment (field-independent basis, Debye):
    X=              0.0057    Y=             -0.0027    Z=             -0.0036  Tot=              0.0073
 Quadrupole moment (field-independent basis, Debye-Ang):
   XX=            -84.7191   YY=            -85.4477   ZZ=            -84.6693
   XY=             -0.6669   XZ=              0.6504   YZ=             -0.0762

 Normal termination of Gaussian 16 at Wed May  5 20:00:19 2021.
