 Gaussian 16, Revision A.03,
 Gaussian 16:  EM64L-G16RevA.03 25-Dec-2016

 -------------
 #p 6-31g* mp2
 -------------

 ------------------------------------------------------
 Input file generated by CHIRIPA (05-May-2021 14:51:13)
 ------------------------------------------------------
 Symbolic Z-matrix:
 Charge =  0 Multiplicity = 1

                         Standard orientation:
 ---------------------------------------------------------------------
 Center     Atomic      Atomic             Coordinates (Angstroms)
 Number     Number       Type             X           Y           Z
 ---------------------------------------------------------------------
      1          6           0        3.220828   -0.223105    0.337407
      2          6           0        2.055578    0.343643   -0.474365
      3          6           0        0.702269    0.126860    0.203390
      4          1           0        3.058216   -1.297461    0.499466
      5          1           0        3.228262    0.245323    1.331346
      6          1           0        2.051177   -0.124702   -1.466963
      7          1           0        2.221079    1.416735   -0.634674
      8          1           0        0.681964    0.608964    1.186123
      9          1           0        0.511096   -0.941232    0.349106
     10          1           0       -0.116617    0.539675   -0.393996
     11          6           0        4.580390   -0.014132   -0.327161
     12          6           0        5.745639   -0.580881    0.484612
     13          6           0        7.098949   -0.364098   -0.193144
     14          1           0        4.572956   -0.482561   -1.321099
     15          1           0        4.743002    1.060223   -0.489219
     16          1           0        5.580139   -1.653973    0.644921
     17          1           0        5.750041   -0.112535    1.477209
     18          1           0        7.290122    0.703995   -0.338860
     19          1           0        7.119254   -0.846201   -1.175877
     20          1           0        7.917835   -0.776912    0.404242
     21          6           0       -4.039313    0.865614    0.073561
     22          6           0       -2.789982    1.733761   -0.079666
     23          6           0       -3.083601    3.225730    0.080366
     24          1           0       -4.786763    1.175449   -0.669585
     25          1           0       -4.485638    1.048591    1.060834
     26          1           0       -2.345368    1.548175   -1.065816
     27          1           0       -2.045347    1.421696    0.663805
     28          1           0       -3.506084    3.431312    1.069228
     29          1           0       -3.807810    3.558509   -0.670221
     30          1           0       -2.176660    3.827794   -0.032927
     31          6           0       -3.761905   -0.628377   -0.083807
     32          6           0       -5.011235   -1.496523    0.069420
     33          6           0       -4.717616   -2.988493   -0.090612
     34          1           0       -3.315581   -0.811353   -1.071081
     35          1           0       -3.014455   -0.938212    0.659339
     36          1           0       -5.755872   -1.184458   -0.674051
     37          1           0       -5.455850   -1.310937    1.055571
     38          1           0       -3.993408   -3.321272    0.659975
     39          1           0       -4.295135   -3.194074   -1.079473
     40          1           0       -5.624558   -3.590556    0.022681
 ---------------------------------------------------------------------

 SCF Done:  E(RHF) =  -470.732409260     A.U. after   11 cycles
 E2 =    -0.1583130996D+01 EUMP2 =    -0.47231554025563D+03

 The electronic state is 1-A.
 Alpha  occ. eigenvalues --  -11.21582 -11.21579 -11.21543 -11.21535 -11.21371
 Alpha  occ. eigenvalues --  -11.21371 -11.21312 -11.21311 -11.21057 -11.21055
 Alpha  occ. eigenvalues --  -11.21052 -11.20918  -1.08418  -1.08382  -1.03539
 Alpha  occ. eigenvalues --   -1.03459  -0.95967  -0.95928  -0.87026  -0.86913
 Alpha  occ. eigenvalues --   -0.79708  -0.79453  -0.78256  -0.78165  -0.65045
 Alpha  occ. eigenvalues --   -0.65015  -0.60946  -0.60851  -0.59553  -0.59126
 Alpha  occ. eigenvalues --   -0.57647  -0.57464  -0.55267  -0.55200  -0.52827
 Alpha  occ. eigenvalues --   -0.52561  -0.52398  -0.52289  -0.49945  -0.49839
 Alpha  occ. eigenvalues --   -0.48015  -0.47723  -0.46675  -0.46517  -0.45797
 Alpha  occ. eigenvalues --   -0.45751  -0.45688  -0.45635  -0.43791  -0.43580
 Alpha virt. eigenvalues --    0.22336   0.23019   0.23826   0.24693   0.25849
 Alpha virt. eigenvalues --    0.26386   0.26661   0.27616   0.27970   0.29244
 Alpha virt. eigenvalues --    0.30274   0.30945   0.31722   0.31849   0.32124

 Mulliken charges:
               1
     1  C   -0.298442
     2  C   -0.299618
     3  C   -0.482445
     4  H    0.149482
     5  H    0.149243
     6  H    0.151452
     7  H    0.151456
     8  H    0.153004
     9  H    0.154387
    10  H    0.170774
    11  C   -0.298179
    12  C   -0.299575
    13  C   -0.475670
    14  H    0.149415
    15  H    0.149506
    16  H    0.151885
    17  H    0.151832
    18  H    0.155128
    19  H    0.155144
    20  H    0.160171
    21  C   -0.297668
    22  C   -0.306025
    23  C   -0.475236
    24  H    0.149186
    25  H    0.149315
    26  H    0.150990
    27  H    0.160494
    28  H    0.155060
    29  H    0.154894
    30  H    0.159983
    31  C   -0.299251
    32  C   -0.299559
    33  C   -0.475646
    34  H    0.149165
    35  H    0.151259
    36  H    0.151822
    37  H    0.151871
    38  H    0.155182
    39  H    0.155073
    40  H    0.160143
 Sum of Mulliken charges =  -0.00000

 Dipole moment (field-independent basis, Debye):
    X=             -0.0307    Y=              0.0061    Z=              0.0056  Tot=              0.0318
 Quadrupole moment (field-independent basis, Debye-Ang):
   XX=            -86.0753   YY=            -85.2624   ZZ=            -83.6784
   XY=              0.0699   XZ=              0.5619   YZ=              0.3149

 Normal termination of Gaussian 16 at Thu May  6 02:23:06 2021.
