 Gaussian 16, Revision A.03,
 Gaussian 16:  EM64L-G16RevA.03 25-Dec-2016

 -------------
 #p 6-31g* mp2
 -------------

 ------------------------------------------------------
 Input file generated by CHIRIPA (05-May-2021 14:51:11)
 ------------------------------------------------------
 Symbolic Z-matrix:
 Charge =  0 Multiplicity = 1

                         Standard orientation:
 ---------------------------------------------------------------------
 Center     Atomic      Atomic             Coordinates (Angstroms)
 Number     Number       Type             X           Y           Z
 ---------------------------------------------------------------------
      1          6           0       -2.674959    0.378904   -0.971470
      2          6           0       -1.988883    1.673622   -0.534448
      3          6           0       -0.939515    2.154199   -1.537278
      4          1           0       -1.915035   -0.401988   -1.111716
      5          1           0       -3.147209    0.535044   -1.951263
      6          1           0       -1.519244    1.515495    0.444863
      7          1           0       -2.750548    2.451471   -0.395041
      8          1           0       -1.396992    2.339615   -2.514487
      9          1           0       -0.158692    1.398321   -1.669810
     10          1           0       -0.461565    3.081058   -1.205080
     11          6           0       -3.726631   -0.114196    0.020783
     12          6           0       -4.412707   -1.408914   -0.416239
     13          6           0       -5.462075   -1.889491    0.586592
     14          1           0       -3.254381   -0.270336    1.000577
     15          1           0       -4.486554    0.666696    0.161029
     16          1           0       -3.651042   -2.186763   -0.555645
     17          1           0       -4.882346   -1.250787   -1.395550
     18          1           0       -6.242898   -1.133613    0.719124
     19          1           0       -5.004598   -2.074907    1.563800
     20          1           0       -5.940025   -2.816350    0.254393
     21          6           0        2.703504   -0.176289    1.053447
     22          6           0        1.795955    1.049040    1.167054
     23          6           0        0.806595    0.946280    2.328262
     24          1           0        2.082745   -1.074234    0.929763
     25          1           0        3.254416   -0.304480    1.995498
     26          1           0        1.247949    1.175689    0.224576
     27          1           0        2.418952    1.944195    1.290290
     28          1           0        1.338522    0.843294    3.279602
     29          1           0        0.160864    0.070421    2.207833
     30          1           0        0.167736    1.832723    2.391010
     31          6           0        3.698085   -0.088420   -0.102761
     32          6           0        4.605636   -1.313749   -0.216367
     33          6           0        5.594994   -1.210989   -1.377575
     34          1           0        3.147174    0.039772   -1.044810
     35          1           0        4.318844    0.809526    0.020924
     36          1           0        3.982637   -2.208904   -0.339603
     37          1           0        5.153642   -1.440397    0.726111
     38          1           0        6.240725   -0.335129   -1.257146
     39          1           0        5.063067   -1.108001   -2.328915
     40          1           0        6.233855   -2.097431   -1.440322
 ---------------------------------------------------------------------

 SCF Done:  E(RHF) =  -470.732502093     A.U. after   11 cycles
 E2 =    -0.1583999665D+01 EUMP2 =    -0.47231650175795D+03

 The electronic state is 1-A.
 Alpha  occ. eigenvalues --  -11.21614 -11.21610 -11.21555 -11.21552 -11.21418
 Alpha  occ. eigenvalues --  -11.21412 -11.21359 -11.21353 -11.21115 -11.21089
 Alpha  occ. eigenvalues --  -11.21077 -11.21075  -1.08472  -1.08407  -1.03616
 Alpha  occ. eigenvalues --   -1.03470  -0.96041  -0.95959  -0.87067  -0.86965
 Alpha  occ. eigenvalues --   -0.79682  -0.79526  -0.78264  -0.78238  -0.65292
 Alpha  occ. eigenvalues --   -0.64908  -0.61327  -0.60613  -0.59463  -0.59241
 Alpha  occ. eigenvalues --   -0.57693  -0.57505  -0.55405  -0.55166  -0.52726
 Alpha  occ. eigenvalues --   -0.52657  -0.52432  -0.52408  -0.50159  -0.49795
 Alpha  occ. eigenvalues --   -0.47920  -0.47908  -0.46788  -0.46454  -0.45839
 Alpha  occ. eigenvalues --   -0.45769  -0.45709  -0.45585  -0.43810  -0.43766
 Alpha virt. eigenvalues --    0.20365   0.23125   0.23646   0.24715   0.25981
 Alpha virt. eigenvalues --    0.26312   0.26944   0.27516   0.28760   0.29213
 Alpha virt. eigenvalues --    0.30835   0.31320   0.31739   0.32009   0.32443

 Mulliken charges:
               1
     1  C   -0.297636
     2  C   -0.308876
     3  C   -0.477831
     4  H    0.148516
     5  H    0.149515
     6  H    0.162523
     7  H    0.151899
     8  H    0.156129
     9  H    0.154689
    10  H    0.160995
    11  C   -0.298651
    12  C   -0.299615
    13  C   -0.475721
    14  H    0.149765
    15  H    0.149811
    16  H    0.151670
    17  H    0.151971
    18  H    0.155246
    19  H    0.155263
    20  H    0.160244
    21  C   -0.297733
    22  C   -0.309516
    23  C   -0.477813
    24  H    0.148799
    25  H    0.149497
    26  H    0.163794
    27  H    0.151827
    28  H    0.156125
    29  H    0.154061
    30  H    0.161164
    31  C   -0.298336
    32  C   -0.299632
    33  C   -0.475731
    34  H    0.149019
    35  H    0.149955
    36  H    0.151788
    37  H    0.152032
    38  H    0.155259
    39  H    0.155263
    40  H    0.160272
 Sum of Mulliken charges =  -0.00000

 Dipole moment (field-independent basis, Debye):
    X=              0.0009    Y=              0.0262    Z=              0.0061  Tot=              0.0269
 Quadrupole moment (field-independent basis, Debye-Ang):
   XX=            -85.0307   YY=            -84.5055   ZZ=            -85.2529
   XY=             -0.3909   XZ=              1.8412   YZ=              0.2771

 Normal termination of Gaussian 16 at Thu May  6 00:40:51 2021.
