 Gaussian 16, Revision A.03,
 Gaussian 16:  EM64L-G16RevA.03 25-Dec-2016

 -------------
 #p 6-31g* mp2
 -------------

 ------------------------------------------------------
 Input file generated by CHIRIPA (05-May-2021 14:53:18)
 ------------------------------------------------------
 Symbolic Z-matrix:
 Charge =  0 Multiplicity = 1

                         Standard orientation:
 ---------------------------------------------------------------------
 Center     Atomic      Atomic             Coordinates (Angstroms)
 Number     Number       Type             X           Y           Z
 ---------------------------------------------------------------------
      1          6           0        2.224801   -0.213199   -0.173600
      2          6           0        3.110637   -1.105307   -1.043900
      3          6           0        2.865768   -2.595416   -0.804298
      4          1           0        2.403421   -0.450159    0.884176
      5          1           0        1.170314   -0.449163   -0.373030
      6          1           0        4.163117   -0.866765   -0.843898
      7          1           0        2.930028   -0.866062   -2.099721
      8          1           0        1.824754   -2.854731   -1.022577
      9          1           0        3.064849   -2.855438    0.240382
     10          1           0        3.509444   -3.214811   -1.436668
     11          6           0        2.457975    1.279222   -0.401717
     12          6           0        1.572139    2.171330    0.468583
     13          6           0        1.817008    3.661439    0.228982
     14          1           0        3.512462    1.515186   -0.202286
     15          1           0        2.279355    1.516182   -1.459493
     16          1           0        1.752748    1.932085    1.524404
     17          1           0        0.519659    1.932788    0.268582
     18          1           0        1.617927    3.921461   -0.815698
     19          1           0        2.858022    3.920754    0.447260
     20          1           0        1.173332    4.280834    0.861352
     21          6           0       -0.394853   -1.762766    1.804570
     22          6           0       -0.773136   -0.458900    2.141250
     23          6           0       -1.567698    0.296312    1.273566
     24          6           0       -1.967878   -0.286255    0.072000
     25          6           0       -1.607412   -1.582798   -0.291772
     26          6           0       -0.812462   -2.319573    0.591272
     27          1           0        0.222532   -2.342272    2.484573
     28          1           0       -0.450287   -0.023905    3.082841
     29          1           0       -1.875047    1.307955    1.509218
     30          1           0       -1.944735   -1.989323   -1.237483
     31          1           0       -0.520201   -3.331939    0.327181
     32          7           0       -2.809249    0.503494   -0.854708
     33          8           0       -3.148732   -0.032627   -1.907306
     34          8           0       -3.113304    1.643668   -0.510917
 ---------------------------------------------------------------------

 SCF Done:  E(RHF) =  -669.532505774     A.U. after   15 cycles
 E2 =    -0.2097871138D+01 EUMP2 =    -0.67163037691188D+03

 The electronic state is 1-A.
 Alpha  occ. eigenvalues --  -20.60877 -20.60871 -15.85929 -11.31302 -11.27862
 Alpha  occ. eigenvalues --  -11.27856 -11.27533 -11.26818 -11.26808 -11.21874
 Alpha  occ. eigenvalues --  -11.21687 -11.21616 -11.21472 -11.21396 -11.21072
 Alpha  occ. eigenvalues --   -1.59952  -1.39504  -1.19489  -1.08876  -1.08566
 Alpha  occ. eigenvalues --   -1.04885  -1.03741  -0.96195  -0.95692  -0.87225
 Alpha  occ. eigenvalues --   -0.86257  -0.82519  -0.79831  -0.78443  -0.77570
 Alpha  occ. eigenvalues --   -0.72141  -0.71283  -0.70560  -0.65255  -0.65108
 Alpha  occ. eigenvalues --   -0.64858  -0.62230  -0.61146  -0.59575  -0.57831
 Alpha  occ. eigenvalues --   -0.55525  -0.55329  -0.53555  -0.52975  -0.52800
 Alpha  occ. eigenvalues --   -0.52559  -0.50147  -0.48903  -0.48899  -0.48194
 Alpha  occ. eigenvalues --   -0.46891  -0.45961  -0.45544  -0.44895  -0.43955
 Alpha  occ. eigenvalues --   -0.37350  -0.36364
 Alpha virt. eigenvalues --    0.04924   0.10987   0.16326   0.20598   0.23015
 Alpha virt. eigenvalues --    0.23655   0.25790   0.26983   0.27629   0.28185
 Alpha virt. eigenvalues --    0.28375   0.29228   0.31621   0.31897   0.32201

 Mulliken charges:
               1
     1  C   -0.301331
     2  C   -0.299205
     3  C   -0.475854
     4  H    0.140720
     5  H    0.161169
     6  H    0.151858
     7  H    0.154291
     8  H    0.150308
     9  H    0.148918
    10  H    0.162052
    11  C   -0.298180
    12  C   -0.302349
    13  C   -0.474977
    14  H    0.148028
    15  H    0.152183
    16  H    0.143094
    17  H    0.156731
    18  H    0.159417
    19  H    0.153787
    20  H    0.159556
    21  C   -0.167177
    22  C   -0.212677
    23  C   -0.173067
    24  C    0.160531
    25  C   -0.175980
    26  C   -0.216857
    27  H    0.226037
    28  H    0.223953
    29  H    0.276542
    30  H    0.275960
    31  H    0.224964
    32  N    0.488181
    33  O   -0.460115
    34  O   -0.460511
 Sum of Mulliken charges =  -0.00000

 Dipole moment (field-independent basis, Debye):
    X=              2.8311    Y=             -2.7657    Z=              3.2556  Tot=              5.1247
 Quadrupole moment (field-independent basis, Debye-Ang):
   XX=           -107.1680   YY=            -91.8790   ZZ=            -92.0381
   XY=              4.7141   XZ=             -5.8574   YZ=              1.5230

 Normal termination of Gaussian 16 at Thu May  6 06:03:00 2021.
