 Gaussian 16, Revision A.03,
 Gaussian 16:  EM64L-G16RevA.03 25-Dec-2016

 -------------
 #p 6-31g* mp2
 -------------

 ------------------------------------------------------
 Input file generated by CHIRIPA (05-May-2021 14:53:18)
 ------------------------------------------------------
 Symbolic Z-matrix:
 Charge =  0 Multiplicity = 1

                         Standard orientation:
 ---------------------------------------------------------------------
 Center     Atomic      Atomic             Coordinates (Angstroms)
 Number     Number       Type             X           Y           Z
 ---------------------------------------------------------------------
      1          6           0       -3.224695    0.585116    0.769767
      2          6           0       -2.852539    1.952708    0.196027
      3          6           0       -2.310482    2.911177    1.256831
      4          1           0       -3.973600    0.718576    1.562405
      5          1           0       -2.339621    0.142420    1.247320
      6          1           0       -3.737703    2.392089   -0.281513
      7          1           0       -2.104575    1.815961   -0.595469
      8          1           0       -1.412273    2.497655    1.726747
      9          1           0       -3.054680    3.077057    2.042486
     10          1           0       -2.050771    3.882718    0.824954
     11          6           0       -3.768150   -0.384124   -0.278546
     12          6           0       -4.140307   -1.751715    0.295194
     13          6           0       -4.682363   -2.710184   -0.765611
     14          1           0       -4.653225    0.058573   -0.756099
     15          1           0       -3.019246   -0.517583   -1.071185
     16          1           0       -4.888271   -1.614968    1.086690
     17          1           0       -3.255143   -2.191096    0.772734
     18          1           0       -3.938165   -2.876064   -1.551266
     19          1           0       -5.580572   -2.296662   -1.235526
     20          1           0       -4.942075   -3.681726   -0.333734
     21          6           0        4.369819   -1.705983    0.824699
     22          6           0        4.785421   -0.414108    0.485797
     23          6           0        3.886319    0.495976   -0.078039
     24          6           0        2.573202    0.078825   -0.290162
     25          6           0        2.128849   -1.201381    0.036813
     26          6           0        3.045195   -2.094812    0.599523
     27          1           0        5.074960   -2.406489    1.262263
     28          1           0        5.813527   -0.109387    0.659540
     29          1           0        4.181348    1.502209   -0.349832
     30          1           0        1.097512   -1.476147   -0.148300
     31          1           0        2.719633   -3.097459    0.861731
     32          7           0        1.612235    1.033475   -0.886474
     33          8           0        0.460838    0.641484   -1.063295
     34          8           0        2.028623    2.155644   -1.165752
 ---------------------------------------------------------------------

 SCF Done:  E(RHF) =  -669.536417743     A.U. after   15 cycles
 E2 =    -0.2091419216D+01 EUMP2 =    -0.67162783695861D+03

 The electronic state is 1-A.
 Alpha  occ. eigenvalues --  -20.61044 -20.61035 -15.86067 -11.31354 -11.27914
 Alpha  occ. eigenvalues --  -11.27906 -11.27641 -11.26910 -11.26900 -11.21082
 Alpha  occ. eigenvalues --  -11.20670 -11.20528 -11.20385 -11.20143 -11.19926
 Alpha  occ. eigenvalues --   -1.60095  -1.39653  -1.19517  -1.08928  -1.07516
 Alpha  occ. eigenvalues --   -1.04908  -1.02627  -0.95776  -0.95122  -0.86310
 Alpha  occ. eigenvalues --   -0.86150  -0.82612  -0.78730  -0.77670  -0.77272
 Alpha  occ. eigenvalues --   -0.72295  -0.71406  -0.70626  -0.65178  -0.64911
 Alpha  occ. eigenvalues --   -0.64128  -0.62256  -0.60008  -0.58526  -0.56711
 Alpha  occ. eigenvalues --   -0.55413  -0.54417  -0.53241  -0.53000  -0.51847
 Alpha  occ. eigenvalues --   -0.51548  -0.49153  -0.49044  -0.49005  -0.47043
 Alpha  occ. eigenvalues --   -0.45754  -0.45103  -0.44832  -0.44590  -0.42883
 Alpha  occ. eigenvalues --   -0.37493  -0.36508
 Alpha virt. eigenvalues --    0.04845   0.11147   0.16336   0.21156   0.23510
 Alpha virt. eigenvalues --    0.25197   0.26823   0.27416   0.28388   0.28428
 Alpha virt. eigenvalues --    0.28953   0.31010   0.32188   0.32576   0.32626

 Mulliken charges:
               1
     1  C   -0.294361
     2  C   -0.310010
     3  C   -0.473064
     4  H    0.143561
     5  H    0.145907
     6  H    0.145037
     7  H    0.182228
     8  H    0.152081
     9  H    0.147882
    10  H    0.161221
    11  C   -0.300401
    12  C   -0.297878
    13  C   -0.475133
    14  H    0.147625
    15  H    0.157794
    16  H    0.150273
    17  H    0.146029
    18  H    0.154453
    19  H    0.155521
    20  H    0.156726
    21  C   -0.170464
    22  C   -0.218559
    23  C   -0.170481
    24  C    0.157841
    25  C   -0.170905
    26  C   -0.218476
    27  H    0.226281
    28  H    0.224074
    29  H    0.276054
    30  H    0.275378
    31  H    0.224145
    32  N    0.490470
    33  O   -0.462847
    34  O   -0.458004
 Sum of Mulliken charges =  -0.00000

 Dipole moment (field-independent basis, Debye):
    X=              3.7110    Y=             -3.3017    Z=              1.9254  Tot=              5.3273
 Quadrupole moment (field-independent basis, Debye-Ang):
   XX=            -75.0725   YY=            -94.0988   ZZ=            -97.4576
   XY=             -6.4252   XZ=              4.4554   YZ=              0.0994

 Normal termination of Gaussian 16 at Wed May  5 17:17:38 2021.
