 Gaussian 16, Revision A.03,
 Gaussian 16:  EM64L-G16RevA.03 25-Dec-2016

 -------------
 #p 6-31g* mp2
 -------------

 ------------------------------------------------------
 Input file generated by CHIRIPA (05-May-2021 14:51:12)
 ------------------------------------------------------
 Symbolic Z-matrix:
 Charge =  0 Multiplicity = 1

                         Standard orientation:
 ---------------------------------------------------------------------
 Center     Atomic      Atomic             Coordinates (Angstroms)
 Number     Number       Type             X           Y           Z
 ---------------------------------------------------------------------
      1          6           0       -3.614833   -0.291350   -0.278311
      2          6           0       -4.873688   -1.058349    0.127867
      3          6           0       -4.848756   -2.518170   -0.326109
      4          1           0       -3.502677   -0.335377   -1.370294
      5          1           0       -2.734774   -0.793523    0.146791
      6          1           0       -5.751219   -0.554090   -0.296725
      7          1           0       -4.982965   -1.012328    1.218994
      8          1           0       -3.991374   -3.042179    0.108531
      9          1           0       -4.763993   -2.581337   -1.415800
     10          1           0       -5.758113   -3.047734   -0.025294
     11          6           0       -3.624908    1.169486    0.168441
     12          6           0       -2.366052    1.936485   -0.237738
     13          6           0       -2.390985    3.396306    0.216239
     14          1           0       -4.504967    1.671659   -0.256662
     15          1           0       -3.737064    1.213513    1.260424
     16          1           0       -2.256775    1.890464   -1.328864
     17          1           0       -1.488522    1.432226    0.186855
     18          1           0       -2.475748    3.459473    1.305929
     19          1           0       -3.248367    3.920315   -0.218402
     20          1           0       -1.481627    3.925871   -0.084576
     21          6           0        3.076032   -0.866591    0.378810
     22          6           0        1.672964   -0.564795   -0.148738
     23          6           0        0.595825   -1.428076    0.508765
     24          1           0        3.302934   -1.928526    0.212212
     25          1           0        3.092780   -0.710258    1.466318
     26          1           0        1.659229   -0.720315   -1.235127
     27          1           0        1.449450    0.496589    0.018961
     28          1           0        0.580446   -1.266559    1.591482
     29          1           0        0.791419   -2.490376    0.330268
     30          1           0       -0.399360   -1.195832    0.116937
     31          6           0        4.163709   -0.011545   -0.268940
     32          6           0        5.566776   -0.313341    0.258609
     33          6           0        6.643916    0.549940   -0.398894
     34          1           0        4.146960   -0.167878   -1.356448
     35          1           0        3.936807    1.050389   -0.102342
     36          1           0        5.790291   -1.374724    0.090909
     37          1           0        5.580511   -0.157821    1.344998
     38          1           0        6.448322    1.612240   -0.220398
     39          1           0        6.659294    0.388423   -1.481612
     40          1           0        7.639101    0.317696   -0.007065
 ---------------------------------------------------------------------

 SCF Done:  E(RHF) =  -470.733241847     A.U. after   11 cycles
 E2 =    -0.1583043353D+01 EUMP2 =    -0.47231628519982D+03

 The electronic state is 1-A.
 Alpha  occ. eigenvalues --  -11.21610 -11.21604 -11.21596 -11.21594 -11.21409
 Alpha  occ. eigenvalues --  -11.21401 -11.21350 -11.21341 -11.21076 -11.21073
 Alpha  occ. eigenvalues --  -11.21067 -11.21055  -1.08447  -1.08420  -1.03540
 Alpha  occ. eigenvalues --   -1.03521  -0.96002  -0.95964  -0.87018  -0.86983
 Alpha  occ. eigenvalues --   -0.79624  -0.79565  -0.78256  -0.78244  -0.65105
 Alpha  occ. eigenvalues --   -0.65039  -0.60975  -0.60879  -0.59388  -0.59328
 Alpha  occ. eigenvalues --   -0.57656  -0.57538  -0.55274  -0.55268  -0.52776
 Alpha  occ. eigenvalues --   -0.52634  -0.52433  -0.52352  -0.49930  -0.49914
 Alpha  occ. eigenvalues --   -0.47967  -0.47871  -0.46671  -0.46583  -0.45792
 Alpha  occ. eigenvalues --   -0.45777  -0.45730  -0.45669  -0.43795  -0.43708
 Alpha virt. eigenvalues --    0.21068   0.23094   0.23741   0.24257   0.26072
 Alpha virt. eigenvalues --    0.26589   0.26998   0.27346   0.28002   0.28939
 Alpha virt. eigenvalues --    0.30432   0.31457   0.31621   0.31871   0.32250

 Mulliken charges:
               1
     1  C   -0.306759
     2  C   -0.298897
     3  C   -0.475935
     4  H    0.149261
     5  H    0.157436
     6  H    0.151923
     7  H    0.151975
     8  H    0.155631
     9  H    0.155053
    10  H    0.160230
    11  C   -0.297659
    12  C   -0.304063
    13  C   -0.475646
    14  H    0.149601
    15  H    0.149526
    16  H    0.151915
    17  H    0.156343
    18  H    0.155091
    19  H    0.155305
    20  H    0.160097
    21  C   -0.298594
    22  C   -0.299974
    23  C   -0.485513
    24  H    0.149739
    25  H    0.149396
    26  H    0.152329
    27  H    0.152897
    28  H    0.154334
    29  H    0.155362
    30  H    0.169424
    31  C   -0.298231
    32  C   -0.299636
    33  C   -0.475707
    34  H    0.149589
    35  H    0.149656
    36  H    0.151953
    37  H    0.151904
    38  H    0.155188
    39  H    0.155200
    40  H    0.160258
 Sum of Mulliken charges =  -0.00000

 Dipole moment (field-independent basis, Debye):
    X=             -0.0035    Y=             -0.0042    Z=             -0.0056  Tot=              0.0078
 Quadrupole moment (field-independent basis, Debye-Ang):
   XX=            -85.4183   YY=            -85.6850   ZZ=            -83.6822
   XY=             -0.8142   XZ=              0.5792   YZ=              0.2334

 Normal termination of Gaussian 16 at Wed May  5 23:08:49 2021.
