 Gaussian 16, Revision A.03,
 Gaussian 16:  EM64L-G16RevA.03 25-Dec-2016

 -------------
 #p 6-31g* mp2
 -------------

 ------------------------------------------------------
 Input file generated by CHIRIPA (05-May-2021 14:55:24)
 ------------------------------------------------------
 Symbolic Z-matrix:
 Charge =  0 Multiplicity = 1

                         Standard orientation:
 ---------------------------------------------------------------------
 Center     Atomic      Atomic             Coordinates (Angstroms)
 Number     Number       Type             X           Y           Z
 ---------------------------------------------------------------------
      1          6           0        0.057900   -2.302403    0.464909
      2          6           0       -0.757825   -1.848454    1.506563
      3          6           0       -1.846095   -1.011362    1.242948
      4          6           0       -2.090728   -0.646270   -0.079985
      5          6           0       -1.296378   -1.082011   -1.139432
      6          6           0       -0.213501   -1.918410   -0.852442
      7          1           0        0.901200   -2.952407    0.678770
      8          1           0       -0.549435   -2.145050    2.530598
      9          1           0       -2.493818   -0.645335    2.030285
     10          1           0       -1.529228   -0.769304   -2.150082
     11          1           0        0.418302   -2.269423   -1.663404
     12          7           0       -3.239976    0.239555   -0.371435
     13          8           0       -3.434293    0.546811   -1.545518
     14          8           0       -3.924679    0.609836    0.579728
     15          6           0        1.799414    1.278201    0.374633
     16          6           0        1.406239    2.679612   -0.093818
     17          6           0        0.135366    3.194232    0.582821
     18          1           0        0.970087    0.585774    0.175372
     19          1           0        1.941955    1.289884    1.464101
     20          1           0        1.265832    2.665605   -1.182260
     21          1           0        2.236672    3.368746    0.106407
     22          1           0        0.267358    3.236877    1.668805
     23          1           0       -0.708998    2.529741    0.372816
     24          1           0       -0.127421    4.197562    0.233346
     25          6           0        3.067959    0.749995   -0.292840
     26          6           0        3.461134   -0.651416    0.175611
     27          6           0        4.732008   -1.166037   -0.501028
     28          1           0        2.925420    0.738311   -1.382309
     29          1           0        3.897286    1.442423   -0.093579
     30          1           0        2.630701   -1.340550   -0.024614
     31          1           0        3.601542   -0.637409    1.264053
     32          1           0        5.576372   -0.501545   -0.291023
     33          1           0        4.600016   -1.208681   -1.587013
     34          1           0        4.994794   -2.169366   -0.151553
 ---------------------------------------------------------------------

 SCF Done:  E(RHF) =  -669.533570081     A.U. after   15 cycles
 E2 =    -0.2096385631D+01 EUMP2 =    -0.67162995571172D+03

 The electronic state is 1-A.
 Alpha  occ. eigenvalues --  -20.60875 -20.60868 -15.85934 -11.31343 -11.27909
 Alpha  occ. eigenvalues --  -11.27905 -11.27608 -11.26894 -11.26880 -11.22184
 Alpha  occ. eigenvalues --  -11.21730 -11.21693 -11.21577 -11.21373 -11.20926
 Alpha  occ. eigenvalues --   -1.59953  -1.39503  -1.19528  -1.08936  -1.08663
 Alpha  occ. eigenvalues --   -1.04915  -1.03796  -0.96216  -0.95732  -0.87236
 Alpha  occ. eigenvalues --   -0.86309  -0.82554  -0.79912  -0.78475  -0.77594
 Alpha  occ. eigenvalues --   -0.72143  -0.71285  -0.70625  -0.65416  -0.65141
 Alpha  occ. eigenvalues --   -0.64885  -0.62255  -0.61202  -0.59635  -0.57833
 Alpha  occ. eigenvalues --   -0.55546  -0.55398  -0.53438  -0.52992  -0.52885
 Alpha  occ. eigenvalues --   -0.52601  -0.50172  -0.48907  -0.48897  -0.48214
 Alpha  occ. eigenvalues --   -0.46985  -0.45980  -0.45751  -0.44895  -0.44010
 Alpha  occ. eigenvalues --   -0.37378  -0.36503
 Alpha virt. eigenvalues --    0.04901   0.11027   0.16345   0.20594   0.22887
 Alpha virt. eigenvalues --    0.23895   0.26194   0.26670   0.27394   0.27908
 Alpha virt. eigenvalues --    0.28457   0.30522   0.31110   0.31604   0.32023

 Mulliken charges:
               1
     1  C   -0.168505
     2  C   -0.217803
     3  C   -0.170862
     4  C    0.159156
     5  C   -0.173244
     6  C   -0.219216
     7  H    0.227963
     8  H    0.224528
     9  H    0.276727
    10  H    0.276361
    11  H    0.224579
    12  N    0.488416
    13  O   -0.460103
    14  O   -0.459576
    15  C   -0.306749
    16  C   -0.299878
    17  C   -0.474186
    18  H    0.162272
    19  H    0.145975
    20  H    0.151705
    21  H    0.150895
    22  H    0.153461
    23  H    0.154742
    24  H    0.163471
    25  C   -0.296540
    26  C   -0.303448
    27  C   -0.475308
    28  H    0.147303
    29  H    0.151063
    30  H    0.145772
    31  H    0.150870
    32  H    0.158767
    33  H    0.154251
    34  H    0.157139
 Sum of Mulliken charges =  -0.00000

 Dipole moment (field-independent basis, Debye):
    X=              3.9029    Y=             -3.1223    Z=              1.0590  Tot=              5.1091
 Quadrupole moment (field-independent basis, Debye-Ang):
   XX=           -112.9863   YY=            -91.4419   ZZ=            -89.7806
   XY=              4.6637   XZ=             -2.9904   YZ=             -0.2732

 Normal termination of Gaussian 16 at Wed May  5 19:07:55 2021.
