 Gaussian 16, Revision A.03,
 Gaussian 16:  EM64L-G16RevA.03 25-Dec-2016

 -------------
 #p 6-31g* mp2
 -------------

 ------------------------------------------------------
 Input file generated by CHIRIPA (05-May-2021 14:57:24)
 ------------------------------------------------------
 Symbolic Z-matrix:
 Charge =  0 Multiplicity = 1

                         Standard orientation:
 ---------------------------------------------------------------------
 Center     Atomic      Atomic             Coordinates (Angstroms)
 Number     Number       Type             X           Y           Z
 ---------------------------------------------------------------------
      1          6           0       -2.288627    2.053305   -0.458648
      2          6           0       -2.036751    0.895470   -1.201951
      3          6           0       -2.801920   -0.257327   -1.001642
      4          6           0       -3.815608   -0.216932   -0.045559
      5          6           0       -4.090914    0.921251    0.710772
      6          6           0       -3.313098    2.062484    0.493662
      7          1           0       -1.689313    2.944334   -0.620779
      8          1           0       -1.241782    0.885452   -1.942200
      9          1           0       -2.628418   -1.167270   -1.563175
     10          1           0       -4.890219    0.900782    1.441602
     11          1           0       -3.510961    2.960249    1.072378
     12          7           0       -4.632352   -1.431225    0.175392
     13          8           0       -5.519637   -1.369925    1.023687
     14          8           0       -4.369766   -2.421297   -0.503904
     15          6           0        1.429906    1.153119   -0.003384
     16          6           0        2.066488    0.770892   -1.188789
     17          6           0        3.313905    0.140613   -1.153474
     18          6           0        3.898625   -0.093053    0.090227
     19          6           0        3.289582    0.275875    1.288662
     20          6           0        2.042404    0.904828    1.229386
     21          1           0        0.460975    1.642220   -0.040124
     22          1           0        1.593175    0.962449   -2.147604
     23          1           0        3.828961   -0.165789   -2.055834
     24          1           0        3.786281    0.071557    2.229386
     25          1           0        1.550355    1.200570    2.151595
     26          7           0        5.219083   -0.759601    0.140296
     27          8           0        5.713220   -0.954177    1.248721
     28          8           0        5.734918   -1.074841   -0.929832
 ---------------------------------------------------------------------

 SCF Done:  E(RHF) =  -868.335172801     A.U. after   16 cycles
 E2 =    -0.2602155973D+01 EUMP2 =    -0.87093732877342D+03

 The electronic state is 1-A.
 Alpha  occ. eigenvalues --  -20.61509 -20.61503 -20.61114 -20.61107 -15.86569
 Alpha  occ. eigenvalues --  -15.86174 -11.32190 -11.31648 -11.28770 -11.28740
 Alpha  occ. eigenvalues --  -11.28649 -11.28287 -11.28225 -11.27994 -11.27955
 Alpha  occ. eigenvalues --  -11.27853 -11.27389 -11.27245  -1.60577  -1.60187
 Alpha  occ. eigenvalues --   -1.40123  -1.39737  -1.20404  -1.19853  -1.09800
 Alpha  occ. eigenvalues --   -1.09232  -1.05828  -1.05282  -0.96579  -0.96040
 Alpha  occ. eigenvalues --   -0.87254  -0.86684  -0.83377  -0.82882  -0.78359
 Alpha  occ. eigenvalues --   -0.77898  -0.72789  -0.72390  -0.71903  -0.71692
 Alpha  occ. eigenvalues --   -0.71512  -0.70906  -0.66064  -0.65934  -0.65496
 Alpha  occ. eigenvalues --   -0.65261  -0.63152  -0.62619  -0.56474  -0.55905
 Alpha  occ. eigenvalues --   -0.54025  -0.53946  -0.53559  -0.53383  -0.49564
 Alpha  occ. eigenvalues --   -0.49521  -0.49160  -0.49136  -0.45471  -0.45118
 Alpha  occ. eigenvalues --   -0.38473  -0.37896  -0.37298  -0.36884
 Alpha virt. eigenvalues --    0.04105   0.04644   0.10100   0.10744   0.15373
 Alpha virt. eigenvalues --    0.16139   0.18463   0.22114   0.24479   0.26210
 Alpha virt. eigenvalues --    0.27631   0.28943   0.30017   0.31333   0.32525

 Mulliken charges:
               1
     1  C   -0.182755
     2  C   -0.218283
     3  C   -0.169375
     4  C    0.160053
     5  C   -0.170086
     6  C   -0.218686
     7  H    0.224075
     8  H    0.221425
     9  H    0.279829
    10  H    0.279183
    11  H    0.226772
    12  N    0.487836
    13  O   -0.457586
    14  O   -0.457025
    15  C   -0.169692
    16  C   -0.225200
    17  C   -0.168970
    18  C    0.158431
    19  C   -0.169148
    20  C   -0.221950
    21  H    0.226001
    22  H    0.215955
    23  H    0.276900
    24  H    0.277596
    25  H    0.224966
    26  N    0.487992
    27  O   -0.458746
    28  O   -0.459514
 Sum of Mulliken charges =  -0.00000

 Dipole moment (field-independent basis, Debye):
    X=             -1.9923    Y=              6.4298    Z=             -0.8047  Tot=              6.7793
 Quadrupole moment (field-independent basis, Debye-Ang):
   XX=           -161.1573   YY=           -107.3400   ZZ=            -97.6962
   XY=             -8.8208   XZ=             -0.4197   YZ=              2.7289

 Normal termination of Gaussian 16 at Thu May  6 22:47:45 2021.
