 Gaussian 16, Revision A.03,
 Gaussian 16:  EM64L-G16RevA.03 25-Dec-2016

 -------------
 #p 6-31g* mp2
 -------------

 ------------------------------------------------------
 Input file generated by CHIRIPA (05-May-2021 14:51:09)
 ------------------------------------------------------
 Symbolic Z-matrix:
 Charge =  0 Multiplicity = 1

                         Standard orientation:
 ---------------------------------------------------------------------
 Center     Atomic      Atomic             Coordinates (Angstroms)
 Number     Number       Type             X           Y           Z
 ---------------------------------------------------------------------
      1          6           0       -3.456558   -0.050855   -0.231535
      2          6           0       -4.900161   -0.453359    0.071758
      3          6           0       -5.212476   -1.891478   -0.343051
      4          1           0       -3.266624   -0.173346   -1.306647
      5          1           0       -2.774721   -0.739239    0.286751
      6          1           0       -5.579072    0.236422   -0.445831
      7          1           0       -5.086737   -0.329713    1.146243
      8          1           0       -4.558894   -2.594754    0.183099
      9          1           0       -5.054026   -2.025403   -1.418020
     10          1           0       -6.249629   -2.158223   -0.117173
     11          6           0       -3.129062    1.384134    0.177466
     12          6           0       -1.685459    1.786638   -0.125827
     13          6           0       -1.373144    3.224757    0.288981
     14          1           0       -3.810900    2.072517   -0.340820
     15          1           0       -3.318996    1.506625    1.252578
     16          1           0       -1.498883    1.662992   -1.200312
     17          1           0       -1.006548    1.096857    0.391762
     18          1           0       -1.531594    3.358682    1.363951
     19          1           0       -2.026726    3.928033   -0.237168
     20          1           0       -0.335991    3.491502    0.063104
     21          6           0        3.727819   -0.102955   -0.249476
     22          6           0        5.191693   -0.199600    0.181479
     23          6           0        6.049266    0.935084   -0.379641
     24          1           0        3.674084   -0.108965   -1.346755
     25          1           0        3.319399    0.863082    0.078183
     26          1           0        5.596835   -1.165746   -0.145685
     27          1           0        5.241936   -0.193553    1.277862
     28          1           0        5.671993    1.905996   -0.042601
     29          1           0        6.028909    0.928278   -1.474237
     30          1           0        7.092001    0.846461   -0.059157
     31          6           0        2.857800   -1.230324    0.303545
     32          6           0        1.393928   -1.133679   -0.127410
     33          6           0        0.536355   -2.268363    0.433710
     34          1           0        3.266221   -2.196361   -0.024112
     35          1           0        2.911536   -1.224315    1.400824
     36          1           0        1.343684   -1.139726   -1.223793
     37          1           0        0.988784   -0.167533    0.199755
     38          1           0        0.556711   -2.261558    1.528306
     39          1           0        0.913627   -3.239274    0.096670
     40          1           0       -0.506380   -2.179740    0.113226
 ---------------------------------------------------------------------

 SCF Done:  E(RHF) =  -470.733130594     A.U. after   11 cycles
 E2 =    -0.1583358151D+01 EUMP2 =    -0.47231648874490D+03

 The electronic state is 1-A.
 Alpha  occ. eigenvalues --  -11.21608 -11.21596 -11.21581 -11.21555 -11.21413
 Alpha  occ. eigenvalues --  -11.21393 -11.21354 -11.21333 -11.21085 -11.21073
 Alpha  occ. eigenvalues --  -11.21068 -11.21065  -1.08450  -1.08407  -1.03552
 Alpha  occ. eigenvalues --   -1.03504  -0.95989  -0.95971  -0.87016  -0.86976
 Alpha  occ. eigenvalues --   -0.79695  -0.79497  -0.78320  -0.78165  -0.65147
 Alpha  occ. eigenvalues --   -0.64989  -0.61044  -0.60822  -0.59397  -0.59301
 Alpha  occ. eigenvalues --   -0.57612  -0.57573  -0.55279  -0.55262  -0.52716
 Alpha  occ. eigenvalues --   -0.52651  -0.52444  -0.52353  -0.49983  -0.49875
 Alpha  occ. eigenvalues --   -0.48132  -0.47737  -0.46844  -0.46446  -0.45922
 Alpha  occ. eigenvalues --   -0.45764  -0.45732  -0.45399  -0.43790  -0.43759
 Alpha virt. eigenvalues --    0.21010   0.23076   0.23816   0.23959   0.26001
 Alpha virt. eigenvalues --    0.26572   0.26878   0.27260   0.28403   0.29205
 Alpha virt. eigenvalues --    0.30036   0.31537   0.31583   0.31862   0.32279

 Mulliken charges:
               1
     1  C   -0.303315
     2  C   -0.299391
     3  C   -0.475879
     4  H    0.149598
     5  H    0.154086
     6  H    0.152051
     7  H    0.151984
     8  H    0.155277
     9  H    0.155149
    10  H    0.160362
    11  C   -0.297484
    12  C   -0.306482
    13  C   -0.475675
    14  H    0.149600
    15  H    0.149392
    16  H    0.152264
    17  H    0.158897
    18  H    0.154873
    19  H    0.155423
    20  H    0.160015
    21  C   -0.298214
    22  C   -0.299624
    23  C   -0.475705
    24  H    0.149682
    25  H    0.149337
    26  H    0.151943
    27  H    0.151889
    28  H    0.155152
    29  H    0.155167
    30  H    0.160240
    31  C   -0.297679
    32  C   -0.305077
    33  C   -0.480611
    34  H    0.149417
    35  H    0.149255
    36  H    0.152100
    37  H    0.157717
    38  H    0.154268
    39  H    0.155483
    40  H    0.164515
 Sum of Mulliken charges =  -0.00000

 Dipole moment (field-independent basis, Debye):
    X=             -0.0132    Y=              0.0048    Z=             -0.0091  Tot=              0.0168
 Quadrupole moment (field-independent basis, Debye-Ang):
   XX=            -85.4187   YY=            -86.0173   ZZ=            -83.3868
   XY=             -1.1436   XZ=              0.2317   YZ=              0.1797

 Normal termination of Gaussian 16 at Thu May  6 03:45:51 2021.
