 Gaussian 16, Revision A.03,
 Gaussian 16:  EM64L-G16RevA.03 25-Dec-2016

 -------------
 #p 6-31g* mp2
 -------------

 ------------------------------------------------------
 Input file generated by CHIRIPA (05-May-2021 14:51:13)
 ------------------------------------------------------
 Symbolic Z-matrix:
 Charge =  0 Multiplicity = 1

                         Standard orientation:
 ---------------------------------------------------------------------
 Center     Atomic      Atomic             Coordinates (Angstroms)
 Number     Number       Type             X           Y           Z
 ---------------------------------------------------------------------
      1          6           0       -4.788768   -0.420257    0.193602
      2          6           0       -6.227883   -0.510198   -0.315163
      3          6           0       -6.903551   -1.831460    0.052986
      4          1           0       -4.208298   -1.257570   -0.217380
      5          1           0       -4.784881   -0.543387    1.285489
      6          1           0       -6.229194   -0.385553   -1.405612
      7          1           0       -6.804947    0.327535    0.096924
      8          1           0       -6.931717   -1.960019    1.139854
      9          1           0       -6.352693   -2.677158   -0.371220
     10          1           0       -7.931431   -1.874463   -0.320475
     11          6           0       -4.099951    0.894856   -0.166591
     12          6           0       -2.660836    0.984798    0.342174
     13          6           0       -1.985168    2.306059   -0.025976
     14          1           0       -4.103838    1.017987   -1.258479
     15          1           0       -4.680421    1.732170    0.244391
     16          1           0       -2.083772    0.147064   -0.069914
     17          1           0       -2.659525    0.860152    1.432622
     18          1           0       -2.536026    3.151757    0.398230
     19          1           0       -1.957002    2.434618   -1.112843
     20          1           0       -0.957288    2.349062    0.347486
     21          6           0        5.128965    0.101375   -0.020330
     22          6           0        6.294911   -0.887829   -0.014843
     23          6           0        7.657915   -0.195134   -0.028632
     24          1           0        5.206123    0.744370   -0.907770
     25          1           0        5.214108    0.762611    0.853118
     26          1           0        6.206830   -1.547899   -0.887290
     27          1           0        6.214863   -1.528669    0.872586
     28          1           0        7.771254    0.449653    0.848867
     29          1           0        7.763175    0.430314   -0.921009
     30          1           0        8.477144   -0.920880   -0.024442
     31          6           0        3.759754   -0.575974   -0.006680
     32          6           0        2.593808    0.413229   -0.012168
     33          6           0        1.230804   -0.279465    0.001622
     34          1           0        3.674611   -1.237211   -0.880129
     35          1           0        3.682596   -1.218969    0.880759
     36          1           0        2.673857    1.054071   -0.899596
     37          1           0        2.681889    1.073300    0.860280
     38          1           0        1.125543   -0.904913    0.893999
     39          1           0        1.117466   -0.924252   -0.875878
     40          1           0        0.411575    0.446281   -0.002569
 ---------------------------------------------------------------------

 SCF Done:  E(RHF) =  -470.732803974     A.U. after   11 cycles
 E2 =    -0.1582846152D+01 EUMP2 =    -0.47231565012651D+03

 The electronic state is 1-A.
 Alpha  occ. eigenvalues --  -11.21592 -11.21587 -11.21581 -11.21566 -11.21390
 Alpha  occ. eigenvalues --  -11.21388 -11.21330 -11.21329 -11.21089 -11.21063
 Alpha  occ. eigenvalues --  -11.21059 -11.20987  -1.08428  -1.08404  -1.03563
 Alpha  occ. eigenvalues --   -1.03477  -0.96041  -0.95904  -0.87028  -0.86948
 Alpha  occ. eigenvalues --   -0.79626  -0.79537  -0.78244  -0.78209  -0.65054
 Alpha  occ. eigenvalues --   -0.65042  -0.60965  -0.60904  -0.59737  -0.59064
 Alpha  occ. eigenvalues --   -0.57811  -0.57305  -0.55273  -0.55236  -0.52884
 Alpha  occ. eigenvalues --   -0.52548  -0.52462  -0.52148  -0.49915  -0.49899
 Alpha  occ. eigenvalues --   -0.47945  -0.47843  -0.46620  -0.46603  -0.45787
 Alpha  occ. eigenvalues --   -0.45753  -0.45699  -0.45689  -0.43795  -0.43708
 Alpha virt. eigenvalues --    0.21931   0.23020   0.23426   0.25100   0.26496
 Alpha virt. eigenvalues --    0.26669   0.26986   0.27249   0.27752   0.28894
 Alpha virt. eigenvalues --    0.30815   0.31142   0.31421   0.31586   0.32192

 Mulliken charges:
               1
     1  C   -0.298353
     2  C   -0.299653
     3  C   -0.475701
     4  H    0.149977
     5  H    0.149511
     6  H    0.151886
     7  H    0.151880
     8  H    0.155163
     9  H    0.155220
    10  H    0.160190
    11  C   -0.297915
    12  C   -0.303503
    13  C   -0.479508
    14  H    0.149436
    15  H    0.149477
    16  H    0.156387
    17  H    0.152093
    18  H    0.156151
    19  H    0.155518
    20  H    0.161470
    21  C   -0.298210
    22  C   -0.299611
    23  C   -0.475690
    24  H    0.149616
    25  H    0.149477
    26  H    0.151880
    27  H    0.151916
    28  H    0.155171
    29  H    0.155166
    30  H    0.160211
    31  C   -0.298372
    32  C   -0.299373
    33  C   -0.485863
    34  H    0.149437
    35  H    0.149608
    36  H    0.151873
    37  H    0.151448
    38  H    0.155016
    39  H    0.154205
    40  H    0.172370
 Sum of Mulliken charges =  -0.00000

 Dipole moment (field-independent basis, Debye):
    X=             -0.0220    Y=              0.0044    Z=             -0.0002  Tot=              0.0224
 Quadrupole moment (field-independent basis, Debye-Ang):
   XX=            -86.3111   YY=            -85.5895   ZZ=            -82.9806
   XY=             -1.0508   XZ=             -0.1684   YZ=              0.5560

 Normal termination of Gaussian 16 at Thu May  6 02:21:08 2021.
