 Gaussian 16, Revision A.03,
 Gaussian 16:  EM64L-G16RevA.03 25-Dec-2016

 -------------
 #p 6-31g* mp2
 -------------

 ------------------------------------------------------
 Input file generated by CHIRIPA (05-May-2021 14:55:20)
 ------------------------------------------------------
 Symbolic Z-matrix:
 Charge =  0 Multiplicity = 1

                         Standard orientation:
 ---------------------------------------------------------------------
 Center     Atomic      Atomic             Coordinates (Angstroms)
 Number     Number       Type             X           Y           Z
 ---------------------------------------------------------------------
      1          6           0        1.128753    1.582343    0.854413
      2          6           0        2.198773    1.992632    0.052389
      3          6           0        3.176912    1.077874   -0.348871
      4          6           0        3.053304   -0.245313    0.072066
      5          6           0        1.999068   -0.684725    0.871311
      6          6           0        1.032486    0.247327    1.260598
      7          1           0        0.373400    2.299667    1.161471
      8          1           0        2.276097    3.028783   -0.264563
      9          1           0        4.015741    1.368478   -0.969622
     10          1           0        1.948977   -1.724358    1.171433
     11          1           0        0.202591   -0.074141    1.883476
     12          7           0        4.082698   -1.222881   -0.346393
     13          8           0        3.951014   -2.382915    0.037818
     14          8           0        5.001731   -0.810555   -1.050668
     15          6           0       -3.790062   -0.587564    0.119707
     16          6           0       -4.950306   -1.359932   -0.508995
     17          6           0       -5.135733   -2.749147    0.102146
     18          1           0       -2.864837   -1.168074    0.001752
     19          1           0       -3.964337   -0.493406    1.200521
     20          1           0       -4.774575   -1.451404   -1.588517
     21          1           0       -5.872842   -0.777429   -0.389698
     22          1           0       -5.335850   -2.674073    1.175887
     23          1           0       -4.231343   -3.351877   -0.029743
     24          1           0       -5.970397   -3.283760   -0.361949
     25          6           0       -3.592075    0.803111   -0.480750
     26          6           0       -2.431831    1.575479    0.147952
     27          6           0       -2.246404    2.964694   -0.463190
     28          1           0       -3.417800    0.708954   -1.561564
     29          1           0       -4.517300    1.383621   -0.362795
     30          1           0       -1.509295    0.992976    0.028655
     31          1           0       -2.607562    1.666951    1.227473
     32          1           0       -3.150794    3.567424   -0.331300
     33          1           0       -2.046287    2.889620   -1.536930
     34          1           0       -1.411741    3.499307    0.000906
 ---------------------------------------------------------------------

 SCF Done:  E(RHF) =  -669.534186045     A.U. after   15 cycles
 E2 =    -0.2093332875D+01 EUMP2 =    -0.67162751892038D+03

 The electronic state is 1-A.
 Alpha  occ. eigenvalues --  -20.60761 -20.60756 -15.85815 -11.31177 -11.27760
 Alpha  occ. eigenvalues --  -11.27750 -11.27438 -11.26748 -11.26726 -11.22534
 Alpha  occ. eigenvalues --  -11.22161 -11.22136 -11.22105 -11.22029 -11.21482
 Alpha  occ. eigenvalues --   -1.59837  -1.39391  -1.19360  -1.09179  -1.08743
 Alpha  occ. eigenvalues --   -1.04762  -1.04282  -0.96733  -0.95579  -0.87739
 Alpha  occ. eigenvalues --   -0.86158  -0.82418  -0.80379  -0.78973  -0.77459
 Alpha  occ. eigenvalues --   -0.72033  -0.71162  -0.70498  -0.65796  -0.65004
 Alpha  occ. eigenvalues --   -0.64762  -0.62109  -0.61656  -0.60175  -0.58390
 Alpha  occ. eigenvalues --   -0.55987  -0.55180  -0.53440  -0.53121  -0.53089
 Alpha  occ. eigenvalues --   -0.52839  -0.50635  -0.48809  -0.48789  -0.48662
 Alpha  occ. eigenvalues --   -0.47377  -0.46504  -0.46399  -0.44797  -0.44531
 Alpha  occ. eigenvalues --   -0.37253  -0.36355
 Alpha virt. eigenvalues --    0.05050   0.11168   0.16483   0.20035   0.22483
 Alpha virt. eigenvalues --    0.23877   0.25451   0.25940   0.26422   0.28206
 Alpha virt. eigenvalues --    0.28883   0.30647   0.30799   0.31339   0.32646

 Mulliken charges:
               1
     1  C   -0.170723
     2  C   -0.220884
     3  C   -0.170843
     4  C    0.158029
     5  C   -0.171945
     6  C   -0.221269
     7  H    0.233399
     8  H    0.223418
     9  H    0.275620
    10  H    0.275557
    11  H    0.225939
    12  N    0.488101
    13  O   -0.460542
    14  O   -0.460510
    15  C   -0.299606
    16  C   -0.300175
    17  C   -0.476361
    18  H    0.149299
    19  H    0.147944
    20  H    0.154046
    21  H    0.152963
    22  H    0.154907
    23  H    0.156207
    24  H    0.162498
    25  C   -0.297321
    26  C   -0.313498
    27  C   -0.476089
    28  H    0.153056
    29  H    0.151455
    30  H    0.160478
    31  H    0.146787
    32  H    0.160384
    33  H    0.161059
    34  H    0.148620
 Sum of Mulliken charges =  -0.00000

 Dipole moment (field-independent basis, Debye):
    X=             -3.7626    Y=              3.3980    Z=              1.3811  Tot=              5.2546
 Quadrupole moment (field-independent basis, Debye-Ang):
   XX=           -115.5085   YY=            -95.1071   ZZ=            -93.5211
   XY=             13.1153   XZ=              2.8256   YZ=             -1.6953

 Normal termination of Gaussian 16 at Thu May  6 20:39:30 2021.
