 Gaussian 16, Revision A.03,
 Gaussian 16:  EM64L-G16RevA.03 25-Dec-2016

 -------------
 #p 6-31g* mp2
 -------------

 ------------------------------------------------------
 Input file generated by CHIRIPA (05-May-2021 14:55:19)
 ------------------------------------------------------
 Symbolic Z-matrix:
 Charge =  0 Multiplicity = 1

                         Standard orientation:
 ---------------------------------------------------------------------
 Center     Atomic      Atomic             Coordinates (Angstroms)
 Number     Number       Type             X           Y           Z
 ---------------------------------------------------------------------
      1          6           0        2.490718   -1.943772   -1.367927
      2          6           0        3.576447   -1.380541   -0.689337
      3          6           0        3.464403   -0.121851   -0.091263
      4          6           0        2.246448    0.548819   -0.191657
      5          6           0        1.146612    0.014180   -0.860844
      6          6           0        1.281398   -1.245845   -1.451367
      7          1           0        2.586590   -2.922072   -1.829593
      8          1           0        4.516831   -1.920277   -0.622940
      9          1           0        4.288969    0.337588    0.440175
     10          1           0        0.221937    0.576281   -0.910211
     11          1           0        0.436533   -1.680805   -1.977730
     12          7           0        2.115794    1.882044    0.437501
     13          8           0        1.032013    2.452587    0.334851
     14          8           0        3.099642    2.331239    1.021371
     15          6           0       -3.638541   -0.247901    0.266733
     16          6           0       -3.858613    0.773237   -0.849882
     17          6           0       -5.335138    1.109791   -1.060601
     18          1           0       -4.195156   -1.165250    0.030944
     19          1           0       -4.063265    0.143910    1.201340
     20          1           0       -3.432375    0.380213   -1.781799
     21          1           0       -3.301256    1.688193   -0.611501
     22          1           0       -5.769768    1.525816   -0.145932
     23          1           0       -5.901633    0.210405   -1.322879
     24          1           0       -5.469521    1.841505   -1.863343
     25          6           0       -2.167491   -0.594562    0.489363
     26          6           0       -1.947420   -1.615700    1.605978
     27          6           0       -0.470896   -1.952253    1.816696
     28          1           0       -1.742768   -0.986373   -0.445244
     29          1           0       -1.610877    0.322787    0.725152
     30          1           0       -2.504777   -2.530656    1.367597
     31          1           0       -2.373658   -1.222676    2.537895
     32          1           0        0.095599   -1.052867    2.078974
     33          1           0       -0.036265   -2.368278    0.902027
     34          1           0       -0.336512   -2.683967    2.619439
 ---------------------------------------------------------------------

 SCF Done:  E(RHF) =  -669.533676170     A.U. after   15 cycles
 E2 =    -0.2095236601D+01 EUMP2 =    -0.67162891277128D+03

 The electronic state is 1-A.
 Alpha  occ. eigenvalues --  -20.60810 -20.60803 -15.85850 -11.31134 -11.27735
 Alpha  occ. eigenvalues --  -11.27639 -11.27484 -11.26729 -11.26694 -11.21803
 Alpha  occ. eigenvalues --  -11.21749 -11.21718 -11.21556 -11.21149 -11.21102
 Alpha  occ. eigenvalues --   -1.59878  -1.39433  -1.19332  -1.08746  -1.08662
 Alpha  occ. eigenvalues --   -1.04739  -1.03674  -0.96139  -0.95583  -0.87159
 Alpha  occ. eigenvalues --   -0.86134  -0.82431  -0.79766  -0.78607  -0.77402
 Alpha  occ. eigenvalues --   -0.72070  -0.71198  -0.70443  -0.65337  -0.64967
 Alpha  occ. eigenvalues --   -0.64718  -0.62105  -0.61071  -0.59513  -0.57784
 Alpha  occ. eigenvalues --   -0.55435  -0.55247  -0.53265  -0.52894  -0.52774
 Alpha  occ. eigenvalues --   -0.52346  -0.50081  -0.48830  -0.48824  -0.48025
 Alpha  occ. eigenvalues --   -0.46793  -0.46024  -0.45937  -0.44827  -0.43964
 Alpha  occ. eigenvalues --   -0.37305  -0.36197
 Alpha virt. eigenvalues --    0.05039   0.11197   0.16448   0.20444   0.22998
 Alpha virt. eigenvalues --    0.24178   0.25226   0.25771   0.27591   0.28278
 Alpha virt. eigenvalues --    0.29961   0.30606   0.31479   0.31583   0.31923

 Mulliken charges:
               1
     1  C   -0.170374
     2  C   -0.218505
     3  C   -0.170613
     4  C    0.156094
     5  C   -0.164233
     6  C   -0.222495
     7  H    0.225472
     8  H    0.223291
     9  H    0.275350
    10  H    0.281091
    11  H    0.223284
    12  N    0.488309
    13  O   -0.462520
    14  O   -0.459947
    15  C   -0.296894
    16  C   -0.302536
    17  C   -0.475629
    18  H    0.148330
    19  H    0.153576
    20  H    0.145530
    21  H    0.159679
    22  H    0.157420
    23  H    0.154017
    24  H    0.161511
    25  C   -0.308455
    26  C   -0.298488
    27  C   -0.478676
    28  H    0.136245
    29  H    0.163172
    30  H    0.149869
    31  H    0.155650
    32  H    0.157804
    33  H    0.154607
    34  H    0.159062
 Sum of Mulliken charges =  -0.00000

 Dipole moment (field-independent basis, Debye):
    X=              0.4340    Y=             -4.5823    Z=             -2.1348  Tot=              5.0738
 Quadrupole moment (field-independent basis, Debye-Ang):
   XX=            -89.0311   YY=           -100.2869   ZZ=            -93.7629
   XY=            -10.6870   XZ=             -3.8689   YZ=              0.3053

 Normal termination of Gaussian 16 at Thu May  6 02:54:08 2021.
