 Gaussian 16, Revision A.03,
 Gaussian 16:  EM64L-G16RevA.03 25-Dec-2016

 -------------
 #p 6-31g* mp2
 -------------

 ------------------------------------------------------
 Input file generated by CHIRIPA (05-May-2021 14:55:20)
 ------------------------------------------------------
 Symbolic Z-matrix:
 Charge =  0 Multiplicity = 1

                         Standard orientation:
 ---------------------------------------------------------------------
 Center     Atomic      Atomic             Coordinates (Angstroms)
 Number     Number       Type             X           Y           Z
 ---------------------------------------------------------------------
      1          6           0        4.967149    0.437752   -0.147635
      2          6           0        4.397105   -0.477341   -1.038800
      3          6           0        3.049616   -0.832599   -0.926488
      4          6           0        2.298060   -0.250863    0.093334
      5          6           0        2.837159    0.663857    0.996634
      6          6           0        4.186732    1.004431    0.865452
      7          1           0        6.014720    0.708021   -0.242211
      8          1           0        5.000783   -0.919017   -1.826544
      9          1           0        2.582851   -1.538395   -1.602801
     10          1           0        2.210051    1.087438    1.771704
     11          1           0        4.626767    1.715381    1.558968
     12          7           0        0.870431   -0.619186    0.222222
     13          8           0        0.229696   -0.092574    1.129292
     14          8           0        0.419222   -1.427515   -0.586265
     15          6           0       -3.262431   -0.463474   -0.381009
     16          6           0       -3.488464   -1.544373    0.676607
     17          6           0       -3.525507   -2.953165    0.083542
     18          1           0       -4.059286   -0.524684   -1.134814
     19          1           0       -2.318886   -0.666040   -0.906447
     20          1           0       -4.430615   -1.339054    1.200833
     21          1           0       -2.691087   -1.480460    1.428086
     22          1           0       -2.582560   -3.182756   -0.423153
     23          1           0       -4.331972   -3.040546   -0.651698
     24          1           0       -3.688096   -3.710225    0.857032
     25          6           0       -3.222947    0.950281    0.196454
     26          6           0       -2.996914    2.031180   -0.861162
     27          6           0       -2.959872    3.439972   -0.268097
     28          1           0       -4.166492    1.152846    0.721892
     29          1           0       -2.426093    1.011490    0.950259
     30          1           0       -3.794292    1.967266   -1.612640
     31          1           0       -2.054763    1.825861   -1.385387
     32          1           0       -2.153406    3.527353    0.467143
     33          1           0       -3.902818    3.669562    0.238599
     34          1           0       -2.797282    4.197032   -1.041587
 ---------------------------------------------------------------------

 SCF Done:  E(RHF) =  -669.537312766     A.U. after   15 cycles
 E2 =    -0.2093191315D+01 EUMP2 =    -0.67163050408052D+03

 The electronic state is 1-A.
 Alpha  occ. eigenvalues --  -20.61331 -20.61326 -15.86305 -11.31502 -11.28041
 Alpha  occ. eigenvalues --  -11.28038 -11.27756 -11.27016 -11.27007 -11.20344
 Alpha  occ. eigenvalues --  -11.20119 -11.19682 -11.19578 -11.19382 -11.19338
 Alpha  occ. eigenvalues --   -1.60348  -1.39910  -1.19651  -1.09081  -1.06699
 Alpha  occ. eigenvalues --   -1.05025  -1.01985  -0.95942  -0.94441  -0.86432
 Alpha  occ. eigenvalues --   -0.85480  -0.82782  -0.78082  -0.77851  -0.76474
 Alpha  occ. eigenvalues --   -0.72512  -0.71647  -0.70758  -0.65308  -0.65035
 Alpha  occ. eigenvalues --   -0.63300  -0.62372  -0.59376  -0.57867  -0.56064
 Alpha  occ. eigenvalues --   -0.55533  -0.53725  -0.53353  -0.53114  -0.51248
 Alpha  occ. eigenvalues --   -0.50895  -0.49312  -0.49269  -0.48368  -0.46414
 Alpha  occ. eigenvalues --   -0.45412  -0.45028  -0.43991  -0.43750  -0.42170
 Alpha  occ. eigenvalues --   -0.37620  -0.36618
 Alpha virt. eigenvalues --    0.04631   0.11040   0.16145   0.21162   0.24579
 Alpha virt. eigenvalues --    0.25813   0.27118   0.27889   0.28629   0.29098
 Alpha virt. eigenvalues --    0.29516   0.30848   0.32283   0.32819   0.33017

 Mulliken charges:
               1
     1  C   -0.170040
     2  C   -0.218616
     3  C   -0.170210
     4  C    0.158226
     5  C   -0.170351
     6  C   -0.218591
     7  H    0.226841
     8  H    0.224621
     9  H    0.276292
    10  H    0.276094
    11  H    0.224642
    12  N    0.490201
    13  O   -0.459420
    14  O   -0.458170
    15  C   -0.302476
    16  C   -0.299082
    17  C   -0.478306
    18  H    0.137712
    19  H    0.170016
    20  H    0.141383
    21  H    0.164912
    22  H    0.165417
    23  H    0.147287
    24  H    0.152253
    25  C   -0.304516
    26  C   -0.297100
    27  C   -0.474613
    28  H    0.140064
    29  H    0.168796
    30  H    0.147248
    31  H    0.148807
    32  H    0.153600
    33  H    0.152936
    34  H    0.154145
 Sum of Mulliken charges =  -0.00000

 Dipole moment (field-independent basis, Debye):
    X=              5.6635    Y=              1.1941    Z=             -0.3768  Tot=              5.8003
 Quadrupole moment (field-independent basis, Debye-Ang):
   XX=            -73.0177   YY=            -96.2519   ZZ=            -92.2217
   XY=              1.3797   XZ=             -1.1011   YZ=              3.0555

 Normal termination of Gaussian 16 at Thu May  6 09:16:54 2021.
