 Gaussian 16, Revision A.03,
 Gaussian 16:  EM64L-G16RevA.03 25-Dec-2016

 -------------
 #p 6-31g* mp2
 -------------

 ------------------------------------------------------
 Input file generated by CHIRIPA (05-May-2021 14:57:23)
 ------------------------------------------------------
 Symbolic Z-matrix:
 Charge =  0 Multiplicity = 1

                         Standard orientation:
 ---------------------------------------------------------------------
 Center     Atomic      Atomic             Coordinates (Angstroms)
 Number     Number       Type             X           Y           Z
 ---------------------------------------------------------------------
      1          6           0        1.931401    0.591647    1.326911
      2          6           0        2.744562    1.604298    0.807460
      3          6           0        3.943972    1.290461    0.161342
      4          6           0        4.301151   -0.052575    0.051939
      5          6           0        3.512423   -1.084093    0.559057
      6          6           0        2.317247   -0.746956    1.201273
      7          1           0        1.001315    0.844493    1.827316
      8          1           0        2.447429    2.644740    0.903574
      9          1           0        4.592414    2.054490   -0.249998
     10          1           0        3.835175   -2.112143    0.447874
     11          1           0        1.687720   -1.535484    1.603722
     12          7           0        5.568672   -0.397153   -0.630012
     13          8           0        5.860927   -1.588063   -0.713418
     14          8           0        6.245898    0.530202   -1.068207
     15          6           0       -1.621230    0.503923   -0.206611
     16          6           0       -2.062572   -0.809936   -0.018165
     17          6           0       -3.429307   -1.103111    0.007012
     18          6           0       -4.331137   -0.053341   -0.160246
     19          6           0       -3.922576    1.265897   -0.349923
     20          6           0       -2.551002    1.535827   -0.371597
     21          1           0       -0.557638    0.722640   -0.224809
     22          1           0       -1.342767   -1.613330    0.110231
     23          1           0       -3.798472   -2.111249    0.151202
     24          1           0       -4.664012    2.045652   -0.475112
     25          1           0       -2.211131    2.557132   -0.518126
     26          7           0       -5.780600   -0.351408   -0.135446
     27          8           0       -6.554936    0.591260   -0.285167
     28          8           0       -6.114906   -1.522058    0.033243
 ---------------------------------------------------------------------

 SCF Done:  E(RHF) =  -868.336945717     A.U. after   16 cycles
 E2 =    -0.2600735709D+01 EUMP2 =    -0.87093768142668D+03

 The electronic state is 1-A.
 Alpha  occ. eigenvalues --  -20.61539 -20.61534 -20.61247 -20.61242 -15.86600
 Alpha  occ. eigenvalues --  -15.86306 -11.32191 -11.31792 -11.28770 -11.28757
 Alpha  occ. eigenvalues --  -11.28594 -11.28381 -11.28365 -11.28112 -11.27893
 Alpha  occ. eigenvalues --  -11.27864 -11.27457 -11.27419  -1.60609  -1.60321
 Alpha  occ. eigenvalues --   -1.40156  -1.39871  -1.20396  -1.19981  -1.09777
 Alpha  occ. eigenvalues --   -1.09358  -1.05815  -1.05403  -0.96570  -0.96161
 Alpha  occ. eigenvalues --   -0.87213  -0.86799  -0.83383  -0.82992  -0.78364
 Alpha  occ. eigenvalues --   -0.78023  -0.72812  -0.72520  -0.71935  -0.71704
 Alpha  occ. eigenvalues --   -0.71646  -0.70928  -0.66045  -0.65834  -0.65632
 Alpha  occ. eigenvalues --   -0.65408  -0.63141  -0.62744  -0.56539  -0.55782
 Alpha  occ. eigenvalues --   -0.54085  -0.53906  -0.53721  -0.53497  -0.49590
 Alpha  occ. eigenvalues --   -0.49554  -0.49290  -0.49268  -0.45511  -0.45249
 Alpha  occ. eigenvalues --   -0.38439  -0.37967  -0.37420  -0.37011
 Alpha virt. eigenvalues --    0.04081   0.04515   0.10154   0.10626   0.15370
 Alpha virt. eigenvalues --    0.15926   0.19399   0.21743   0.24974   0.26872
 Alpha virt. eigenvalues --    0.27428   0.28868   0.29395   0.30912   0.31487

 Mulliken charges:
               1
     1  C   -0.182195
     2  C   -0.220842
     3  C   -0.169254
     4  C    0.160088
     5  C   -0.169383
     6  C   -0.222437
     7  H    0.229231
     8  H    0.225346
     9  H    0.278938
    10  H    0.278789
    11  H    0.223904
    12  N    0.487877
    13  O   -0.457691
    14  O   -0.457631
    15  C   -0.180389
    16  C   -0.221934
    17  C   -0.169812
    18  C    0.159008
    19  C   -0.169824
    20  C   -0.219948
    21  H    0.230121
    22  H    0.220404
    23  H    0.277085
    24  H    0.277299
    25  H    0.223216
    26  N    0.487962
    27  O   -0.458880
    28  O   -0.459047
 Sum of Mulliken charges =  -0.00000

 Dipole moment (field-independent basis, Debye):
    X=              0.8233    Y=              2.2496    Z=              2.2710  Tot=              3.3009
 Quadrupole moment (field-independent basis, Debye-Ang):
   XX=           -186.4353   YY=            -95.4760   ZZ=           -105.9149
   XY=              0.4927   XZ=              9.7360   YZ=             -1.9864

 Normal termination of Gaussian 16 at Wed May  5 17:50:52 2021.
