 Gaussian 16, Revision A.03,
 Gaussian 16:  EM64L-G16RevA.03 25-Dec-2016

 -------------
 #p 6-31g* mp2
 -------------

 ------------------------------------------------------
 Input file generated by CHIRIPA (05-May-2021 14:55:23)
 ------------------------------------------------------
 Symbolic Z-matrix:
 Charge =  0 Multiplicity = 1

                         Standard orientation:
 ---------------------------------------------------------------------
 Center     Atomic      Atomic             Coordinates (Angstroms)
 Number     Number       Type             X           Y           Z
 ---------------------------------------------------------------------
      1          6           0       -4.520870    0.807632   -0.501934
      2          6           0       -4.111314   -0.257444   -1.310883
      3          6           0       -2.979986   -1.008099   -0.977471
      4          6           0       -2.278591   -0.664522    0.177211
      5          6           0       -2.661463    0.390924    1.003487
      6          6           0       -3.795915    1.127852    0.650638
      7          1           0       -5.400925    1.385427   -0.768486
      8          1           0       -4.672390   -0.508400   -2.206573
      9          1           0       -2.640705   -1.837687   -1.585820
     10          1           0       -2.081791    0.617179    1.890171
     11          1           0       -4.111653    1.954474    1.280756
     12          7           0       -1.079251   -1.451941    0.540468
     13          8           0       -0.478512   -1.129063    1.562965
     14          8           0       -0.762657   -2.377087   -0.204186
     15          6           0        3.929543    0.654569   -0.221169
     16          6           0        4.491824   -0.764321   -0.128551
     17          6           0        6.013410   -0.807777   -0.272362
     18          1           0        4.220987    1.095500   -1.184281
     19          1           0        4.390423    1.275800    0.559251
     20          1           0        4.028993   -1.383040   -0.908032
     21          1           0        4.198845   -1.201994    0.834372
     22          1           0        6.491730   -0.213949    0.513247
     23          1           0        6.320913   -0.396022   -1.239058
     24          1           0        6.394135   -1.831549   -0.203100
     25          6           0        2.409673    0.714382   -0.079225
     26          6           0        1.847392    2.133270   -0.171843
     27          6           0        0.325806    2.176726   -0.028032
     28          1           0        1.948793    0.093150   -0.859645
     29          1           0        2.118229    0.273450    0.883887
     30          1           0        2.140371    2.570944   -1.134766
     31          1           0        2.310223    2.751989    0.607638
     32          1           0        0.018304    1.764971    0.938664
     33          1           0       -0.152513    1.582899   -0.813640
     34          1           0       -0.054919    3.200500   -0.097295
 ---------------------------------------------------------------------

 SCF Done:  E(RHF) =  -669.535277889     A.U. after   15 cycles
 E2 =    -0.2093920290D+01 EUMP2 =    -0.67162919817907D+03

 The electronic state is 1-A.
 Alpha  occ. eigenvalues --  -20.60906 -20.60880 -15.85904 -11.31187 -11.27785
 Alpha  occ. eigenvalues --  -11.27768 -11.27514 -11.26773 -11.26758 -11.21027
 Alpha  occ. eigenvalues --  -11.20730 -11.20697 -11.20568 -11.20359 -11.20357
 Alpha  occ. eigenvalues --   -1.59937  -1.39500  -1.19380  -1.08785  -1.07632
 Alpha  occ. eigenvalues --   -1.04778  -1.02861  -0.95638  -0.95324  -0.86405
 Alpha  occ. eigenvalues --   -0.86140  -0.82474  -0.78930  -0.77551  -0.77376
 Alpha  occ. eigenvalues --   -0.72142  -0.71232  -0.70504  -0.65039  -0.64792
 Alpha  occ. eigenvalues --   -0.64261  -0.62148  -0.60262  -0.58695  -0.56948
 Alpha  occ. eigenvalues --   -0.55293  -0.54623  -0.53217  -0.52875  -0.52046
 Alpha  occ. eigenvalues --   -0.51668  -0.49321  -0.48895  -0.48853  -0.47254
 Alpha  occ. eigenvalues --   -0.45972  -0.45240  -0.44916  -0.44424  -0.43067
 Alpha  occ. eigenvalues --   -0.37327  -0.36337
 Alpha virt. eigenvalues --    0.04960   0.11257   0.16445   0.21217   0.23605
 Alpha virt. eigenvalues --    0.24727   0.26633   0.27528   0.27764   0.28660
 Alpha virt. eigenvalues --    0.28833   0.30634   0.31510   0.32154   0.32469

 Mulliken charges:
               1
     1  C   -0.170328
     2  C   -0.218728
     3  C   -0.172158
     4  C    0.160158
     5  C   -0.165571
     6  C   -0.219233
     7  H    0.225673
     8  H    0.223343
     9  H    0.275391
    10  H    0.274737
    11  H    0.223556
    12  N    0.490041
    13  O   -0.460720
    14  O   -0.459650
    15  C   -0.298189
    16  C   -0.299624
    17  C   -0.475470
    18  H    0.145263
    19  H    0.146497
    20  H    0.154579
    21  H    0.157417
    22  H    0.153033
    23  H    0.152418
    24  H    0.159497
    25  C   -0.305286
    26  C   -0.298284
    27  C   -0.480318
    28  H    0.149846
    29  H    0.169270
    30  H    0.148449
    31  H    0.149609
    32  H    0.158746
    33  H    0.152032
    34  H    0.154003
 Sum of Mulliken charges =  -0.00000

 Dipole moment (field-independent basis, Debye):
    X=             -4.3600    Y=              2.5931    Z=             -1.1676  Tot=              5.2055
 Quadrupole moment (field-independent basis, Debye-Ang):
   XX=            -77.8714   YY=            -97.8084   ZZ=            -91.2075
   XY=             -3.3815   XZ=              3.3145   YZ=              4.2412

 Normal termination of Gaussian 16 at Wed May  5 16:02:55 2021.
