 Gaussian 16, Revision A.03,
 Gaussian 16:  EM64L-G16RevA.03 25-Dec-2016

 -------------
 #p 6-31g* mp2
 -------------

 ------------------------------------------------------
 Input file generated by CHIRIPA (05-May-2021 14:55:21)
 ------------------------------------------------------
 Symbolic Z-matrix:
 Charge =  0 Multiplicity = 1

                         Standard orientation:
 ---------------------------------------------------------------------
 Center     Atomic      Atomic             Coordinates (Angstroms)
 Number     Number       Type             X           Y           Z
 ---------------------------------------------------------------------
      1          6           0       -4.691592    1.680189    0.813820
      2          6           0       -5.134517    0.438984    0.345048
      3          6           0       -4.244940   -0.445523   -0.272080
      4          6           0       -2.913381   -0.054741   -0.404486
      5          6           0       -2.441688    1.174977    0.052228
      6          6           0       -3.348958    2.043584    0.666174
      7          1           0       -5.389510    2.361120    1.291985
      8          1           0       -6.176656    0.154110    0.458353
      9          1           0       -4.561016   -1.412534   -0.644107
     10          1           0       -1.396847    1.430961   -0.075044
     11          1           0       -3.002166    3.006880    1.029273
     12          7           0       -1.962260   -0.982713   -1.056128
     13          8           0       -0.794208   -0.614800   -1.160684
     14          8           0       -2.402833   -2.060398   -1.449989
     15          6           0        4.187407    0.531633    0.088762
     16          6           0        5.611265    0.434776   -0.460085
     17          6           0        6.112607    1.757777   -1.039845
     18          1           0        3.513407    0.860661   -0.713989
     19          1           0        4.152933    1.309346    0.864242
     20          1           0        5.643351   -0.343480   -1.233328
     21          1           0        6.281922    0.105755    0.344017
     22          1           0        6.109331    2.539928   -0.273797
     23          1           0        5.467132    2.088139   -1.860103
     24          1           0        7.132364    1.665875   -1.426509
     25          6           0        3.672145   -0.783024    0.671781
     26          6           0        2.248288   -0.686167    1.220629
     27          6           0        1.746945   -2.009167    1.800389
     28          1           0        3.706620   -1.560738   -0.103698
     29          1           0        4.346145   -1.112053    1.474532
     30          1           0        1.577631   -0.357147    0.416527
     31          1           0        2.216200    0.092089    1.993871
     32          1           0        2.392420   -2.339531    2.620647
     33          1           0        1.750220   -2.791319    1.034341
     34          1           0        0.727188   -1.917265    2.187052
 ---------------------------------------------------------------------

 SCF Done:  E(RHF) =  -669.536247432     A.U. after   15 cycles
 E2 =    -0.2091090775D+01 EUMP2 =    -0.67162733820683D+03

 The electronic state is 1-A.
 Alpha  occ. eigenvalues --  -20.60943 -20.60935 -15.85975 -11.31281 -11.27844
 Alpha  occ. eigenvalues --  -11.27840 -11.27582 -11.26851 -11.26840 -11.21082
 Alpha  occ. eigenvalues --  -11.20758 -11.20664 -11.20622 -11.20562 -11.20182
 Alpha  occ. eigenvalues --   -1.60000  -1.39557  -1.19450  -1.08857  -1.07716
 Alpha  occ. eigenvalues --   -1.04845  -1.02815  -0.95702  -0.95291  -0.86313
 Alpha  occ. eigenvalues --   -0.86246  -0.82539  -0.78903  -0.77627  -0.77485
 Alpha  occ. eigenvalues --   -0.72205  -0.71312  -0.70560  -0.65110  -0.64848
 Alpha  occ. eigenvalues --   -0.64328  -0.62192  -0.60187  -0.58681  -0.56905
 Alpha  occ. eigenvalues --   -0.55351  -0.54571  -0.53177  -0.52937  -0.52004
 Alpha  occ. eigenvalues --   -0.51724  -0.49235  -0.48959  -0.48950  -0.47225
 Alpha  occ. eigenvalues --   -0.45931  -0.45174  -0.45047  -0.44719  -0.43085
 Alpha  occ. eigenvalues --   -0.37429  -0.36445
 Alpha virt. eigenvalues --    0.04913   0.11207   0.16387   0.21227   0.23566
 Alpha virt. eigenvalues --    0.24907   0.26781   0.27416   0.27765   0.28630
 Alpha virt. eigenvalues --    0.28763   0.30697   0.31789   0.32197   0.32637

 Mulliken charges:
               1
     1  C   -0.170574
     2  C   -0.218588
     3  C   -0.170851
     4  C    0.157976
     5  C   -0.170666
     6  C   -0.218643
     7  H    0.225976
     8  H    0.223780
     9  H    0.275799
    10  H    0.276274
    11  H    0.223979
    12  N    0.491598
    13  O   -0.463706
    14  O   -0.458862
    15  C   -0.298563
    16  C   -0.299215
    17  C   -0.475396
    18  H    0.152550
    19  H    0.145127
    20  H    0.153268
    21  H    0.150361
    22  H    0.153009
    23  H    0.155227
    24  H    0.158901
    25  C   -0.297421
    26  C   -0.310122
    27  C   -0.472470
    28  H    0.153091
    29  H    0.145566
    30  H    0.174580
    31  H    0.141985
    32  H    0.149284
    33  H    0.161712
    34  H    0.155035
 Sum of Mulliken charges =  -0.00000

 Dipole moment (field-independent basis, Debye):
    X=             -3.5810    Y=              3.2179    Z=              2.1410  Tot=              5.2690
 Quadrupole moment (field-independent basis, Debye-Ang):
   XX=            -73.5229   YY=            -94.0187   ZZ=            -97.1590
   XY=             -7.2686   XZ=             -4.7518   YZ=             -0.0214

 Normal termination of Gaussian 16 at Thu May  6 01:23:47 2021.
