 Gaussian 16, Revision A.03,
 Gaussian 16:  EM64L-G16RevA.03 25-Dec-2016

 -------------
 #p 6-31g* mp2
 -------------

 ------------------------------------------------------
 Input file generated by CHIRIPA (05-May-2021 14:57:26)
 ------------------------------------------------------
 Symbolic Z-matrix:
 Charge =  0 Multiplicity = 1

                         Standard orientation:
 ---------------------------------------------------------------------
 Center     Atomic      Atomic             Coordinates (Angstroms)
 Number     Number       Type             X           Y           Z
 ---------------------------------------------------------------------
      1          6           0        1.471696    0.224723    2.042285
      2          6           0        2.467678    1.182440    1.824751
      3          6           0        3.450538    0.976361    0.852093
      4          6           0        3.407097   -0.204070    0.111833
      5          6           0        2.427781   -1.177156    0.305055
      6          6           0        1.454956   -0.949947    1.283081
      7          1           0        0.712084    0.393018    2.799954
      8          1           0        2.483153    2.095636    2.412865
      9          1           0        4.233069    1.701126    0.662939
     10          1           0        2.438436   -2.077653   -0.296949
     11          1           0        0.682666   -1.695469    1.449846
     12          7           0        4.442296   -0.433422   -0.920719
     13          8           0        4.382004   -1.481675   -1.559597
     14          8           0        5.294374    0.439409   -1.071602
     15          6           0       -5.109956   -1.462811    0.167568
     16          6           0       -3.781037   -1.898090    0.199668
     17          6           0       -2.734957   -1.004231   -0.047882
     18          6           0       -3.055364    0.323764   -0.325473
     19          6           0       -4.369281    0.787851   -0.364651
     20          6           0       -5.399326   -0.123592   -0.113992
     21          1           0       -5.916348   -2.164011    0.361078
     22          1           0       -3.553340   -2.937562    0.418060
     23          1           0       -1.697227   -1.314379   -0.029381
     24          1           0       -4.564978    1.830191   -0.585215
     25          1           0       -6.430445    0.217265   -0.139587
     26          7           0       -1.956413    1.279359   -0.589189
     27          8           0       -2.265104    2.444140   -0.831332
     28          8           0       -0.807174    0.845479   -0.548752
 ---------------------------------------------------------------------

 SCF Done:  E(RHF) =  -868.336725122     A.U. after   16 cycles
 E2 =    -0.2601126550D+01 EUMP2 =    -0.87093785167146D+03

 The electronic state is 1-A.
 Alpha  occ. eigenvalues --  -20.61290 -20.61270 -20.60059 -20.60050 -15.86318
 Alpha  occ. eigenvalues --  -15.85110 -11.31770 -11.30330 -11.28389 -11.28298
 Alpha  occ. eigenvalues --  -11.28049 -11.27378 -11.27317 -11.26974 -11.26900
 Alpha  occ. eigenvalues --  -11.26689 -11.26039 -11.25876  -1.60361  -1.59133
 Alpha  occ. eigenvalues --   -1.39911  -1.38693  -1.19937  -1.18500  -1.09310
 Alpha  occ. eigenvalues --   -1.07934  -1.05352  -1.03931  -0.96138  -0.94798
 Alpha  occ. eigenvalues --   -0.86742  -0.85360  -0.82967  -0.81667  -0.78020
 Alpha  occ. eigenvalues --   -0.76722  -0.72544  -0.71696  -0.71344  -0.71035
 Alpha  occ. eigenvalues --   -0.70443  -0.69683  -0.65584  -0.65355  -0.64205
 Alpha  occ. eigenvalues --   -0.64028  -0.62703  -0.61329  -0.55823  -0.54484
 Alpha  occ. eigenvalues --   -0.53673  -0.53446  -0.52167  -0.52090  -0.49315
 Alpha  occ. eigenvalues --   -0.49290  -0.48098  -0.48087  -0.45304  -0.44133
 Alpha  occ. eigenvalues --   -0.37906  -0.36961  -0.36373  -0.35460
 Alpha virt. eigenvalues --    0.04484   0.05880   0.10675   0.12111   0.15995
 Alpha virt. eigenvalues --    0.17323   0.20134   0.22061   0.25654   0.27263
 Alpha virt. eigenvalues --    0.28861   0.28980   0.30457   0.31131   0.32802

 Mulliken charges:
               1
     1  C   -0.158675
     2  C   -0.214727
     3  C   -0.167916
     4  C    0.160097
     5  C   -0.168143
     6  C   -0.206095
     7  H    0.220157
     8  H    0.221563
     9  H    0.273880
    10  H    0.270187
    11  H    0.207669
    12  N    0.488391
    13  O   -0.463872
    14  O   -0.461746
    15  C   -0.170585
    16  C   -0.218669
    17  C   -0.174776
    18  C    0.157867
    19  C   -0.170631
    20  C   -0.218167
    21  H    0.227437
    22  H    0.223252
    23  H    0.271914
    24  H    0.277105
    25  H    0.225483
    26  N    0.487998
    27  O   -0.459292
    28  O   -0.459709
 Sum of Mulliken charges =  -0.00000

 Dipole moment (field-independent basis, Debye):
    X=             -7.7101    Y=             -2.3455    Z=              4.5304  Tot=              9.2451
 Quadrupole moment (field-independent basis, Debye-Ang):
   XX=           -103.6264   YY=           -101.4042   ZZ=           -106.0307
   XY=             12.3337   XZ=             11.5636   YZ=              1.4548

 Normal termination of Gaussian 16 at Wed May  5 21:13:24 2021.
