 Gaussian 16, Revision A.03,
 Gaussian 16:  EM64L-G16RevA.03 25-Dec-2016

 -------------
 #p 6-31g* mp2
 -------------

 ------------------------------------------------------
 Input file generated by CHIRIPA (05-May-2021 14:53:11)
 ------------------------------------------------------
 Symbolic Z-matrix:
 Charge =  0 Multiplicity = 1

                         Standard orientation:
 ---------------------------------------------------------------------
 Center     Atomic      Atomic             Coordinates (Angstroms)
 Number     Number       Type             X           Y           Z
 ---------------------------------------------------------------------
      1          6           0       -3.632766   -0.150250   -0.342897
      2          6           0       -5.145466   -0.363409   -0.408369
      3          6           0       -5.525787   -1.815329   -0.700054
      4          1           0       -3.183070   -0.464451   -1.294735
      5          1           0       -3.210645   -0.803805    0.433038
      6          1           0       -5.564790    0.291364   -1.183001
      7          1           0       -5.591635   -0.048485    0.543666
      8          1           0       -5.134720   -2.479629    0.077360
      9          1           0       -5.107723   -2.137849   -1.659119
     10          1           0       -6.611702   -1.945130   -0.742485
     11          6           0       -3.236826    1.296249   -0.052036
     12          6           0       -1.724126    1.509408    0.013437
     13          6           0       -1.343805    2.961328    0.305122
     14          1           0       -3.658947    1.949805   -0.827970
     15          1           0       -3.686522    1.610450    0.899803
     16          1           0       -1.277958    1.194484   -0.938599
     17          1           0       -1.304802    0.854635    0.788069
     18          1           0       -1.761869    3.283848    1.264187
     19          1           0       -1.734872    3.625628   -0.472292
     20          1           0       -0.257890    3.091129    0.347553
     21          6           0        0.821620   -1.546934    1.454716
     22          6           0        1.552396   -2.285676    0.518369
     23          6           0        2.586122   -1.686926   -0.207893
     24          6           0        2.863427   -0.341382    0.028548
     25          6           0        2.153404    0.421210    0.954621
     26          6           0        1.123924   -0.198227    1.669475
     27          1           0        0.020245   -2.020092    2.014462
     28          1           0        1.319832   -3.333266    0.349505
     29          1           0        3.167806   -2.235396   -0.938812
     30          1           0        2.408515    1.463751    1.101053
     31          1           0        0.558064    0.377948    2.396023
     32          7           0        3.955540    0.303439   -0.734274
     33          8           0        4.180193    1.490339   -0.507481
     34          8           0        4.566207   -0.390262   -1.544523
 ---------------------------------------------------------------------

 SCF Done:  E(RHF) =  -669.534572756     A.U. after   15 cycles
 E2 =    -0.2092959065D+01 EUMP2 =    -0.67162753182132D+03

 The electronic state is 1-A.
 Alpha  occ. eigenvalues --  -20.60789 -20.60784 -15.85842 -11.31223 -11.27774
 Alpha  occ. eigenvalues --  -11.27769 -11.27520 -11.26808 -11.26798 -11.22048
 Alpha  occ. eigenvalues --  -11.21976 -11.21900 -11.21803 -11.21527 -11.21519
 Alpha  occ. eigenvalues --   -1.59863  -1.39417  -1.19392  -1.08905  -1.08779
 Alpha  occ. eigenvalues --   -1.04806  -1.03976  -0.96440  -0.95618  -0.87452
 Alpha  occ. eigenvalues --   -0.86204  -0.82453  -0.80041  -0.78716  -0.77493
 Alpha  occ. eigenvalues --   -0.72060  -0.71186  -0.70496  -0.65574  -0.65046
 Alpha  occ. eigenvalues --   -0.64798  -0.62189  -0.61357  -0.59807  -0.58056
 Alpha  occ. eigenvalues --   -0.55741  -0.55292  -0.53221  -0.53040  -0.52912
 Alpha  occ. eigenvalues --   -0.52839  -0.50379  -0.48824  -0.48814  -0.48345
 Alpha  occ. eigenvalues --   -0.47077  -0.46251  -0.46185  -0.44819  -0.44239
 Alpha  occ. eigenvalues --   -0.37329  -0.36327
 Alpha virt. eigenvalues --    0.05009   0.11152   0.16452   0.20234   0.22751
 Alpha virt. eigenvalues --    0.23752   0.25839   0.26405   0.26780   0.28510
 Alpha virt. eigenvalues --    0.28588   0.29861   0.31111   0.31436   0.31813

 Mulliken charges:
               1
     1  C   -0.296534
     2  C   -0.299899
     3  C   -0.475611
     4  H    0.151764
     5  H    0.142329
     6  H    0.154138
     7  H    0.151786
     8  H    0.152517
     9  H    0.156070
    10  H    0.161905
    11  C   -0.298527
    12  C   -0.301187
    13  C   -0.477954
    14  H    0.151899
    15  H    0.147966
    16  H    0.156118
    17  H    0.147307
    18  H    0.152666
    19  H    0.159989
    20  H    0.158807
    21  C   -0.170371
    22  C   -0.217877
    23  C   -0.171173
    24  C    0.158607
    25  C   -0.171853
    26  C   -0.215230
    27  H    0.225507
    28  H    0.223712
    29  H    0.275650
    30  H    0.275718
    31  H    0.224352
    32  N    0.488031
    33  O   -0.460329
    34  O   -0.460293
 Sum of Mulliken charges =  -0.00000

 Dipole moment (field-independent basis, Debye):
    X=             -3.8622    Y=             -2.2711    Z=              2.6086  Tot=              5.1845
 Quadrupole moment (field-independent basis, Debye-Ang):
   XX=           -117.5387   YY=            -90.5833   ZZ=            -93.0875
   XY=             -6.6110   XZ=              7.2677   YZ=              0.8410

 Normal termination of Gaussian 16 at Thu May  6 02:30:03 2021.
