 Gaussian 16, Revision A.03,
 Gaussian 16:  EM64L-G16RevA.03 25-Dec-2016

 -------------
 #p 6-31g* mp2
 -------------

 ------------------------------------------------------
 Input file generated by CHIRIPA (05-May-2021 14:53:13)
 ------------------------------------------------------
 Symbolic Z-matrix:
 Charge =  0 Multiplicity = 1

                         Standard orientation:
 ---------------------------------------------------------------------
 Center     Atomic      Atomic             Coordinates (Angstroms)
 Number     Number       Type             X           Y           Z
 ---------------------------------------------------------------------
      1          6           0        3.262949    0.610286   -0.007783
      2          6           0        3.684903    1.975615    0.536108
      3          6           0        2.592656    3.034988    0.386051
      4          1           0        2.992473    0.712549   -1.067655
      5          1           0        2.355411    0.279299    0.515875
      6          1           0        4.592165    2.303298    0.012546
      7          1           0        3.954590    1.870052    1.594759
      8          1           0        1.687510    2.733861    0.923298
      9          1           0        2.328708    3.169568   -0.667904
     10          1           0        2.915460    4.003220    0.781253
     11          6           0        4.344309   -0.459281    0.135096
     12          6           0        3.922354   -1.824610   -0.408795
     13          6           0        5.014602   -2.883983   -0.258738
     14          1           0        5.251847   -0.128295   -0.388562
     15          1           0        4.614785   -0.561545    1.194968
     16          1           0        3.652668   -1.719048   -1.467446
     17          1           0        3.015093   -2.152293    0.114767
     18          1           0        5.278550   -3.018563    0.795217
     19          1           0        5.919748   -2.582856   -0.795985
     20          1           0        4.691798   -3.852215   -0.653940
     21          6           0       -5.277358   -1.028750    0.280261
     22          6           0       -5.128594    0.265384   -0.229256
     23          6           0       -3.855865    0.812873   -0.416242
     24          6           0       -2.748672    0.034767   -0.081634
     25          6           0       -2.864240   -1.257610    0.427970
     26          6           0       -4.146699   -1.784784    0.606672
     27          1           0       -6.269823   -1.446162    0.422298
     28          1           0       -6.004894    0.854828   -0.483620
     29          1           0       -3.711890    1.812103   -0.808963
     30          1           0       -1.971883   -1.820978    0.672376
     31          1           0       -4.259210   -2.790103    1.002551
     32          7           0       -1.396139    0.603616   -0.275203
     33          8           0       -0.436589   -0.102344    0.027318
     34          8           0       -1.321187    1.744669   -0.725777
 ---------------------------------------------------------------------

 SCF Done:  E(RHF) =  -669.536071297     A.U. after   15 cycles
 E2 =    -0.2091450333D+01 EUMP2 =    -0.67162752162931D+03

 The electronic state is 1-A.
 Alpha  occ. eigenvalues --  -20.60988 -20.60982 -15.86017 -11.31328 -11.27891
 Alpha  occ. eigenvalues --  -11.27885 -11.27624 -11.26894 -11.26884 -11.20530
 Alpha  occ. eigenvalues --  -11.20275 -11.20128 -11.20123 -11.19565 -11.19407
 Alpha  occ. eigenvalues --   -1.60043  -1.39600  -1.19495  -1.08900  -1.07045
 Alpha  occ. eigenvalues --   -1.04889  -1.02233  -0.95743  -0.94665  -0.86290
 Alpha  occ. eigenvalues --   -0.85677  -0.82579  -0.78322  -0.77633  -0.76760
 Alpha  occ. eigenvalues --   -0.72230  -0.71359  -0.70603  -0.65151  -0.64891
 Alpha  occ. eigenvalues --   -0.63691  -0.62236  -0.59648  -0.58079  -0.56258
 Alpha  occ. eigenvalues --   -0.55393  -0.53955  -0.53222  -0.52981  -0.51433
 Alpha  occ. eigenvalues --   -0.51059  -0.49053  -0.48981  -0.48578  -0.46609
 Alpha  occ. eigenvalues --   -0.45375  -0.45021  -0.44323  -0.44118  -0.42449
 Alpha  occ. eigenvalues --   -0.37473  -0.36490
 Alpha virt. eigenvalues --    0.04888   0.11166   0.16388   0.21295   0.24134
 Alpha virt. eigenvalues --    0.25594   0.27221   0.27894   0.28227   0.28957
 Alpha virt. eigenvalues --    0.29248   0.30899   0.32423   0.32654   0.32806

 Mulliken charges:
               1
     1  C   -0.303332
     2  C   -0.299757
     3  C   -0.472728
     4  H    0.149907
     5  H    0.173329
     6  H    0.144874
     7  H    0.145264
     8  H    0.163462
     9  H    0.158618
    10  H    0.150218
    11  C   -0.297805
    12  C   -0.297817
    13  C   -0.474825
    14  H    0.144284
    15  H    0.144654
    16  H    0.151434
    17  H    0.153762
    18  H    0.152634
    19  H    0.153230
    20  H    0.156045
    21  C   -0.170544
    22  C   -0.218596
    23  C   -0.170493
    24  C    0.157641
    25  C   -0.170812
    26  C   -0.218537
    27  H    0.226116
    28  H    0.223953
    29  H    0.276030
    30  H    0.275559
    31  H    0.223921
    32  N    0.490708
    33  O   -0.461911
    34  O   -0.458489
 Sum of Mulliken charges =  -0.00000

 Dipole moment (field-independent basis, Debye):
    X=             -5.2335    Y=             -1.9937    Z=              0.6406  Tot=              5.6369
 Quadrupole moment (field-independent basis, Debye-Ang):
   XX=            -70.4678   YY=            -92.9449   ZZ=            -94.3273
   XY=              4.1435   XZ=             -1.2451   YZ=             -1.9761

 Normal termination of Gaussian 16 at Wed May  5 21:48:21 2021.
