 Gaussian 16, Revision A.03,
 Gaussian 16:  EM64L-G16RevA.03 25-Dec-2016

 -------------
 #p 6-31g* mp2
 -------------

 ------------------------------------------------------
 Input file generated by CHIRIPA (05-May-2021 14:51:13)
 ------------------------------------------------------
 Symbolic Z-matrix:
 Charge =  0 Multiplicity = 1

                         Standard orientation:
 ---------------------------------------------------------------------
 Center     Atomic      Atomic             Coordinates (Angstroms)
 Number     Number       Type             X           Y           Z
 ---------------------------------------------------------------------
      1          6           0        2.165003    0.404602   -0.090775
      2          6           0        3.643043    0.059328   -0.275625
      3          6           0        3.882431   -1.440763   -0.449444
      4          1           0        1.775818   -0.134052    0.784057
      5          1           0        1.599129    0.040273   -0.959363
      6          1           0        4.206165    0.425423    0.592409
      7          1           0        4.028804    0.599017   -1.150005
      8          1           0        3.345907   -1.817438   -1.326290
      9          1           0        3.524276   -1.992017    0.426025
     10          1           0        4.945660   -1.665158   -0.580026
     11          6           0        1.909634    1.900556    0.084258
     12          6           0        0.431594    2.245831    0.269108
     13          6           0        0.192206    3.745922    0.442927
     14          1           0        2.475508    2.264885    0.952846
     15          1           0        2.298819    2.439211   -0.790574
     16          1           0        0.045833    1.706142    1.143488
     17          1           0       -0.131528    1.879735   -0.598926
     18          1           0        0.550361    4.297176   -0.432542
     19          1           0        0.728730    4.122596    1.319773
     20          1           0       -0.871023    3.970316    0.573509
     21          6           0       -2.751230   -0.897080   -0.088841
     22          6           0       -2.834591    0.619613   -0.263995
     23          6           0       -4.269258    1.115577   -0.447144
     24          1           0       -3.200872   -1.386105   -0.963840
     25          1           0       -3.356043   -1.192682    0.779615
     26          1           0       -2.228685    0.912422   -1.131034
     27          1           0       -2.384526    1.105083    0.611434
     28          1           0       -4.881801    0.851947    0.421125
     29          1           0       -4.725074    0.658191   -1.331244
     30          1           0       -4.305627    2.202455   -0.570571
     31          6           0       -1.323407   -1.408079    0.095358
     32          6           0       -1.240046   -2.924771    0.270512
     33          6           0        0.194621   -3.420736    0.453662
     34          1           0       -0.718594   -1.112476   -0.773097
     35          1           0       -0.873766   -0.919053    0.970357
     36          1           0       -1.690111   -3.410242   -0.604917
     37          1           0       -1.845952   -3.217581    1.137551
     38          1           0        0.650437   -2.963349    1.337760
     39          1           0        0.807163   -3.157105   -0.414607
     40          1           0        0.230990   -4.507613    0.577088
 ---------------------------------------------------------------------

 SCF Done:  E(RHF) =  -470.730737724     A.U. after   11 cycles
 E2 =    -0.1586660847D+01 EUMP2 =    -0.47231739857110D+03

 The electronic state is 1-A.
 Alpha  occ. eigenvalues --  -11.21552 -11.21540 -11.21506 -11.21446 -11.21337
 Alpha  occ. eigenvalues --  -11.21311 -11.21266 -11.21252 -11.21031 -11.21021
 Alpha  occ. eigenvalues --  -11.21016 -11.21013  -1.08468  -1.08276  -1.03559
 Alpha  occ. eigenvalues --   -1.03393  -0.95977  -0.95876  -0.87010  -0.86876
 Alpha  occ. eigenvalues --   -0.79848  -0.79286  -0.78716  -0.77643  -0.65229
 Alpha  occ. eigenvalues --   -0.64804  -0.61030  -0.60741  -0.59540  -0.59089
 Alpha  occ. eigenvalues --   -0.57772  -0.57297  -0.55298  -0.55144  -0.52694
 Alpha  occ. eigenvalues --   -0.52573  -0.52536  -0.52141  -0.49977  -0.49770
 Alpha  occ. eigenvalues --   -0.48395  -0.47371  -0.46880  -0.46679  -0.46279
 Alpha  occ. eigenvalues --   -0.46113  -0.45083  -0.44687  -0.43742  -0.43663
 Alpha virt. eigenvalues --    0.21007   0.22085   0.23153   0.23746   0.24775
 Alpha virt. eigenvalues --    0.25568   0.26445   0.27572   0.29219   0.29432
 Alpha virt. eigenvalues --    0.30410   0.31416   0.31771   0.32145   0.32530

 Mulliken charges:
               1
     1  C   -0.300354
     2  C   -0.299708
     3  C   -0.476800
     4  H    0.152372
     5  H    0.150306
     6  H    0.151495
     7  H    0.151315
     8  H    0.154337
     9  H    0.157930
    10  H    0.159718
    11  C   -0.298121
    12  C   -0.302843
    13  C   -0.476848
    14  H    0.148447
    15  H    0.148669
    16  H    0.151314
    17  H    0.158468
    18  H    0.154821
    19  H    0.154727
    20  H    0.160109
    21  C   -0.298028
    22  C   -0.303082
    23  C   -0.475160
    24  H    0.148815
    25  H    0.148777
    26  H    0.152124
    27  H    0.157436
    28  H    0.154809
    29  H    0.154690
    30  H    0.159616
    31  C   -0.301202
    32  C   -0.300072
    33  C   -0.477433
    34  H    0.152373
    35  H    0.151675
    36  H    0.151420
    37  H    0.151300
    38  H    0.154218
    39  H    0.158647
    40  H    0.159722
 Sum of Mulliken charges =  -0.00000

 Dipole moment (field-independent basis, Debye):
    X=             -0.0039    Y=             -0.0113    Z=             -0.0011  Tot=              0.0121
 Quadrupole moment (field-independent basis, Debye-Ang):
   XX=            -86.1778   YY=            -86.3517   ZZ=            -82.7489
   XY=              0.7243   XZ=             -0.0824   YZ=             -0.0679

 Normal termination of Gaussian 16 at Wed May  5 18:23:54 2021.
