 Gaussian 16, Revision A.03,
 Gaussian 16:  EM64L-G16RevA.03 25-Dec-2016

 -------------
 #p 6-31g* mp2
 -------------

 ------------------------------------------------------
 Input file generated by CHIRIPA (05-May-2021 14:57:26)
 ------------------------------------------------------
 Symbolic Z-matrix:
 Charge =  0 Multiplicity = 1

                         Standard orientation:
 ---------------------------------------------------------------------
 Center     Atomic      Atomic             Coordinates (Angstroms)
 Number     Number       Type             X           Y           Z
 ---------------------------------------------------------------------
      1          6           0       -2.648225    2.452336    0.663925
      2          6           0       -1.757233    1.402904    0.911608
      3          6           0       -2.088173    0.091793    0.556620
      4          6           0       -3.324068   -0.134943   -0.047073
      5          6           0       -4.233155    0.889416   -0.306958
      6          6           0       -3.881169    2.192700    0.056503
      7          1           0       -2.382969    3.467798    0.942979
      8          1           0       -0.799021    1.601586    1.383201
      9          1           0       -1.417252   -0.739363    0.736798
     10          1           0       -5.181055    0.660227   -0.778524
     11          1           0       -4.575101    3.005740   -0.137064
     12          7           0       -3.685559   -1.518814   -0.427368
     13          8           0       -4.780540   -1.692284   -0.957991
     14          8           0       -2.867069   -2.403818   -0.187620
     15          6           0        3.584540    2.338973   -0.605805
     16          6           0        4.605665    1.417067   -0.858619
     17          6           0        4.439327    0.067023   -0.535725
     18          6           0        3.233548   -0.328263    0.041454
     19          6           0        2.197493    0.566210    0.305647
     20          6           0        2.385827    1.911356   -0.025501
     21          1           0        3.722298    3.385817   -0.859843
     22          1           0        5.537662    1.746314   -1.309198
     23          1           0        5.213361   -0.667904   -0.720585
     24          1           0        1.279612    0.208021    0.755774
     25          1           0        1.591080    2.625097    0.171976
     26          7           0        3.045811   -1.754902    0.387657
     27          8           0        1.974079   -2.077841    0.895337
     28          8           0        3.973949   -2.523150    0.144775
 ---------------------------------------------------------------------

 SCF Done:  E(RHF) =  -868.335881588     A.U. after   16 cycles
 E2 =    -0.2601106221D+01 EUMP2 =    -0.87093698780931D+03

 The electronic state is 1-A.
 Alpha  occ. eigenvalues --  -20.61105 -20.61100 -20.60712 -20.60673 -15.86159
 Alpha  occ. eigenvalues --  -15.85760 -11.31684 -11.31376 -11.28384 -11.28208
 Alpha  occ. eigenvalues --  -11.28015 -11.28003 -11.27995 -11.27879 -11.27396
 Alpha  occ. eigenvalues --  -11.27249 -11.27207 -11.27052  -1.60166  -1.59772
 Alpha  occ. eigenvalues --   -1.39720  -1.39314  -1.19866  -1.19610  -1.09220
 Alpha  occ. eigenvalues --   -1.08969  -1.05326  -1.05059  -0.96037  -0.95746
 Alpha  occ. eigenvalues --   -0.86699  -0.86457  -0.82895  -0.82582  -0.77958
 Alpha  occ. eigenvalues --   -0.77536  -0.72372  -0.71971  -0.71487  -0.71105
 Alpha  occ. eigenvalues --   -0.70999  -0.70710  -0.65548  -0.65379  -0.65235
 Alpha  occ. eigenvalues --   -0.65105  -0.62881  -0.62182  -0.55793  -0.55568
 Alpha  occ. eigenvalues --   -0.53602  -0.53430  -0.53354  -0.53173  -0.49139
 Alpha  occ. eigenvalues --   -0.49121  -0.48763  -0.48704  -0.45087  -0.44665
 Alpha  occ. eigenvalues --   -0.37824  -0.37621  -0.36940  -0.36636
 Alpha virt. eigenvalues --    0.04637   0.04987   0.10726   0.10936   0.16102
 Alpha virt. eigenvalues --    0.16298   0.18260   0.22245   0.24694   0.25718
 Alpha virt. eigenvalues --    0.27939   0.29178   0.30590   0.31115   0.32975

 Mulliken charges:
               1
     1  C   -0.171006
     2  C   -0.224312
     3  C   -0.174970
     4  C    0.158574
     5  C   -0.169293
     6  C   -0.218806
     7  H    0.223045
     8  H    0.214608
     9  H    0.288309
    10  H    0.277227
    11  H    0.224071
    12  N    0.487442
    13  O   -0.461362
    14  O   -0.452896
    15  C   -0.170275
    16  C   -0.218118
    17  C   -0.169145
    18  C    0.160559
    19  C   -0.172697
    20  C   -0.218322
    21  H    0.226412
    22  H    0.225685
    23  H    0.278107
    24  H    0.269676
    25  H    0.216535
    26  N    0.488798
    27  O   -0.461133
    28  O   -0.456714
 Sum of Mulliken charges =  -0.00000

 Dipole moment (field-independent basis, Debye):
    X=              2.0046    Y=              9.6505    Z=             -0.0043  Tot=              9.8564
 Quadrupole moment (field-independent basis, Debye-Ang):
   XX=            -99.6980   YY=           -109.7610   ZZ=           -105.4339
   XY=             -2.9497   XZ=             -8.7507   YZ=             -0.2776

 Normal termination of Gaussian 16 at Thu May  6 16:27:54 2021.
