 Gaussian 16, Revision A.03,
 Gaussian 16:  EM64L-G16RevA.03 25-Dec-2016

 -------------
 #p 6-31g* mp2
 -------------

 ------------------------------------------------------
 Input file generated by CHIRIPA (05-May-2021 14:53:16)
 ------------------------------------------------------
 Symbolic Z-matrix:
 Charge =  0 Multiplicity = 1

                         Standard orientation:
 ---------------------------------------------------------------------
 Center     Atomic      Atomic             Coordinates (Angstroms)
 Number     Number       Type             X           Y           Z
 ---------------------------------------------------------------------
      1          6           0       -2.032655    0.885756    0.088189
      2          6           0       -2.436116    2.312009   -0.287318
      3          6           0       -1.725755    3.369368    0.558362
      4          1           0       -2.253888    0.716675    1.150928
      5          1           0       -0.945108    0.777765   -0.025714
      6          1           0       -3.522759    2.416876   -0.174068
      7          1           0       -2.214074    2.477652   -1.349334
      8          1           0       -0.640246    3.293538    0.437863
      9          1           0       -1.956367    3.232417    1.619806
     10          1           0       -2.028865    4.381623    0.273188
     11          6           0       -2.734426   -0.182520   -0.748490
     12          6           0       -2.330965   -1.608774   -0.372982
     13          6           0       -3.041326   -2.666132   -1.218663
     14          1           0       -3.821973   -0.074529   -0.634587
     15          1           0       -2.513193   -0.013439   -1.811229
     16          1           0       -2.553007   -1.774416    0.689033
     17          1           0       -1.244322   -1.713641   -0.486233
     18          1           0       -2.810715   -2.529182   -2.280107
     19          1           0       -4.126835   -2.590302   -1.098164
     20          1           0       -2.738216   -3.678387   -0.933489
     21          6           0        3.167164    0.922100   -1.539431
     22          6           0        3.078912   -0.473828   -1.550370
     23          6           0        2.358531   -1.147500   -0.559530
     24          6           0        1.735976   -0.390404    0.431692
     25          6           0        1.805481    1.001361    0.469765
     26          6           0        2.531288    1.653949   -0.531176
     27          1           0        3.728880    1.437234   -2.313063
     28          1           0        3.571726   -1.044776   -2.332163
     29          1           0        2.273953   -2.227326   -0.544023
     30          1           0        1.303515    1.543284    1.262083
     31          1           0        2.598122    2.738134   -0.520165
     32          7           0        0.970470   -1.092429    1.485998
     33          8           0        0.431035   -0.402441    2.348299
     34          8           0        0.924394   -2.319372    1.430097
 ---------------------------------------------------------------------

 SCF Done:  E(RHF) =  -669.534461217     A.U. after   15 cycles
 E2 =    -0.2096398516D+01 EUMP2 =    -0.67163085973294D+03

 The electronic state is 1-A.
 Alpha  occ. eigenvalues --  -20.60917 -20.60877 -15.85887 -11.31268 -11.27862
 Alpha  occ. eigenvalues --  -11.27825 -11.27598 -11.26868 -11.26858 -11.21404
 Alpha  occ. eigenvalues --  -11.21146 -11.20904 -11.20849 -11.20780 -11.20504
 Alpha  occ. eigenvalues --   -1.59937  -1.39496  -1.19471  -1.08856  -1.07985
 Alpha  occ. eigenvalues --   -1.04871  -1.03148  -0.95688  -0.95622  -0.86655
 Alpha  occ. eigenvalues --   -0.86265  -0.82521  -0.79219  -0.77896  -0.77471
 Alpha  occ. eigenvalues --   -0.72140  -0.71234  -0.70569  -0.65117  -0.64884
 Alpha  occ. eigenvalues --   -0.64611  -0.62223  -0.60556  -0.58992  -0.57217
 Alpha  occ. eigenvalues --   -0.55362  -0.54959  -0.53225  -0.52949  -0.52335
 Alpha  occ. eigenvalues --   -0.52064  -0.49612  -0.48915  -0.48895  -0.47587
 Alpha  occ. eigenvalues --   -0.46282  -0.45345  -0.45247  -0.44614  -0.43363
 Alpha  occ. eigenvalues --   -0.37393  -0.36415
 Alpha virt. eigenvalues --    0.04913   0.11066   0.16333   0.20661   0.23355
 Alpha virt. eigenvalues --    0.24210   0.26260   0.27196   0.27568   0.28110
 Alpha virt. eigenvalues --    0.29347   0.30718   0.31526   0.32177   0.32423

 Mulliken charges:
               1
     1  C   -0.304718
     2  C   -0.298741
     3  C   -0.475101
     4  H    0.163490
     5  H    0.146530
     6  H    0.152720
     7  H    0.148245
     8  H    0.142203
     9  H    0.161068
    10  H    0.159069
    11  C   -0.298163
    12  C   -0.301097
    13  C   -0.476015
    14  H    0.148142
    15  H    0.144423
    16  H    0.163836
    17  H    0.148034
    18  H    0.150020
    19  H    0.153619
    20  H    0.163239
    21  C   -0.170661
    22  C   -0.218468
    23  C   -0.172325
    24  C    0.157972
    25  C   -0.175266
    26  C   -0.219051
    27  H    0.226201
    28  H    0.223988
    29  H    0.276237
    30  H    0.279397
    31  H    0.224514
    32  N    0.491847
    33  O   -0.456759
    34  O   -0.458430
 Sum of Mulliken charges =  -0.00000

 Dipole moment (field-independent basis, Debye):
    X=              2.7562    Y=              2.3483    Z=             -3.5021  Tot=              5.0374
 Quadrupole moment (field-independent basis, Debye-Ang):
   XX=            -85.2804   YY=            -94.0418   ZZ=            -97.4789
   XY=              1.8990   XZ=             -7.3073   YZ=              4.0733

 Normal termination of Gaussian 16 at Wed May  5 17:13:32 2021.
