 Gaussian 16, Revision A.03,
 Gaussian 16:  EM64L-G16RevA.03 25-Dec-2016

 -------------
 #p 6-31g* mp2
 -------------

 ------------------------------------------------------
 Input file generated by CHIRIPA (05-May-2021 14:51:12)
 ------------------------------------------------------
 Symbolic Z-matrix:
 Charge =  0 Multiplicity = 1

                         Standard orientation:
 ---------------------------------------------------------------------
 Center     Atomic      Atomic             Coordinates (Angstroms)
 Number     Number       Type             X           Y           Z
 ---------------------------------------------------------------------
      1          6           0       -3.700949    0.287784   -0.360804
      2          6           0       -4.541678    1.237978    0.492595
      3          6           0       -5.372573    2.208479   -0.347368
      4          1           0       -3.036411    0.876837   -1.007605
      5          1           0       -4.364797   -0.279057   -1.028182
      6          1           0       -3.876573    1.801866    1.159139
      7          1           0       -5.204156    0.646591    1.137576
      8          1           0       -6.059147    1.661413   -1.001537
      9          1           0       -4.724021    2.823252   -0.979851
     10          1           0       -5.965817    2.878443    0.282767
     11          6           0       -2.864750   -0.688540    0.464599
     12          6           0       -2.024021   -1.638735   -0.388800
     13          6           0       -1.193127   -2.609235    0.451162
     14          1           0       -2.200903   -0.121699    1.131977
     15          1           0       -3.529288   -1.277593    1.111399
     16          1           0       -1.361544   -1.047348   -1.033781
     17          1           0       -2.689127   -2.202622   -1.055345
     18          1           0       -1.841679   -3.224008    1.083646
     19          1           0       -0.506553   -2.062170    1.105332
     20          1           0       -0.599883   -3.279199   -0.178973
     21          6           0        3.144601    0.934038   -0.213334
     22          6           0        4.203782    1.887030    0.341580
     23          6           0        3.913315    3.351184    0.010412
     24          1           0        3.082311    1.059611   -1.302965
     25          1           0        2.161755    1.214215    0.190285
     26          1           0        5.184541    1.604282   -0.061881
     27          1           0        4.263693    1.759036    1.429994
     28          1           0        2.947844    3.656147    0.426904
     29          1           0        3.873923    3.500512   -1.073447
     30          1           0        4.682908    4.014971    0.416581
     31          6           0        3.421098   -0.533282    0.109540
     32          6           0        2.361918   -1.486273   -0.445375
     33          6           0        2.652385   -2.950429   -0.114207
     34          1           0        4.403946   -0.813458   -0.294080
     35          1           0        3.483389   -0.658855    1.199170
     36          1           0        2.302006   -1.358280   -1.533789
     37          1           0        1.381159   -1.203525   -0.041914
     38          1           0        2.691776   -3.099755    0.969652
     39          1           0        3.617856   -3.255390   -0.530699
     40          1           0        1.882792   -3.614214   -0.520376
 ---------------------------------------------------------------------

 SCF Done:  E(RHF) =  -470.732381385     A.U. after   11 cycles
 E2 =    -0.1583580439D+01 EUMP2 =    -0.47231596182415D+03

 The electronic state is 1-A.
 Alpha  occ. eigenvalues --  -11.21613 -11.21611 -11.21602 -11.21519 -11.21417
 Alpha  occ. eigenvalues --  -11.21407 -11.21357 -11.21339 -11.21087 -11.21076
 Alpha  occ. eigenvalues --  -11.21046 -11.21016  -1.08459  -1.08406  -1.03599
 Alpha  occ. eigenvalues --   -1.03458  -0.96063  -0.95897  -0.87038  -0.86955
 Alpha  occ. eigenvalues --   -0.79610  -0.79573  -0.78253  -0.78240  -0.65194
 Alpha  occ. eigenvalues --   -0.64963  -0.61215  -0.60694  -0.59608  -0.59133
 Alpha  occ. eigenvalues --   -0.57737  -0.57421  -0.55431  -0.55088  -0.52882
 Alpha  occ. eigenvalues --   -0.52539  -0.52453  -0.52233  -0.49992  -0.49861
 Alpha  occ. eigenvalues --   -0.48028  -0.47781  -0.46729  -0.46498  -0.45852
 Alpha  occ. eigenvalues --   -0.45764  -0.45709  -0.45613  -0.43872  -0.43675
 Alpha virt. eigenvalues --    0.21000   0.23184   0.23419   0.25047   0.25979
 Alpha virt. eigenvalues --    0.26690   0.26898   0.27541   0.27839   0.29197
 Alpha virt. eigenvalues --    0.29450   0.31257   0.31510   0.31933   0.32715

 Mulliken charges:
               1
     1  C   -0.298327
     2  C   -0.299622
     3  C   -0.475723
     4  H    0.149838
     5  H    0.149605
     6  H    0.151779
     7  H    0.151948
     8  H    0.155212
     9  H    0.155259
    10  H    0.160263
    11  C   -0.298141
    12  C   -0.302451
    13  C   -0.478985
    14  H    0.148686
    15  H    0.149790
    16  H    0.153977
    17  H    0.152128
    18  H    0.155433
    19  H    0.155548
    20  H    0.163802
    21  C   -0.298051
    22  C   -0.299610
    23  C   -0.475690
    24  H    0.149624
    25  H    0.148485
    26  H    0.152103
    27  H    0.151932
    28  H    0.154937
    29  H    0.155179
    30  H    0.160343
    31  C   -0.297862
    32  C   -0.306410
    33  C   -0.476097
    34  H    0.149465
    35  H    0.149228
    36  H    0.151067
    37  H    0.160163
    38  H    0.155042
    39  H    0.154643
    40  H    0.161489
 Sum of Mulliken charges =  -0.00000

 Dipole moment (field-independent basis, Debye):
    X=             -0.0160    Y=             -0.0181    Z=             -0.0031  Tot=              0.0243
 Quadrupole moment (field-independent basis, Debye-Ang):
   XX=            -84.4403   YY=            -86.1084   ZZ=            -84.2910
   XY=              1.0740   XZ=             -0.7437   YZ=              0.6211

 Normal termination of Gaussian 16 at Thu May  6 02:19:20 2021.
