 Gaussian 16, Revision A.03,
 Gaussian 16:  EM64L-G16RevA.03 25-Dec-2016

 -------------
 #p 6-31g* mp2
 -------------

 ------------------------------------------------------
 Input file generated by CHIRIPA (05-May-2021 14:53:15)
 ------------------------------------------------------
 Symbolic Z-matrix:
 Charge =  0 Multiplicity = 1

                         Standard orientation:
 ---------------------------------------------------------------------
 Center     Atomic      Atomic             Coordinates (Angstroms)
 Number     Number       Type             X           Y           Z
 ---------------------------------------------------------------------
      1          6           0       -3.420010    0.817940    0.325909
      2          6           0       -2.823595    1.769000   -0.712243
      3          6           0       -2.602903    3.179231   -0.164212
      4          1           0       -4.374690    1.227513    0.683374
      5          1           0       -2.752982    0.773212    1.197957
      6          1           0       -3.490862    1.810853   -1.582656
      7          1           0       -1.870317    1.357020   -1.067418
      8          1           0       -1.919689    3.157651    0.690980
      9          1           0       -3.549441    3.614062    0.172815
     10          1           0       -2.175932    3.842518   -0.922899
     11          6           0       -3.646475   -0.595728   -0.206993
     12          6           0       -4.242890   -1.546788    0.831159
     13          6           0       -4.463582   -2.957018    0.283128
     14          1           0       -4.313503   -0.550999   -1.079042
     15          1           0       -2.691795   -1.005300   -0.564458
     16          1           0       -5.196168   -1.134808    1.186334
     17          1           0       -3.575623   -1.588640    1.701572
     18          1           0       -3.517043   -3.391850   -0.053899
     19          1           0       -5.146796   -2.935439   -0.572064
     20          1           0       -4.890553   -3.620306    1.041815
     21          6           0        5.209048   -0.542645    0.356027
     22          6           0        4.504241    0.305495    1.216508
     23          6           0        3.147200    0.565222    1.003134
     24          6           0        2.523614   -0.042732   -0.085362
     25          6           0        3.198586   -0.892423   -0.960421
     26          6           0        4.555123   -1.137848   -0.727780
     27          1           0        6.263034   -0.738852    0.529265
     28          1           0        5.009503    0.769119    2.059009
     29          1           0        2.577523    1.217706    1.653635
     30          1           0        2.667691   -1.340027   -1.791816
     31          1           0        5.099966   -1.796957   -1.397681
     32          7           0        1.087242    0.224658   -0.321449
     33          8           0        0.560847   -0.323242   -1.287550
     34          8           0        0.515007    0.977077    0.464076
 ---------------------------------------------------------------------

 SCF Done:  E(RHF) =  -669.537398552     A.U. after   15 cycles
 E2 =    -0.2092751549D+01 EUMP2 =    -0.67163015010059D+03

 The electronic state is 1-A.
 Alpha  occ. eigenvalues --  -20.61315 -20.61299 -15.86279 -11.31491 -11.28030
 Alpha  occ. eigenvalues --  -11.28026 -11.27746 -11.27008 -11.26998 -11.20398
 Alpha  occ. eigenvalues --  -11.20106 -11.19751 -11.19564 -11.19401 -11.19298
 Alpha  occ. eigenvalues --   -1.60325  -1.39883  -1.19639  -1.09067  -1.06767
 Alpha  occ. eigenvalues --   -1.05015  -1.01941  -0.95924  -0.94453  -0.86421
 Alpha  occ. eigenvalues --   -0.85485  -0.82763  -0.78060  -0.77832  -0.76513
 Alpha  occ. eigenvalues --   -0.72480  -0.71616  -0.70746  -0.65295  -0.65024
 Alpha  occ. eigenvalues --   -0.63382  -0.62362  -0.59330  -0.57875  -0.56055
 Alpha  occ. eigenvalues --   -0.55521  -0.53736  -0.53349  -0.53103  -0.51226
 Alpha  occ. eigenvalues --   -0.50884  -0.49322  -0.49251  -0.48374  -0.46363
 Alpha  occ. eigenvalues --   -0.45329  -0.45024  -0.44078  -0.43800  -0.42189
 Alpha  occ. eigenvalues --   -0.37611  -0.36609
 Alpha virt. eigenvalues --    0.04674   0.11049   0.16198   0.21181   0.24461
 Alpha virt. eigenvalues --    0.25861   0.27127   0.27967   0.28451   0.29120
 Alpha virt. eigenvalues --    0.29444   0.30805   0.32292   0.32860   0.33205

 Mulliken charges:
               1
     1  C   -0.296270
     2  C   -0.305341
     3  C   -0.475291
     4  H    0.139500
     5  H    0.154639
     6  H    0.139707
     7  H    0.180873
     8  H    0.160887
     9  H    0.145028
    10  H    0.152530
    11  C   -0.302128
    12  C   -0.298244
    13  C   -0.474583
    14  H    0.143718
    15  H    0.163074
    16  H    0.147831
    17  H    0.149647
    18  H    0.154522
    19  H    0.153206
    20  H    0.155175
    21  C   -0.170102
    22  C   -0.218632
    23  C   -0.170474
    24  C    0.159673
    25  C   -0.170403
    26  C   -0.218642
    27  H    0.226762
    28  H    0.224573
    29  H    0.276199
    30  H    0.276287
    31  H    0.224556
    32  N    0.489120
    33  O   -0.458694
    34  O   -0.458704
 Sum of Mulliken charges =  -0.00000

 Dipole moment (field-independent basis, Debye):
    X=              5.7119    Y=             -1.0293    Z=              0.8081  Tot=              5.8599
 Quadrupole moment (field-independent basis, Debye-Ang):
   XX=            -70.7914   YY=            -95.6352   ZZ=            -92.0574
   XY=             -2.9764   XZ=              1.9735   YZ=              2.8030

 Normal termination of Gaussian 16 at Thu May  6 12:11:47 2021.
