 Gaussian 16, Revision A.03,
 Gaussian 16:  EM64L-G16RevA.03 25-Dec-2016

 -------------
 #p 6-31g* mp2
 -------------

 ------------------------------------------------------
 Input file generated by CHIRIPA (05-May-2021 14:57:24)
 ------------------------------------------------------
 Symbolic Z-matrix:
 Charge =  0 Multiplicity = 1

                         Standard orientation:
 ---------------------------------------------------------------------
 Center     Atomic      Atomic             Coordinates (Angstroms)
 Number     Number       Type             X           Y           Z
 ---------------------------------------------------------------------
      1          6           0        4.825791    0.897974    0.479900
      2          6           0        4.539939   -0.237029    1.245784
      3          6           0        3.419362   -1.022645    0.960017
      4          6           0        2.602457   -0.642344   -0.103622
      5          6           0        2.860659    0.482787   -0.885095
      6          6           0        3.986718    1.253633   -0.581224
      7          1           0        5.698411    1.502522    0.708922
      8          1           0        5.189809   -0.515638    2.070460
      9          1           0        3.174594   -1.906356    1.536700
     10          1           0        2.194238    0.735229   -1.700922
     11          1           0        4.206254    2.134564   -1.177722
     12          7           0        1.413251   -1.466222   -0.415733
     13          8           0        0.709260   -1.109825   -1.358078
     14          8           0        1.207661   -2.452775    0.287889
     15          6           0       -4.493927   -1.342752    0.319279
     16          6           0       -3.761953   -1.230186   -0.867339
     17          6           0       -2.819924   -0.209479   -1.026358
     18          6           0       -2.634541    0.685343    0.026360
     19          6           0       -3.348276    0.599469    1.220721
     20          6           0       -4.285121   -0.429175    1.357691
     21          1           0       -5.223705   -2.138744    0.434245
     22          1           0       -3.922019   -1.938257   -1.675460
     23          1           0       -2.239534   -0.099149   -1.934319
     24          1           0       -3.166633    1.320313    2.008634
     25          1           0       -4.852143   -0.514165    2.280354
     26          7           0       -1.640001    1.770121   -0.130316
     27          8           0       -1.495319    2.545794    0.812041
     28          8           0       -1.023993    1.824158   -1.192508
 ---------------------------------------------------------------------

 SCF Done:  E(RHF) =  -868.340046184     A.U. after   16 cycles
 E2 =    -0.2599690813D+01 EUMP2 =    -0.87093973699691D+03

 The electronic state is 1-A.
 Alpha  occ. eigenvalues --  -20.60496 -20.60466 -20.60163 -20.60126 -15.85510
 Alpha  occ. eigenvalues --  -15.85176 -11.30614 -11.30241 -11.27245 -11.27072
 Alpha  occ. eigenvalues --  -11.26936 -11.26908 -11.26713 -11.26599 -11.26209
 Alpha  occ. eigenvalues --  -11.26094 -11.25863 -11.25726  -1.59555  -1.59218
 Alpha  occ. eigenvalues --   -1.39110  -1.38772  -1.18787  -1.18425  -1.08246
 Alpha  occ. eigenvalues --   -1.07895  -1.04148  -1.03789  -0.95118  -0.94766
 Alpha  occ. eigenvalues --   -0.85566  -0.85212  -0.81956  -0.81613  -0.77024
 Alpha  occ. eigenvalues --   -0.76657  -0.71781  -0.71416  -0.70922  -0.70452
 Alpha  occ. eigenvalues --   -0.69909  -0.69566  -0.64453  -0.64169  -0.64096
 Alpha  occ. eigenvalues --   -0.63820  -0.61487  -0.61137  -0.54702  -0.54363
 Alpha  occ. eigenvalues --   -0.52501  -0.52249  -0.52125  -0.51899  -0.48518
 Alpha  occ. eigenvalues --   -0.48496  -0.48168  -0.48147  -0.44726  -0.44063
 Alpha  occ. eigenvalues --   -0.36787  -0.36420  -0.35728  -0.35343
 Alpha virt. eigenvalues --    0.05387   0.05931   0.11922   0.12301   0.17008
 Alpha virt. eigenvalues --    0.17360   0.21989   0.22345   0.27950   0.28222
 Alpha virt. eigenvalues --    0.28784   0.29325   0.31489   0.31844   0.33018

 Mulliken charges:
               1
     1  C   -0.169796
     2  C   -0.219256
     3  C   -0.171137
     4  C    0.154890
     5  C   -0.165327
     6  C   -0.218518
     7  H    0.224275
     8  H    0.220925
     9  H    0.272443
    10  H    0.285716
    11  H    0.225071
    12  N    0.488195
    13  O   -0.462334
    14  O   -0.464662
    15  C   -0.169243
    16  C   -0.218213
    17  C   -0.155538
    18  C    0.153610
    19  C   -0.171433
    20  C   -0.219431
    21  H    0.222944
    22  H    0.223448
    23  H    0.282870
    24  H    0.271250
    25  H    0.219434
    26  N    0.487829
    27  O   -0.466762
    28  O   -0.461251
 Sum of Mulliken charges =  -0.00000

 Dipole moment (field-independent basis, Debye):
    X=              0.7654    Y=             -0.9184    Z=              1.3764  Tot=              1.8231
 Quadrupole moment (field-independent basis, Debye-Ang):
   XX=            -66.0420   YY=           -112.9120   ZZ=            -98.4206
   XY=             12.3827   XZ=              0.9900   YZ=             -1.7362

 Normal termination of Gaussian 16 at Thu May  6 12:59:48 2021.
