 Gaussian 16, Revision A.03,
 Gaussian 16:  EM64L-G16RevA.03 25-Dec-2016

 -------------
 #p 6-31g* mp2
 -------------

 ------------------------------------------------------
 Input file generated by CHIRIPA (05-May-2021 14:57:23)
 ------------------------------------------------------
 Symbolic Z-matrix:
 Charge =  0 Multiplicity = 1

                         Standard orientation:
 ---------------------------------------------------------------------
 Center     Atomic      Atomic             Coordinates (Angstroms)
 Number     Number       Type             X           Y           Z
 ---------------------------------------------------------------------
      1          6           0       -3.749167   -2.085590   -0.850801
      2          6           0       -4.685190   -1.068932   -0.634491
      3          6           0       -4.268865    0.210204   -0.253662
      4          6           0       -2.902595    0.438734   -0.097547
      5          6           0       -1.945691   -0.553389   -0.305673
      6          6           0       -2.384811   -1.825033   -0.685992
      7          1           0       -4.081432   -3.076344   -1.146440
      8          1           0       -5.745408   -1.268411   -0.761736
      9          1           0       -4.972041    1.015619   -0.079682
     10          1           0       -0.895564   -0.324259   -0.170946
     11          1           0       -1.655634   -2.612659   -0.853297
     12          7           0       -2.449785    1.788933    0.305350
     13          8           0       -1.240400    1.964704    0.436232
     14          8           0       -3.312830    2.645882    0.482629
     15          6           0        4.309743    1.331717   -1.317351
     16          6           0        4.408850   -0.053594   -1.483515
     17          6           0        3.675166   -0.920747   -0.668468
     18          6           0        2.848401   -0.365853    0.307156
     19          6           0        2.728277    1.009912    0.497239
     20          6           0        3.471251    1.858121   -0.329246
     21          1           0        4.883294    1.997984   -1.954943
     22          1           0        5.059234   -0.465220   -2.250072
     23          1           0        3.733024   -1.997141   -0.775462
     24          1           0        2.071516    1.390591    1.270005
     25          1           0        3.392305    2.933561   -0.197932
     26          7           0        2.066764   -1.273841    1.176065
     27          8           0        1.345497   -0.759945    2.028309
     28          8           0        2.190187   -2.482225    0.988419
 ---------------------------------------------------------------------

 SCF Done:  E(RHF) =  -868.339805790     A.U. after   16 cycles
 E2 =    -0.2599370045D+01 EUMP2 =    -0.87093917583493D+03

 The electronic state is 1-A.
 Alpha  occ. eigenvalues --  -20.60975 -20.60924 -20.60506 -20.60497 -15.85969
 Alpha  occ. eigenvalues --  -15.85552 -11.31062 -11.30707 -11.27683 -11.27482
 Alpha  occ. eigenvalues --  -11.27330 -11.27299 -11.27214 -11.26992 -11.26626
 Alpha  occ. eigenvalues --  -11.26472 -11.26285 -11.26173  -1.60039  -1.59572
 Alpha  occ. eigenvalues --   -1.39586  -1.39132  -1.19225  -1.18868  -1.08684
 Alpha  occ. eigenvalues --   -1.08308  -1.04561  -1.04238  -0.95548  -0.95177
 Alpha  occ. eigenvalues --   -0.85981  -0.85651  -0.82370  -0.82017  -0.77448
 Alpha  occ. eigenvalues --   -0.77075  -0.72181  -0.71801  -0.71387  -0.70876
 Alpha  occ. eigenvalues --   -0.70315  -0.69983  -0.64868  -0.64566  -0.64519
 Alpha  occ. eigenvalues --   -0.64242  -0.61887  -0.61585  -0.55099  -0.54774
 Alpha  occ. eigenvalues --   -0.52937  -0.52636  -0.52580  -0.52333  -0.48959
 Alpha  occ. eigenvalues --   -0.48927  -0.48534  -0.48520  -0.45030  -0.44578
 Alpha  occ. eigenvalues --   -0.37226  -0.36852  -0.36144  -0.35819
 Alpha virt. eigenvalues --    0.05022   0.05451   0.11464   0.11832   0.16549
 Alpha virt. eigenvalues --    0.16970   0.21587   0.21927   0.27425   0.27653
 Alpha virt. eigenvalues --    0.28353   0.28801   0.31061   0.31498   0.32352

 Mulliken charges:
               1
     1  C   -0.170558
     2  C   -0.219101
     3  C   -0.171347
     4  C    0.156541
     5  C   -0.164211
     6  C   -0.218706
     7  H    0.224855
     8  H    0.221550
     9  H    0.273526
    10  H    0.274100
    11  H    0.228491
    12  N    0.489679
    13  O   -0.465769
    14  O   -0.461951
    15  C   -0.170183
    16  C   -0.219406
    17  C   -0.172824
    18  C    0.149953
    19  C   -0.167537
    20  C   -0.218711
    21  H    0.225894
    22  H    0.222035
    23  H    0.272455
    24  H    0.288522
    25  H    0.228633
    26  N    0.484169
    27  O   -0.454901
    28  O   -0.465196
 Sum of Mulliken charges =  -0.00000

 Dipole moment (field-independent basis, Debye):
    X=              1.2465    Y=             -1.4229    Z=             -4.3873  Tot=              4.7777
 Quadrupole moment (field-independent basis, Debye-Ang):
   XX=            -75.6547   YY=           -108.4936   ZZ=           -106.6859
   XY=             18.9131   XZ=             -4.8489   YZ=              4.2512

 Normal termination of Gaussian 16 at Thu May  6 14:37:25 2021.
