 Gaussian 16, Revision A.03,
 Gaussian 16:  EM64L-G16RevA.03 25-Dec-2016

 -------------
 #p 6-31g* mp2
 -------------

 ------------------------------------------------------
 Input file generated by CHIRIPA (05-May-2021 14:51:08)
 ------------------------------------------------------
 Symbolic Z-matrix:
 Charge =  0 Multiplicity = 1

                         Standard orientation:
 ---------------------------------------------------------------------
 Center     Atomic      Atomic             Coordinates (Angstroms)
 Number     Number       Type             X           Y           Z
 ---------------------------------------------------------------------
      1          6           0       -3.486020   -0.695394   -0.105242
      2          6           0       -2.402552   -0.440472    0.943136
      3          6           0       -1.095497   -1.170253    0.631973
      4          1           0       -3.674691   -1.775551   -0.173143
      5          1           0       -3.114658   -0.380430   -1.090271
      6          1           0       -2.776361   -0.754542    1.926113
      7          1           0       -2.216575    0.639218    1.008686
      8          1           0       -0.696517   -0.850080   -0.335966
      9          1           0       -1.259483   -2.251760    0.586674
     10          1           0       -0.334892   -0.974072    1.394110
     11          6           0       -4.798623    0.027428    0.191964
     12          6           0       -5.882091   -0.227494   -0.856414
     13          6           0       -7.189146    0.502286   -0.545251
     14          1           0       -5.169985   -0.287537    1.176993
     15          1           0       -4.609952    1.107584    0.259865
     16          1           0       -6.068068   -1.307185   -0.921964
     17          1           0       -5.508282    0.086576   -1.839391
     18          1           0       -7.025160    1.583794   -0.499952
     19          1           0       -7.588126    0.182114    0.422687
     20          1           0       -7.949750    0.306105   -1.307389
     21          6           0        3.567352    0.798863   -0.235011
     22          6           0        2.364563    0.694346    0.703264
     23          6           0        1.222468    1.630428    0.306829
     24          1           0        3.928179    1.836488   -0.244084
     25          1           0        3.244563    0.571205   -1.260377
     26          1           0        2.689810    0.920781    1.726767
     27          1           0        2.006677   -0.343192    0.710251
     28          1           0        0.870117    1.401615   -0.704158
     29          1           0        1.557131    2.672770    0.318134
     30          1           0        0.372970    1.539421    0.990884
     31          6           0        4.717291   -0.130896    0.148289
     32          6           0        5.920079   -0.026379   -0.789985
     33          6           0        7.062175   -0.962463   -0.393551
     34          1           0        5.040079    0.096761    1.173655
     35          1           0        4.356465   -1.168522    0.157363
     36          1           0        6.277965    1.011159   -0.796972
     37          1           0        5.594834   -0.252815   -1.813487
     38          1           0        6.727513   -2.004803   -0.404855
     39          1           0        7.414526   -0.733648    0.617436
     40          1           0        7.911674   -0.871454   -1.077605
 ---------------------------------------------------------------------

 SCF Done:  E(RHF) =  -470.732422311     A.U. after   11 cycles
 E2 =    -0.1583520422D+01 EUMP2 =    -0.47231594273304D+03

 The electronic state is 1-A.
 Alpha  occ. eigenvalues --  -11.21595 -11.21592 -11.21580 -11.21527 -11.21397
 Alpha  occ. eigenvalues --  -11.21372 -11.21338 -11.21313 -11.21065 -11.21054
 Alpha  occ. eigenvalues --  -11.21009 -11.21008  -1.08436  -1.08383  -1.03590
 Alpha  occ. eigenvalues --   -1.03431  -0.96080  -0.95841  -0.87047  -0.86906
 Alpha  occ. eigenvalues --   -0.79626  -0.79527  -0.78246  -0.78200  -0.65118
 Alpha  occ. eigenvalues --   -0.64980  -0.61161  -0.60741  -0.59626  -0.59075
 Alpha  occ. eigenvalues --   -0.57777  -0.57317  -0.55485  -0.54989  -0.52745
 Alpha  occ. eigenvalues --   -0.52558  -0.52457  -0.52239  -0.50014  -0.49759
 Alpha  occ. eigenvalues --   -0.47907  -0.47885  -0.46613  -0.46588  -0.45782
 Alpha  occ. eigenvalues --   -0.45759  -0.45696  -0.45670  -0.43791  -0.43687
 Alpha virt. eigenvalues --    0.21318   0.23075   0.23455   0.25364   0.26349
 Alpha virt. eigenvalues --    0.26453   0.26606   0.27470   0.27653   0.29440
 Alpha virt. eigenvalues --    0.29859   0.30451   0.30945   0.32212   0.32337

 Mulliken charges:
               1
     1  C   -0.298311
     2  C   -0.302699
     3  C   -0.478617
     4  H    0.149622
     5  H    0.149571
     6  H    0.151783
     7  H    0.153841
     8  H    0.157293
     9  H    0.154321
    10  H    0.163615
    11  C   -0.298371
    12  C   -0.299637
    13  C   -0.475708
    14  H    0.149469
    15  H    0.149822
    16  H    0.151881
    17  H    0.151934
    18  H    0.155233
    19  H    0.155156
    20  H    0.160221
    21  C   -0.297930
    22  C   -0.304186
    23  C   -0.477518
    24  H    0.149392
    25  H    0.149192
    26  H    0.151103
    27  H    0.156990
    28  H    0.154070
    29  H    0.154424
    30  H    0.164254
    31  C   -0.298337
    32  C   -0.299602
    33  C   -0.475694
    34  H    0.149386
    35  H    0.149813
    36  H    0.151864
    37  H    0.151871
    38  H    0.155198
    39  H    0.155127
    40  H    0.160164
 Sum of Mulliken charges =  -0.00000

 Dipole moment (field-independent basis, Debye):
    X=             -0.0126    Y=             -0.0108    Z=              0.0046  Tot=              0.0172
 Quadrupole moment (field-independent basis, Debye-Ang):
   XX=            -86.5302   YY=            -84.2572   ZZ=            -84.1984
   XY=              1.5180   XZ=              0.0181   YZ=              0.0647

 Normal termination of Gaussian 16 at Thu May  6 05:16:05 2021.
