 Gaussian 16, Revision A.03,
 Gaussian 16:  EM64L-G16RevA.03 25-Dec-2016

 -------------
 #p 6-31g* mp2
 -------------

 ------------------------------------------------------
 Input file generated by CHIRIPA (05-May-2021 14:51:11)
 ------------------------------------------------------
 Symbolic Z-matrix:
 Charge =  0 Multiplicity = 1

                         Standard orientation:
 ---------------------------------------------------------------------
 Center     Atomic      Atomic             Coordinates (Angstroms)
 Number     Number       Type             X           Y           Z
 ---------------------------------------------------------------------
      1          6           0        3.647830   -0.088175    0.221793
      2          6           0        4.888876   -0.294115   -0.647332
      3          6           0        5.944837    0.791420   -0.436727
      4          1           0        3.212804    0.896238    0.001275
      5          1           0        3.948130   -0.067567    1.278576
      6          1           0        4.586147   -0.315713   -1.702085
      7          1           0        5.320888   -1.278232   -0.424857
      8          1           0        6.275217    0.810181    0.606872
      9          1           0        5.536300    1.778169   -0.677613
     10          1           0        6.823389    0.624698   -1.067766
     11          6           0        2.583110   -1.165385    0.022501
     12          6           0        1.342064   -0.959445    0.891625
     13          6           0        0.286103   -2.044980    0.681020
     14          1           0        2.282810   -1.185994   -1.034282
     15          1           0        3.018136   -2.149799    0.243019
     16          1           0        0.910052    0.024672    0.669150
     17          1           0        1.644793   -0.937847    1.946378
     18          1           0        0.694640   -3.031729    0.921907
     19          1           0       -0.044277   -2.063741   -0.362578
     20          1           0       -0.592449   -1.878259    1.312060
     21          6           0       -3.085363    1.372071    0.042376
     22          6           0       -1.676340    1.957964   -0.054416
     23          6           0       -1.632365    3.449824    0.277571
     24          1           0       -3.751126    1.920376   -0.638114
     25          1           0       -3.473477    1.534357    1.057475
     26          1           0       -1.290462    1.793394   -1.068630
     27          1           0       -1.013812    1.408076    0.626243
     28          1           0       -1.992225    3.628627    1.295967
     29          1           0       -2.270447    4.016136   -0.408536
     30          1           0       -0.615724    3.848091    0.202171
     31          6           0       -3.145577   -0.118510   -0.286669
     32          6           0       -4.554600   -0.704404   -0.189878
     33          6           0       -4.598575   -2.196263   -0.521865
     34          1           0       -2.757464   -0.280796   -1.301768
     35          1           0       -2.479815   -0.666815    0.393821
     36          1           0       -5.217128   -0.154515   -0.870535
     37          1           0       -4.940478   -0.539834    0.824337
     38          1           0       -3.960493   -2.762576    0.164243
     39          1           0       -4.238715   -2.375067   -1.540260
     40          1           0       -5.615216   -2.594531   -0.446464
 ---------------------------------------------------------------------

 SCF Done:  E(RHF) =  -470.732531086     A.U. after   11 cycles
 E2 =    -0.1584003544D+01 EUMP2 =    -0.47231653463012D+03

 The electronic state is 1-A.
 Alpha  occ. eigenvalues --  -11.21607 -11.21597 -11.21567 -11.21565 -11.21396
 Alpha  occ. eigenvalues --  -11.21376 -11.21337 -11.21285 -11.21090 -11.21069
 Alpha  occ. eigenvalues --  -11.21059 -11.21037  -1.08448  -1.08389  -1.03537
 Alpha  occ. eigenvalues --   -1.03511  -0.96002  -0.95942  -0.87035  -0.86945
 Alpha  occ. eigenvalues --   -0.79708  -0.79481  -0.78278  -0.78192  -0.65161
 Alpha  occ. eigenvalues --   -0.64964  -0.61005  -0.60846  -0.59366  -0.59334
 Alpha  occ. eigenvalues --   -0.57627  -0.57555  -0.55304  -0.55222  -0.52744
 Alpha  occ. eigenvalues --   -0.52650  -0.52426  -0.52341  -0.50013  -0.49830
 Alpha  occ. eigenvalues --   -0.48109  -0.47781  -0.46820  -0.46396  -0.45912
 Alpha  occ. eigenvalues --   -0.45735  -0.45698  -0.45423  -0.43771  -0.43737
 Alpha virt. eigenvalues --    0.21146   0.23072   0.23886   0.24068   0.25912
 Alpha virt. eigenvalues --    0.26273   0.27299   0.27389   0.28109   0.29801
 Alpha virt. eigenvalues --    0.30010   0.31447   0.31588   0.31970   0.32451

 Mulliken charges:
               1
     1  C   -0.298392
     2  C   -0.299648
     3  C   -0.475704
     4  H    0.149708
     5  H    0.149434
     6  H    0.151916
     7  H    0.151945
     8  H    0.155163
     9  H    0.155153
    10  H    0.160240
    11  C   -0.297677
    12  C   -0.307756
    13  C   -0.477500
    14  H    0.149622
    15  H    0.149557
    16  H    0.159502
    17  H    0.151285
    18  H    0.155180
    19  H    0.157378
    20  H    0.160196
    21  C   -0.297352
    22  C   -0.307213
    23  C   -0.475090
    24  H    0.149503
    25  H    0.149086
    26  H    0.151025
    27  H    0.159313
    28  H    0.155298
    29  H    0.155323
    30  H    0.159839
    31  C   -0.305214
    32  C   -0.299315
    33  C   -0.475769
    34  H    0.148407
    35  H    0.158806
    36  H    0.151635
    37  H    0.151460
    38  H    0.155605
    39  H    0.155001
    40  H    0.160051
 Sum of Mulliken charges =  -0.00000

 Dipole moment (field-independent basis, Debye):
    X=              0.0074    Y=             -0.0081    Z=              0.0029  Tot=              0.0114
 Quadrupole moment (field-independent basis, Debye-Ang):
   XX=            -85.5181   YY=            -86.1312   ZZ=            -83.3122
   XY=             -1.0614   XZ=              0.3572   YZ=             -0.8769

 Normal termination of Gaussian 16 at Thu May  6 05:28:13 2021.
