 Gaussian 16, Revision A.03,
 Gaussian 16:  EM64L-G16RevA.03 25-Dec-2016

 -------------
 #p 6-31g* mp2
 -------------

 ------------------------------------------------------
 Input file generated by CHIRIPA (05-May-2021 14:55:22)
 ------------------------------------------------------
 Symbolic Z-matrix:
 Charge =  0 Multiplicity = 1

                         Standard orientation:
 ---------------------------------------------------------------------
 Center     Atomic      Atomic             Coordinates (Angstroms)
 Number     Number       Type             X           Y           Z
 ---------------------------------------------------------------------
      1          6           0       -1.333328    1.187183    2.316819
      2          6           0       -0.661824   -0.035492    2.213522
      3          6           0       -0.958314   -0.922818    1.174631
      4          6           0       -1.936318   -0.553721    0.252371
      5          6           0       -2.622743    0.657202    0.328387
      6          6           0       -2.309922    1.529025    1.375581
      7          1           0       -1.096664    1.870458    3.127079
      8          1           0        0.097074   -0.303607    2.943064
      9          1           0       -0.453802   -1.875777    1.070926
     10          1           0       -3.374379    0.896686   -0.413980
     11          1           0       -2.833029    2.477899    1.453315
     12          7           0       -2.258843   -1.484887   -0.851851
     13          8           0       -3.124580   -1.136253   -1.651596
     14          8           0       -1.639794   -2.545738   -0.896688
     15          6           0        1.903314    1.079195   -0.485955
     16          6           0        1.178165    1.408739   -1.791154
     17          6           0        0.166866    2.544820   -1.634985
     18          1           0        1.162785    0.810149    0.279667
     19          1           0        2.416044    1.980284   -0.121891
     20          1           0        0.668096    0.506939   -2.153371
     21          1           0        1.920519    1.676847   -2.553812
     22          1           0        0.664263    3.459541   -1.296632
     23          1           0       -0.595275    2.282986   -0.893916
     24          1           0       -0.339927    2.763900   -2.579984
     25          6           0        2.917582   -0.054548   -0.626007
     26          6           0        3.642730   -0.384091    0.679192
     27          6           0        4.654030   -1.520172    0.523024
     28          1           0        2.404851   -0.955635   -0.990070
     29          1           0        3.658110    0.214499   -1.391629
     30          1           0        2.900377   -0.652199    1.441850
     31          1           0        4.152800    0.517710    1.041409
     32          1           0        5.416171   -1.258337   -0.218045
     33          1           0        4.156633   -2.434893    0.184670
     34          1           0        5.160823   -1.739252    1.468023
 ---------------------------------------------------------------------

 SCF Done:  E(RHF) =  -669.533639746     A.U. after   15 cycles
 E2 =    -0.2096715229D+01 EUMP2 =    -0.67163035497491D+03

 The electronic state is 1-A.
 Alpha  occ. eigenvalues --  -20.60920 -20.60913 -15.85977 -11.31389 -11.27956
 Alpha  occ. eigenvalues --  -11.27950 -11.27684 -11.26962 -11.26946 -11.21893
 Alpha  occ. eigenvalues --  -11.21475 -11.21405 -11.21252 -11.21200 -11.20912
 Alpha  occ. eigenvalues --   -1.59995  -1.39546  -1.19594  -1.08953  -1.08456
 Alpha  occ. eigenvalues --   -1.05004  -1.03580  -0.96011  -0.95778  -0.87038
 Alpha  occ. eigenvalues --   -0.86367  -0.82610  -0.79665  -0.78271  -0.77647
 Alpha  occ. eigenvalues --   -0.72189  -0.71329  -0.70654  -0.65231  -0.65137
 Alpha  occ. eigenvalues --   -0.64962  -0.62322  -0.61038  -0.59391  -0.57633
 Alpha  occ. eigenvalues --   -0.55454  -0.55351  -0.53410  -0.53052  -0.52719
 Alpha  occ. eigenvalues --   -0.52457  -0.50017  -0.48953  -0.48942  -0.47947
 Alpha  occ. eigenvalues --   -0.46699  -0.45760  -0.45610  -0.44936  -0.43804
 Alpha  occ. eigenvalues --   -0.37542  -0.36420
 Alpha virt. eigenvalues --    0.04853   0.10975   0.16248   0.20445   0.22956
 Alpha virt. eigenvalues --    0.23917   0.25869   0.26825   0.27809   0.28213
 Alpha virt. eigenvalues --    0.28866   0.30497   0.31499   0.31777   0.32316

 Mulliken charges:
               1
     1  C   -0.167479
     2  C   -0.221426
     3  C   -0.172572
     4  C    0.164765
     5  C   -0.173800
     6  C   -0.218086
     7  H    0.227389
     8  H    0.226092
     9  H    0.276714
    10  H    0.277372
    11  H    0.225606
    12  N    0.487929
    13  O   -0.459435
    14  O   -0.460379
    15  C   -0.308373
    16  C   -0.299323
    17  C   -0.483733
    18  H    0.159414
    19  H    0.144910
    20  H    0.154495
    21  H    0.152189
    22  H    0.150848
    23  H    0.159327
    24  H    0.160874
    25  C   -0.299859
    26  C   -0.297551
    27  C   -0.476005
    28  H    0.153613
    29  H    0.150964
    30  H    0.140534
    31  H    0.151419
    32  H    0.157368
    33  H    0.157508
    34  H    0.158692
 Sum of Mulliken charges =  -0.00000

 Dipole moment (field-independent basis, Debye):
    X=              0.9586    Y=              3.1997    Z=              3.9361  Tot=              5.1623
 Quadrupole moment (field-independent basis, Debye-Ang):
   XX=            -97.2466   YY=            -97.1892   ZZ=            -92.6438
   XY=             -8.7301   XZ=             -6.4114   YZ=             -2.3955

 Normal termination of Gaussian 16 at Thu May  6 14:14:17 2021.
