 Gaussian 16, Revision A.03,
 Gaussian 16:  EM64L-G16RevA.03 25-Dec-2016

 -------------
 #p 6-31g* mp2
 -------------

 ------------------------------------------------------
 Input file generated by CHIRIPA (05-May-2021 14:53:12)
 ------------------------------------------------------
 Symbolic Z-matrix:
 Charge =  0 Multiplicity = 1

                         Standard orientation:
 ---------------------------------------------------------------------
 Center     Atomic      Atomic             Coordinates (Angstroms)
 Number     Number       Type             X           Y           Z
 ---------------------------------------------------------------------
      1          6           0       -5.521949   -0.115138    0.426061
      2          6           0       -6.633692   -0.147925   -0.623195
      3          6           0       -8.028526   -0.016443   -0.010869
      4          1           0       -5.684607   -0.926350    1.148850
      5          1           0       -5.588222    0.824922    0.991119
      6          1           0       -6.564488   -1.087031   -1.187027
      7          1           0       -6.468262    0.663340   -1.343679
      8          1           0       -8.121829    0.927484    0.535847
      9          1           0       -8.218603   -0.832833    0.693389
     10          1           0       -8.808089   -0.042300   -0.778641
     11          6           0       -4.121715   -0.245520   -0.170656
     12          6           0       -3.009972   -0.212733    0.878600
     13          6           0       -1.615138   -0.344216    0.266274
     14          1           0       -4.055442   -1.185581   -0.735713
     15          1           0       -3.959057    0.565691   -0.893445
     16          1           0       -3.175402   -1.023999    1.599084
     17          1           0       -3.079176    0.726373    1.442432
     18          1           0       -1.425061    0.472175   -0.437984
     19          1           0       -1.521835   -1.288142   -0.280441
     20          1           0       -0.835575   -0.318359    1.034046
     21          6           0        2.390395    2.248130   -0.273646
     22          6           0        3.695568    2.303916    0.226287
     23          6           0        4.467504    1.142667    0.327106
     24          6           0        3.900147   -0.062838   -0.082958
     25          6           0        2.602740   -0.150861   -0.585230
     26          6           0        1.849102    1.023080   -0.677098
     27          1           0        1.797844    3.155146   -0.348488
     28          1           0        4.118540    3.253914    0.540362
     29          1           0        5.480545    1.157228    0.710452
     30          1           0        2.208440   -1.112526   -0.890426
     31          1           0        0.835761    0.976757   -1.065739
     32          7           0        4.707675   -1.298919    0.019036
     33          8           0        4.184752   -2.348594   -0.348891
     34          8           0        5.848249   -1.194679    0.464976
 ---------------------------------------------------------------------

 SCF Done:  E(RHF) =  -669.535363690     A.U. after   15 cycles
 E2 =    -0.2091128759D+01 EUMP2 =    -0.67162649244985D+03

 The electronic state is 1-A.
 Alpha  occ. eigenvalues --  -20.60709 -20.60704 -15.85761 -11.31112 -11.27681
 Alpha  occ. eigenvalues --  -11.27656 -11.27411 -11.26704 -11.26626 -11.22246
 Alpha  occ. eigenvalues --  -11.21971 -11.21961 -11.21925 -11.21793 -11.21367
 Alpha  occ. eigenvalues --   -1.59785  -1.39339  -1.19280  -1.08937  -1.08680
 Alpha  occ. eigenvalues --   -1.04679  -1.04064  -0.96539  -0.95517  -0.87574
 Alpha  occ. eigenvalues --   -0.86073  -0.82348  -0.80144  -0.78729  -0.77391
 Alpha  occ. eigenvalues --   -0.71980  -0.71108  -0.70392  -0.65577  -0.64929
 Alpha  occ. eigenvalues --   -0.64693  -0.62064  -0.61437  -0.59894  -0.58126
 Alpha  occ. eigenvalues --   -0.55856  -0.55181  -0.53340  -0.53049  -0.52936
 Alpha  occ. eigenvalues --   -0.52640  -0.50463  -0.48741  -0.48736  -0.48440
 Alpha  occ. eigenvalues --   -0.47152  -0.46277  -0.46182  -0.44748  -0.44303
 Alpha  occ. eigenvalues --   -0.37264  -0.36264
 Alpha virt. eigenvalues --    0.05122   0.11359   0.16579   0.20654   0.22461
 Alpha virt. eigenvalues --    0.23857   0.25481   0.26215   0.27166   0.28125
 Alpha virt. eigenvalues --    0.28824   0.29802   0.31173   0.31380   0.32010

 Mulliken charges:
               1
     1  C   -0.298702
     2  C   -0.299968
     3  C   -0.475977
     4  H    0.151354
     5  H    0.149579
     6  H    0.152899
     7  H    0.151484
     8  H    0.155247
     9  H    0.156130
    10  H    0.161247
    11  C   -0.298847
    12  C   -0.299676
    13  C   -0.481239
    14  H    0.151213
    15  H    0.147782
    16  H    0.156281
    17  H    0.152449
    18  H    0.144623
    19  H    0.158220
    20  H    0.166300
    21  C   -0.172900
    22  C   -0.218461
    23  C   -0.171423
    24  C    0.158635
    25  C   -0.173744
    26  C   -0.219687
    27  H    0.225055
    28  H    0.222975
    29  H    0.275241
    30  H    0.275986
    31  H    0.231137
    32  N    0.488082
    33  O   -0.460529
    34  O   -0.460764
 Sum of Mulliken charges =  -0.00000

 Dipole moment (field-independent basis, Debye):
    X=             -3.0262    Y=              4.3068    Z=             -0.3047  Tot=              5.2725
 Quadrupole moment (field-independent basis, Debye-Ang):
   XX=           -115.0735   YY=            -93.3331   ZZ=            -94.8361
   XY=             19.9028   XZ=              0.6524   YZ=              0.6690

 Normal termination of Gaussian 16 at Thu May  6 08:49:03 2021.
