 Gaussian 16, Revision A.03,
 Gaussian 16:  EM64L-G16RevA.03 25-Dec-2016

 -------------
 #p 6-31g* mp2
 -------------

 ------------------------------------------------------
 Input file generated by CHIRIPA (05-May-2021 14:57:25)
 ------------------------------------------------------
 Symbolic Z-matrix:
 Charge =  0 Multiplicity = 1

                         Standard orientation:
 ---------------------------------------------------------------------
 Center     Atomic      Atomic             Coordinates (Angstroms)
 Number     Number       Type             X           Y           Z
 ---------------------------------------------------------------------
      1          6           0        3.044085    2.519827    0.754516
      2          6           0        2.401360    1.530788    1.506333
      3          6           0        2.464288    0.189597    1.116726
      4          6           0        3.181925   -0.128476   -0.035280
      5          6           0        3.832909    0.834054   -0.805374
      6          6           0        3.756553    2.168922   -0.396907
      7          1           0        2.989986    3.559241    1.064498
      8          1           0        1.847328    1.800389    2.400989
      9          1           0        1.976083   -0.596267    1.680190
     10          1           0        4.377605    0.534563   -1.692521
     11          1           0        4.256684    2.934907   -0.982724
     12          7           0        3.255652   -1.544988   -0.457722
     13          8           0        3.894300   -1.799259   -1.476600
     14          8           0        2.673396   -2.374159    0.238045
     15          6           0       -2.239284   -2.375383    0.553355
     16          6           0       -1.383407   -1.274117    0.447478
     17          6           0       -1.887939   -0.011451    0.122409
     18          6           0       -3.259730    0.114512   -0.091160
     19          6           0       -4.138079   -0.963529    0.006929
     20          6           0       -3.611468   -2.216854    0.333131
     21          1           0       -1.838775   -3.352624    0.806317
     22          1           0       -0.317321   -1.394273    0.617967
     23          1           0       -1.247953    0.858034    0.033915
     24          1           0       -5.196275   -0.812580   -0.168719
     25          1           0       -4.278522   -3.070338    0.414673
     26          7           0       -3.805543    1.446295   -0.435896
     27          8           0       -5.017918    1.530952   -0.619243
     28          8           0       -3.010640    2.380273   -0.516227
 ---------------------------------------------------------------------

 SCF Done:  E(RHF) =  -868.339467286     A.U. after   16 cycles
 E2 =    -0.2599900612D+01 EUMP2 =    -0.87093936789743D+03

 The electronic state is 1-A.
 Alpha  occ. eigenvalues --  -20.61671 -20.61610 -20.60765 -20.60749 -15.86665
 Alpha  occ. eigenvalues --  -15.85809 -11.31910 -11.31052 -11.28515 -11.28376
 Alpha  occ. eigenvalues --  -11.28062 -11.27604 -11.27601 -11.27427 -11.27345
 Alpha  occ. eigenvalues --  -11.27241 -11.26569 -11.26499  -1.60697  -1.59837
 Alpha  occ. eigenvalues --   -1.40260  -1.39395  -1.20044  -1.19199  -1.09439
 Alpha  occ. eigenvalues --   -1.08597  -1.05427  -1.04586  -0.96306  -0.95460
 Alpha  occ. eigenvalues --   -0.86822  -0.85972  -0.83142  -0.82305  -0.78239
 Alpha  occ. eigenvalues --   -0.77379  -0.72884  -0.72032  -0.72006  -0.71159
 Alpha  occ. eigenvalues --   -0.71117  -0.70268  -0.65686  -0.65417  -0.64841
 Alpha  occ. eigenvalues --   -0.64555  -0.62795  -0.61910  -0.55867  -0.55030
 Alpha  occ. eigenvalues --   -0.53748  -0.53509  -0.52921  -0.52639  -0.49659
 Alpha  occ. eigenvalues --   -0.49618  -0.48794  -0.48771  -0.45676  -0.44829
 Alpha  occ. eigenvalues --   -0.37969  -0.37145  -0.37030  -0.36199
 Alpha virt. eigenvalues --    0.04243   0.05147   0.10513   0.11456   0.15814
 Alpha virt. eigenvalues --    0.16673   0.20258   0.21965   0.25685   0.27286
 Alpha virt. eigenvalues --    0.28434   0.28715   0.29894   0.31168   0.32207

 Mulliken charges:
               1
     1  C   -0.168991
     2  C   -0.219493
     3  C   -0.180800
     4  C    0.160086
     5  C   -0.170068
     6  C   -0.216926
     7  H    0.231106
     8  H    0.227580
     9  H    0.270804
    10  H    0.277865
    11  H    0.227709
    12  N    0.489296
    13  O   -0.453852
    14  O   -0.468689
    15  C   -0.171436
    16  C   -0.227043
    17  C   -0.174721
    18  C    0.158770
    19  C   -0.171501
    20  C   -0.218721
    21  H    0.231618
    22  H    0.232890
    23  H    0.272060
    24  H    0.274761
    25  H    0.223588
    26  N    0.488284
    27  O   -0.460450
    28  O   -0.463727
 Sum of Mulliken charges =  -0.00000

 Dipole moment (field-independent basis, Debye):
    X=              1.9776    Y=              0.3817    Z=              2.6255  Tot=              3.3090
 Quadrupole moment (field-independent basis, Debye-Ang):
   XX=           -113.0826   YY=           -106.4710   ZZ=           -103.0796
   XY=             35.5025   XZ=             -1.9973   YZ=             -0.7143

 Normal termination of Gaussian 16 at Thu May  6 03:33:27 2021.
