 Gaussian 16, Revision A.03,
 Gaussian 16:  EM64L-G16RevA.03 25-Dec-2016

 -------------
 #p 6-31g* mp2
 -------------

 ------------------------------------------------------
 Input file generated by CHIRIPA (05-May-2021 14:51:13)
 ------------------------------------------------------
 Symbolic Z-matrix:
 Charge =  0 Multiplicity = 1

                         Standard orientation:
 ---------------------------------------------------------------------
 Center     Atomic      Atomic             Coordinates (Angstroms)
 Number     Number       Type             X           Y           Z
 ---------------------------------------------------------------------
      1          6           0        3.580483   -0.008953   -0.205682
      2          6           0        4.662753   -0.523956    0.743764
      3          6           0        5.297552   -1.829574    0.263986
      4          1           0        2.803073   -0.777253   -0.316557
      5          1           0        4.017656    0.139535   -1.202791
      6          1           0        4.223995   -0.670112    1.739126
      7          1           0        5.437581    0.245735    0.852542
      8          1           0        5.761112   -1.694271   -0.718565
      9          1           0        4.540630   -2.615323    0.173056
     10          1           0        6.068454   -2.179748    0.957491
     11          6           0        2.936486    1.295572    0.260377
     12          6           0        1.854216    1.810576   -0.689069
     13          6           0        1.219416    3.116193   -0.209291
     14          1           0        2.499313    1.147085    1.257486
     15          1           0        3.713896    2.063873    0.371252
     16          1           0        1.079388    1.040884   -0.797847
     17          1           0        2.292974    1.956732   -1.684431
     18          1           0        1.976339    3.901942   -0.118361
     19          1           0        0.755857    2.980891    0.773260
     20          1           0        0.448514    3.466368   -0.902795
     21          6           0       -3.708067   -0.101151    0.268239
     22          6           0       -5.192916   -0.318190   -0.025198
     23          6           0       -6.079549    0.774622    0.572665
     24          1           0       -3.558032   -0.059384    1.355754
     25          1           0       -3.402517    0.877429   -0.127257
     26          1           0       -5.495245   -1.296666    0.369514
     27          1           0       -5.339406   -0.359637   -1.112138
     28          1           0       -5.806124    1.755483    0.170483
     29          1           0       -5.962850    0.813130    1.660552
     30          1           0       -7.136947    0.599766    0.350866
     31          6           0       -2.808902   -1.185468   -0.322934
     32          6           0       -1.324053   -0.968430   -0.029498
     33          6           0       -0.437420   -2.061241   -0.627360
     34          1           0       -3.114451   -2.164048    0.072562
     35          1           0       -2.958936   -1.227236   -1.410450
     36          1           0       -1.177564   -0.926983    1.057442
     37          1           0       -1.021723    0.010047   -0.424209
     38          1           0       -0.554119   -2.099750   -1.715248
     39          1           0       -0.710844   -3.042103   -0.225179
     40          1           0        0.619978   -1.886386   -0.405561
 ---------------------------------------------------------------------

 SCF Done:  E(RHF) =  -470.732868150     A.U. after   11 cycles
 E2 =    -0.1583825865D+01 EUMP2 =    -0.47231669401521D+03

 The electronic state is 1-A.
 Alpha  occ. eigenvalues --  -11.21656 -11.21620 -11.21597 -11.21550 -11.21439
 Alpha  occ. eigenvalues --  -11.21394 -11.21378 -11.21333 -11.21136 -11.21084
 Alpha  occ. eigenvalues --  -11.21064 -11.21062  -1.08479  -1.08411  -1.03587
 Alpha  occ. eigenvalues --   -1.03506  -0.96025  -0.95968  -0.87043  -0.86981
 Alpha  occ. eigenvalues --   -0.79695  -0.79531  -0.78314  -0.78209  -0.65190
 Alpha  occ. eigenvalues --   -0.65001  -0.61107  -0.60798  -0.59413  -0.59318
 Alpha  occ. eigenvalues --   -0.57651  -0.57571  -0.55317  -0.55257  -0.52761
 Alpha  occ. eigenvalues --   -0.52650  -0.52462  -0.52364  -0.49986  -0.49895
 Alpha  occ. eigenvalues --   -0.48078  -0.47813  -0.46871  -0.46457  -0.45889
 Alpha  occ. eigenvalues --   -0.45799  -0.45734  -0.45468  -0.43804  -0.43764
 Alpha virt. eigenvalues --    0.20391   0.23004   0.23704   0.24334   0.26071
 Alpha virt. eigenvalues --    0.26521   0.26975   0.27413   0.28398   0.28958
 Alpha virt. eigenvalues --    0.30399   0.31415   0.31720   0.31838   0.32359

 Mulliken charges:
               1
     1  C   -0.306310
     2  C   -0.299194
     3  C   -0.475749
     4  H    0.156271
     5  H    0.149797
     6  H    0.151790
     7  H    0.152044
     8  H    0.155265
     9  H    0.155132
    10  H    0.160257
    11  C   -0.297266
    12  C   -0.308543
    13  C   -0.475595
    14  H    0.149432
    15  H    0.149646
    16  H    0.160855
    17  H    0.151650
    18  H    0.155279
    19  H    0.155625
    20  H    0.159419
    21  C   -0.298453
    22  C   -0.299692
    23  C   -0.475743
    24  H    0.149604
    25  H    0.149899
    26  H    0.151951
    27  H    0.152010
    28  H    0.155313
    29  H    0.155194
    30  H    0.160321
    31  C   -0.297743
    32  C   -0.305008
    33  C   -0.482990
    34  H    0.149646
    35  H    0.149846
    36  H    0.151647
    37  H    0.156874
    38  H    0.155945
    39  H    0.155769
    40  H    0.165802
 Sum of Mulliken charges =  -0.00000

 Dipole moment (field-independent basis, Debye):
    X=             -0.0208    Y=             -0.0094    Z=             -0.0035  Tot=              0.0231
 Quadrupole moment (field-independent basis, Debye-Ang):
   XX=            -85.1862   YY=            -85.6373   ZZ=            -83.9471
   XY=              1.4810   XZ=             -0.0347   YZ=             -1.2026

 Normal termination of Gaussian 16 at Wed May  5 19:57:01 2021.
