 Gaussian 16, Revision A.03,
 Gaussian 16:  EM64L-G16RevA.03 25-Dec-2016

 -------------
 #p 6-31g* mp2
 -------------

 ------------------------------------------------------
 Input file generated by CHIRIPA (05-May-2021 14:55:21)
 ------------------------------------------------------
 Symbolic Z-matrix:
 Charge =  0 Multiplicity = 1

                         Standard orientation:
 ---------------------------------------------------------------------
 Center     Atomic      Atomic             Coordinates (Angstroms)
 Number     Number       Type             X           Y           Z
 ---------------------------------------------------------------------
      1          6           0       -0.832765   -0.090126    1.417045
      2          6           0       -2.046747   -0.278970    2.085704
      3          6           0       -3.252547   -0.291333    1.378285
      4          6           0       -3.207323   -0.110995   -0.003281
      5          6           0       -2.013867    0.079434   -0.698039
      6          6           0       -0.820221    0.088159    0.029753
      7          1           0        0.099209   -0.081935    1.974498
      8          1           0       -2.059515   -0.417679    3.163035
      9          1           0       -4.206547   -0.435519    1.870741
     10          1           0       -2.033033    0.215067   -1.772587
     11          1           0        0.121088    0.235029   -0.492177
     12          7           0       -4.477416   -0.122158   -0.762978
     13          8           0       -4.410647    0.038948   -1.979622
     14          8           0       -5.515634   -0.291802   -0.127399
     15          6           0        3.738855   -0.579754    0.080729
     16          6           0        4.634180   -1.584892   -0.644581
     17          6           0        4.425409   -3.019905   -0.159866
     18          1           0        3.935011   -0.635855    1.160229
     19          1           0        2.687643   -0.866442   -0.061255
     20          1           0        5.683334   -1.295610   -0.502426
     21          1           0        4.436007   -1.526257   -1.722498
     22          1           0        3.387968   -3.332449   -0.316810
     23          1           0        4.642382   -3.100491    0.910195
     24          1           0        5.075337   -3.721826   -0.691617
     25          6           0        3.936017    0.859193   -0.392861
     26          6           0        3.040691    1.864330    0.332449
     27          6           0        3.249461    3.299343   -0.152266
     28          1           0        4.987228    1.145880   -0.250877
     29          1           0        3.739860    0.915293   -1.472362
     30          1           0        3.238865    1.805695    1.410366
     31          1           0        1.991538    1.575048    0.190294
     32          1           0        3.032489    3.379930   -1.222326
     33          1           0        4.286903    3.611887    0.004678
     34          1           0        2.599535    4.001266    0.379485
 ---------------------------------------------------------------------

 SCF Done:  E(RHF) =  -669.535471362     A.U. after   15 cycles
 E2 =    -0.2091846459D+01 EUMP2 =    -0.67162731782090D+03

 The electronic state is 1-A.
 Alpha  occ. eigenvalues --  -20.60747 -20.60742 -15.85801 -11.31164 -11.27740
 Alpha  occ. eigenvalues --  -11.27736 -11.27457 -11.26738 -11.26722 -11.22708
 Alpha  occ. eigenvalues --  -11.22450 -11.22370 -11.22332 -11.21891 -11.21735
 Alpha  occ. eigenvalues --   -1.59823  -1.39377  -1.19337  -1.09400  -1.08727
 Alpha  occ. eigenvalues --   -1.04744  -1.04404  -0.96828  -0.95562  -0.87842
 Alpha  occ. eigenvalues --   -0.86145  -0.82397  -0.80491  -0.79238  -0.77448
 Alpha  occ. eigenvalues --   -0.72019  -0.71146  -0.70430  -0.66106  -0.64986
 Alpha  occ. eigenvalues --   -0.64719  -0.62143  -0.61750  -0.60196  -0.58448
 Alpha  occ. eigenvalues --   -0.56111  -0.55222  -0.53501  -0.53251  -0.53061
 Alpha  occ. eigenvalues --   -0.52850  -0.50771  -0.48820  -0.48775  -0.48750
 Alpha  occ. eigenvalues --   -0.47528  -0.46735  -0.46672  -0.44783  -0.44678
 Alpha  occ. eigenvalues --   -0.37305  -0.36344
 Alpha virt. eigenvalues --    0.05091   0.11194   0.16586   0.18767   0.22702
 Alpha virt. eigenvalues --    0.23592   0.24768   0.25760   0.27136   0.28025
 Alpha virt. eigenvalues --    0.29938   0.30297   0.31053   0.31417   0.31572

 Mulliken charges:
               1
     1  C   -0.172152
     2  C   -0.218812
     3  C   -0.170903
     4  C    0.158650
     5  C   -0.171264
     6  C   -0.224006
     7  H    0.227851
     8  H    0.223418
     9  H    0.275574
    10  H    0.275629
    11  H    0.229162
    12  N    0.487997
    13  O   -0.460525
    14  O   -0.460456
    15  C   -0.301054
    16  C   -0.300007
    17  C   -0.476579
    18  H    0.150065
    19  H    0.142405
    20  H    0.154858
    21  H    0.153847
    22  H    0.155588
    23  H    0.155389
    24  H    0.163588
    25  C   -0.298881
    26  C   -0.305546
    27  C   -0.475609
    28  H    0.154336
    29  H    0.151064
    30  H    0.152551
    31  H    0.145051
    32  H    0.157105
    33  H    0.158582
    34  H    0.163085
 Sum of Mulliken charges =  -0.00000

 Dipole moment (field-independent basis, Debye):
    X=              4.6972    Y=              0.0644    Z=              2.6628  Tot=              5.3999
 Quadrupole moment (field-independent basis, Debye-Ang):
   XX=           -121.1631   YY=            -96.2077   ZZ=            -90.8253
   XY=             -0.0399   XZ=            -10.7685   YZ=             -0.6893

 Normal termination of Gaussian 16 at Thu May  6 09:20:10 2021.
