 Gaussian 16, Revision A.03,
 Gaussian 16:  EM64L-G16RevA.03 25-Dec-2016

 -------------
 #p 6-31g* mp2
 -------------

 ------------------------------------------------------
 Input file generated by CHIRIPA (05-May-2021 14:51:14)
 ------------------------------------------------------
 Symbolic Z-matrix:
 Charge =  0 Multiplicity = 1

                         Standard orientation:
 ---------------------------------------------------------------------
 Center     Atomic      Atomic             Coordinates (Angstroms)
 Number     Number       Type             X           Y           Z
 ---------------------------------------------------------------------
      1          6           0       -3.886202   -0.049795    0.040369
      2          6           0       -3.755301   -1.306095   -0.821350
      3          6           0       -4.757778   -2.394366   -0.435993
      4          1           0       -3.747597   -0.320843    1.095957
      5          1           0       -4.908307    0.343359   -0.049778
      6          1           0       -2.733347   -1.695977   -0.730689
      7          1           0       -3.894044   -1.031994   -1.875027
      8          1           0       -5.783989   -2.028539   -0.543983
      9          1           0       -4.616698   -2.696294    0.606857
     10          1           0       -4.646617   -3.283395   -1.064587
     11          6           0       -2.890719    1.047237   -0.332810
     12          6           0       -3.021620    2.303537    0.528910
     13          6           0       -2.019143    3.391807    0.143553
     14          1           0       -1.868614    0.654083   -0.242662
     15          1           0       -3.029324    1.318285   -1.388398
     16          1           0       -2.882877    2.029435    1.582586
     17          1           0       -4.043574    2.693418    0.438248
     18          1           0       -2.160223    3.693736   -0.899298
     19          1           0       -0.992932    3.025980    0.251543
     20          1           0       -2.130304    4.280836    0.772147
     21          6           0        4.109728   -0.310782    0.313205
     22          6           0        4.880326    0.256076   -0.879622
     23          6           0        6.321705    0.627347   -0.529795
     24          1           0        4.112598    0.426748    1.127444
     25          1           0        4.635935   -1.197557    0.692851
     26          1           0        4.352079    1.140708   -1.257768
     27          1           0        4.875458   -0.482814   -1.691185
     28          1           0        6.869891   -0.250587   -0.172969
     29          1           0        6.343538    1.382160    0.262910
     30          1           0        6.854175    1.030476   -1.396872
     31          6           0        2.667193   -0.686660   -0.020764
     32          6           0        1.896595   -1.253517    1.172063
     33          6           0        0.455216   -1.624788    0.822236
     34          1           0        2.140986    0.200116   -0.400410
     35          1           0        2.664322   -1.424190   -0.835003
     36          1           0        1.901463   -0.514627    1.983626
     37          1           0        2.424842   -2.138149    1.550210
     38          1           0        0.433383   -2.379601    0.029531
     39          1           0       -0.092971   -0.746855    0.465410
     40          1           0       -0.077254   -2.027917    1.689313
 ---------------------------------------------------------------------

 SCF Done:  E(RHF) =  -470.733306344     A.U. after   11 cycles
 E2 =    -0.1582995018D+01 EUMP2 =    -0.47231630136218D+03

 The electronic state is 1-A.
 Alpha  occ. eigenvalues --  -11.21667 -11.21619 -11.21599 -11.21521 -11.21444
 Alpha  occ. eigenvalues --  -11.21383 -11.21370 -11.21307 -11.21153 -11.21094
 Alpha  occ. eigenvalues --  -11.21084 -11.21016  -1.08473  -1.08397  -1.03576
 Alpha  occ. eigenvalues --   -1.03499  -0.96034  -0.95950  -0.87049  -0.86969
 Alpha  occ. eigenvalues --   -0.79645  -0.79560  -0.78302  -0.78191  -0.65157
 Alpha  occ. eigenvalues --   -0.64992  -0.60992  -0.60879  -0.59394  -0.59320
 Alpha  occ. eigenvalues --   -0.57658  -0.57550  -0.55430  -0.55145  -0.52725
 Alpha  occ. eigenvalues --   -0.52652  -0.52471  -0.52365  -0.50056  -0.49829
 Alpha  occ. eigenvalues --   -0.47991  -0.47882  -0.46760  -0.46552  -0.45933
 Alpha  occ. eigenvalues --   -0.45770  -0.45729  -0.45416  -0.43828  -0.43753
 Alpha virt. eigenvalues --    0.20804   0.22978   0.24003   0.24492   0.25475
 Alpha virt. eigenvalues --    0.26688   0.27144   0.27528   0.28000   0.29318
 Alpha virt. eigenvalues --    0.30247   0.31523   0.31782   0.31995   0.32230

 Mulliken charges:
               1
     1  C   -0.297437
     2  C   -0.302824
     3  C   -0.475566
     4  H    0.149733
     5  H    0.149266
     6  H    0.156365
     7  H    0.151393
     8  H    0.154823
     9  H    0.155141
    10  H    0.160019
    11  C   -0.306368
    12  C   -0.299263
    13  C   -0.475458
    14  H    0.156458
    15  H    0.149738
    16  H    0.151945
    17  H    0.152093
    18  H    0.155363
    19  H    0.153933
    20  H    0.160347
    21  C   -0.298352
    22  C   -0.299732
    23  C   -0.475742
    24  H    0.149711
    25  H    0.149634
    26  H    0.152145
    27  H    0.152018
    28  H    0.155183
    29  H    0.155237
    30  H    0.160377
    31  C   -0.298354
    32  C   -0.299827
    33  C   -0.483513
    34  H    0.149278
    35  H    0.149953
    36  H    0.151959
    37  H    0.152323
    38  H    0.155832
    39  H    0.161784
    40  H    0.160387
 Sum of Mulliken charges =  -0.00000

 Dipole moment (field-independent basis, Debye):
    X=              0.0264    Y=             -0.0125    Z=             -0.0003  Tot=              0.0292
 Quadrupole moment (field-independent basis, Debye-Ang):
   XX=            -85.8516   YY=            -84.6252   ZZ=            -84.3213
   XY=             -1.4946   XZ=              0.3579   YZ=              0.0921

 Normal termination of Gaussian 16 at Thu May  6 04:01:51 2021.
