 Gaussian 16, Revision A.03,
 Gaussian 16:  EM64L-G16RevA.03 25-Dec-2016

 -------------
 #p 6-31g* mp2
 -------------

 ------------------------------------------------------
 Input file generated by CHIRIPA (05-May-2021 14:57:24)
 ------------------------------------------------------
 Symbolic Z-matrix:
 Charge =  0 Multiplicity = 1

                         Standard orientation:
 ---------------------------------------------------------------------
 Center     Atomic      Atomic             Coordinates (Angstroms)
 Number     Number       Type             X           Y           Z
 ---------------------------------------------------------------------
      1          6           0       -2.619916    2.607083    0.364897
      2          6           0       -2.004114    1.533325    1.016321
      3          6           0       -2.454789    0.225818    0.811712
      4          6           0       -3.528503    0.027452   -0.054937
      5          6           0       -4.162864    1.076483   -0.718572
      6          6           0       -3.695429    2.375643   -0.498947
      7          1           0       -2.263311    3.619544    0.529675
      8          1           0       -1.168657    1.710084    1.687747
      9          1           0       -1.996430   -0.623786    1.303135
     10          1           0       -4.993591    0.868876   -1.382056
     11          1           0       -4.175595    3.207615   -1.006202
     12          7           0       -4.014485   -1.352329   -0.279496
     13          8           0       -4.962199   -1.500576   -1.047933
     14          8           0       -3.438480   -2.259428    0.317185
     15          6           0        5.337440    1.303491   -0.589553
     16          6           0        4.158031    1.814788   -0.038109
     17          6           0        3.104853    0.960681    0.302280
     18          6           0        3.265783   -0.405512    0.076655
     19          6           0        4.428476   -0.945307   -0.471119
     20          6           0        5.468668   -0.072499   -0.803920
     21          1           0        6.150530    1.974245   -0.851029
     22          1           0        4.053327    2.882962    0.129485
     23          1           0        2.180869    1.329708    0.730639
     24          1           0        4.503433   -2.014733   -0.626446
     25          1           0        6.383467   -0.472388   -1.232027
     26          7           0        2.157705   -1.319615    0.432994
     27          8           0        2.324321   -2.519334    0.224307
     28          8           0        1.143558   -0.819062    0.914232
 ---------------------------------------------------------------------

 SCF Done:  E(RHF) =  -868.338323546     A.U. after   16 cycles
 E2 =    -0.2599416371D+01 EUMP2 =    -0.87093773991622D+03

 The electronic state is 1-A.
 Alpha  occ. eigenvalues --  -20.61273 -20.61221 -20.59920 -20.59874 -15.86300
 Alpha  occ. eigenvalues --  -15.84953 -11.31618 -11.30328 -11.28237 -11.28137
 Alpha  occ. eigenvalues --  -11.27897 -11.27209 -11.27144 -11.27019 -11.26816
 Alpha  occ. eigenvalues --  -11.26776 -11.26064 -11.25937  -1.60301  -1.58978
 Alpha  occ. eigenvalues --   -1.39865  -1.38526  -1.19779  -1.18549  -1.09177
 Alpha  occ. eigenvalues --   -1.07972  -1.05182  -1.03935  -0.96025  -0.94781
 Alpha  occ. eigenvalues --   -0.86581  -0.85358  -0.82872  -0.81595  -0.77927
 Alpha  occ. eigenvalues --   -0.76608  -0.72535  -0.71613  -0.71173  -0.70891
 Alpha  occ. eigenvalues --   -0.70302  -0.69686  -0.65440  -0.65187  -0.64205
 Alpha  occ. eigenvalues --   -0.63967  -0.62540  -0.61249  -0.55673  -0.54534
 Alpha  occ. eigenvalues --   -0.53503  -0.53280  -0.52301  -0.52036  -0.49282
 Alpha  occ. eigenvalues --   -0.49238  -0.47950  -0.47910  -0.45278  -0.43926
 Alpha  occ. eigenvalues --   -0.37745  -0.36780  -0.36607  -0.35526
 Alpha virt. eigenvalues --    0.04618   0.05908   0.10877   0.12081   0.16126
 Alpha virt. eigenvalues --    0.17328   0.20555   0.22105   0.25917   0.27264
 Alpha virt. eigenvalues --    0.28735   0.29091   0.30468   0.31363   0.32759

 Mulliken charges:
               1
     1  C   -0.172369
     2  C   -0.221126
     3  C   -0.165448
     4  C    0.155621
     5  C   -0.171610
     6  C   -0.219836
     7  H    0.219143
     8  H    0.222334
     9  H    0.291899
    10  H    0.273061
    11  H    0.219213
    12  N    0.487705
    13  O   -0.465393
    14  O   -0.454546
    15  C   -0.170386
    16  C   -0.218150
    17  C   -0.169539
    18  C    0.159261
    19  C   -0.170006
    20  C   -0.218280
    21  H    0.226780
    22  H    0.222343
    23  H    0.268596
    24  H    0.277826
    25  H    0.225354
    26  N    0.491535
    27  O   -0.452652
    28  O   -0.471327
 Sum of Mulliken charges =  -0.00000

 Dipole moment (field-independent basis, Debye):
    X=              5.9912    Y=              7.7479    Z=             -0.4250  Tot=              9.8033
 Quadrupole moment (field-independent basis, Debye-Ang):
   XX=            -88.5070   YY=           -104.5806   ZZ=           -104.0046
   XY=            -11.6112   XZ=             -5.8186   YZ=              0.5854

 Normal termination of Gaussian 16 at Fri May  7 01:54:53 2021.
