 Gaussian 16, Revision A.03,
 Gaussian 16:  EM64L-G16RevA.03 25-Dec-2016

 -------------
 #p 6-31g* mp2
 -------------

 ------------------------------------------------------
 Input file generated by CHIRIPA (05-May-2021 14:53:14)
 ------------------------------------------------------
 Symbolic Z-matrix:
 Charge =  0 Multiplicity = 1

                         Standard orientation:
 ---------------------------------------------------------------------
 Center     Atomic      Atomic             Coordinates (Angstroms)
 Number     Number       Type             X           Y           Z
 ---------------------------------------------------------------------
      1          6           0       -2.190533    0.926303   -0.025929
      2          6           0       -1.980727    2.416323   -0.297599
      3          6           0       -0.509939    2.777588   -0.507510
      4          1           0       -1.610150    0.636468    0.860691
      5          1           0       -1.786149    0.346799   -0.867382
      6          1           0       -2.386631    2.992903    0.543480
      7          1           0       -2.561829    2.702686   -1.183564
      8          1           0       -0.095969    2.227900   -1.359022
      9          1           0        0.080225    2.519765    0.377835
     10          1           0       -0.382872    3.847444   -0.700181
     11          6           0       -3.655760    0.549581    0.186015
     12          6           0       -3.865566   -0.940440    0.457685
     13          6           0       -5.336355   -1.301705    0.667595
     14          1           0       -4.060145    1.129085    1.027468
     15          1           0       -4.236143    0.839415   -0.700606
     16          1           0       -3.284464   -1.226803    1.343649
     17          1           0       -3.459662   -1.517019   -0.383395
     18          1           0       -5.926518   -1.043882   -0.217749
     19          1           0       -5.750324   -0.752016    1.519107
     20          1           0       -5.463422   -2.371561    0.860266
     21          6           0        3.597568    1.367825    0.864414
     22          6           0        3.516550    0.171133    1.584055
     23          6           0        2.791370   -0.912711    1.080128
     24          6           0        2.156689   -0.764488   -0.152147
     25          6           0        2.218754    0.414827   -0.892858
     26          6           0        2.949554    1.485646   -0.369571
     27          1           0        4.163087    2.204722    1.263396
     28          1           0        4.018794    0.076781    2.542646
     29          1           0        2.712189   -1.850601    1.616327
     30          1           0        1.707420    0.478832   -1.845674
     31          1           0        3.010747    2.413812   -0.930648
     32          7           0        1.385999   -1.905011   -0.695880
     33          8           0        0.835856   -1.749056   -1.783841
     34          8           0        1.346668   -2.933311   -0.023803
 ---------------------------------------------------------------------

 SCF Done:  E(RHF) =  -669.534782599     A.U. after   15 cycles
 E2 =    -0.2093226094D+01 EUMP2 =    -0.67162800869228D+03

 The electronic state is 1-A.
 Alpha  occ. eigenvalues --  -20.60805 -20.60800 -15.85846 -11.31169 -11.27735
 Alpha  occ. eigenvalues --  -11.27725 -11.27477 -11.26750 -11.26713 -11.21589
 Alpha  occ. eigenvalues --  -11.21296 -11.21129 -11.21096 -11.21029 -11.20643
 Alpha  occ. eigenvalues --   -1.59868  -1.39425  -1.19348  -1.08747  -1.08180
 Alpha  occ. eigenvalues --   -1.04753  -1.03330  -0.95822  -0.95583  -0.86849
 Alpha  occ. eigenvalues --   -0.86145  -0.82423  -0.79416  -0.77961  -0.77460
 Alpha  occ. eigenvalues --   -0.72068  -0.71179  -0.70467  -0.65002  -0.64838
 Alpha  occ. eigenvalues --   -0.64721  -0.62122  -0.60720  -0.59202  -0.57424
 Alpha  occ. eigenvalues --   -0.55274  -0.55088  -0.53244  -0.52848  -0.52511
 Alpha  occ. eigenvalues --   -0.52098  -0.49766  -0.48823  -0.48821  -0.47707
 Alpha  occ. eigenvalues --   -0.46417  -0.45530  -0.45412  -0.44780  -0.43571
 Alpha  occ. eigenvalues --   -0.37331  -0.36243
 Alpha virt. eigenvalues --    0.05052   0.11227   0.16503   0.20886   0.23080
 Alpha virt. eigenvalues --    0.24353   0.25922   0.27101   0.27610   0.28226
 Alpha virt. eigenvalues --    0.29017   0.30500   0.31399   0.31736   0.32287

 Mulliken charges:
               1
     1  C   -0.303132
     2  C   -0.299021
     3  C   -0.477407
     4  H    0.147314
     5  H    0.159590
     6  H    0.151021
     7  H    0.152560
     8  H    0.148634
     9  H    0.158290
    10  H    0.156130
    11  C   -0.298023
    12  C   -0.301158
    13  C   -0.475819
    14  H    0.146930
    15  H    0.149385
    16  H    0.151836
    17  H    0.160554
    18  H    0.154458
    19  H    0.152630
    20  H    0.161522
    21  C   -0.172462
    22  C   -0.218831
    23  C   -0.171834
    24  C    0.158118
    25  C   -0.166942
    26  C   -0.215076
    27  H    0.225592
    28  H    0.223198
    29  H    0.275313
    30  H    0.274772
    31  H    0.224618
    32  N    0.488708
    33  O   -0.461563
    34  O   -0.459903
 Sum of Mulliken charges =  -0.00000

 Dipole moment (field-independent basis, Debye):
    X=              2.7342    Y=              3.9118    Z=              1.8872  Tot=              5.1322
 Quadrupole moment (field-independent basis, Debye-Ang):
   XX=            -84.6119   YY=           -100.3607   ZZ=            -91.4730
   XY=              5.9033   XZ=              5.3460   YZ=             -4.2941

 Normal termination of Gaussian 16 at Thu May  6 15:25:23 2021.
