 Gaussian 16, Revision A.03,
 Gaussian 16:  EM64L-G16RevA.03 25-Dec-2016

 -------------
 #p 6-31g* mp2
 -------------

 ------------------------------------------------------
 Input file generated by CHIRIPA (05-May-2021 14:51:10)
 ------------------------------------------------------
 Symbolic Z-matrix:
 Charge =  0 Multiplicity = 1

                         Standard orientation:
 ---------------------------------------------------------------------
 Center     Atomic      Atomic             Coordinates (Angstroms)
 Number     Number       Type             X           Y           Z
 ---------------------------------------------------------------------
      1          6           0       -2.761145   -0.078569    0.631881
      2          6           0       -2.447396   -1.492502    1.122128
      3          6           0       -1.069626   -1.599181    1.776469
      4          1           0       -1.988559    0.234409   -0.083731
      5          1           0       -2.702088    0.617599    1.479971
      6          1           0       -2.508384   -2.186005    0.273629
      7          1           0       -3.220924   -1.802225    1.836511
      8          1           0       -1.000554   -0.930112    2.640284
      9          1           0       -0.283965   -1.316073    1.068523
     10          1           0       -0.865964   -2.618326    2.119582
     11          6           0       -4.135076    0.044065   -0.024627
     12          6           0       -4.448824    1.457997   -0.514874
     13          6           0       -5.826594    1.564676   -1.169215
     14          1           0       -4.194132   -0.652104   -0.872717
     15          1           0       -4.907661   -0.268914    0.690985
     16          1           0       -3.675296    1.767720   -1.229257
     17          1           0       -4.387836    2.151500    0.333625
     18          1           0       -6.612255    1.281569   -0.461268
     19          1           0       -5.895667    0.895608   -2.033030
     20          1           0       -6.030256    2.583821   -1.512328
     21          6           0        3.435829    0.644466    0.132130
     22          6           0        4.598958    1.597726   -0.144299
     23          6           0        4.560584    2.847818    0.735241
     24          1           0        2.488058    1.177002   -0.026232
     25          1           0        3.455829    0.349987    1.190562
     26          1           0        4.577586    1.889229   -1.202214
     27          1           0        5.544072    1.062804    0.014554
     28          1           0        4.605286    2.575043    1.794579
     29          1           0        3.633308    3.406164    0.570898
     30          1           0        5.401047    3.515353    0.521045
     31          6           0        3.460391   -0.609961   -0.739384
     32          6           0        2.297262   -1.563221   -0.462955
     33          6           0        2.335636   -2.813314   -1.342496
     34          1           0        3.440391   -0.315482   -1.797815
     35          1           0        4.408163   -1.142498   -0.581022
     36          1           0        1.352148   -1.028299   -0.621808
     37          1           0        2.318635   -1.854725    0.594959
     38          1           0        3.262913   -3.371660   -1.178152
     39          1           0        2.290935   -2.540538   -2.401834
     40          1           0        1.495174   -3.480848   -1.128300
 ---------------------------------------------------------------------

 SCF Done:  E(RHF) =  -470.732955350     A.U. after   11 cycles
 E2 =    -0.1582865410D+01 EUMP2 =    -0.47231582076066D+03

 The electronic state is 1-A.
 Alpha  occ. eigenvalues --  -11.21632 -11.21608 -11.21600 -11.21549 -11.21420
 Alpha  occ. eigenvalues --  -11.21393 -11.21359 -11.21333 -11.21102 -11.21071
 Alpha  occ. eigenvalues --  -11.21070 -11.20914  -1.08456  -1.08404  -1.03567
 Alpha  occ. eigenvalues --   -1.03480  -0.96004  -0.95932  -0.87028  -0.86945
 Alpha  occ. eigenvalues --   -0.79708  -0.79488  -0.78303  -0.78185  -0.65101
 Alpha  occ. eigenvalues --   -0.65024  -0.60997  -0.60868  -0.59374  -0.59309
 Alpha  occ. eigenvalues --   -0.57653  -0.57519  -0.55291  -0.55214  -0.52702
 Alpha  occ. eigenvalues --   -0.52627  -0.52456  -0.52333  -0.49973  -0.49893
 Alpha  occ. eigenvalues --   -0.48100  -0.47719  -0.46713  -0.46553  -0.45904
 Alpha  occ. eigenvalues --   -0.45735  -0.45714  -0.45488  -0.43799  -0.43753
 Alpha virt. eigenvalues --    0.21620   0.23121   0.23629   0.24871   0.25872
 Alpha virt. eigenvalues --    0.26581   0.27092   0.27606   0.28074   0.28988
 Alpha virt. eigenvalues --    0.30716   0.31183   0.31725   0.31881   0.32020

 Mulliken charges:
               1
     1  C   -0.298143
     2  C   -0.299232
     3  C   -0.484404
     4  H    0.148459
     5  H    0.149659
     6  H    0.151281
     7  H    0.151555
     8  H    0.154336
     9  H    0.166271
    10  H    0.158981
    11  C   -0.298255
    12  C   -0.299600
    13  C   -0.475692
    14  H    0.149460
    15  H    0.149771
    16  H    0.151650
    17  H    0.151947
    18  H    0.155227
    19  H    0.155160
    20  H    0.160197
    21  C   -0.298594
    22  C   -0.299616
    23  C   -0.475721
    24  H    0.149483
    25  H    0.150041
    26  H    0.151848
    27  H    0.151981
    28  H    0.155300
    29  H    0.155265
    30  H    0.160241
    31  C   -0.297380
    32  C   -0.303945
    33  C   -0.475974
    34  H    0.149293
    35  H    0.149795
    36  H    0.153083
    37  H    0.154958
    38  H    0.155524
    39  H    0.154967
    40  H    0.160825
 Sum of Mulliken charges =  -0.00000

 Dipole moment (field-independent basis, Debye):
    X=              0.0503    Y=             -0.0035    Z=             -0.0056  Tot=              0.0507
 Quadrupole moment (field-independent basis, Debye-Ang):
   XX=            -85.2531   YY=            -85.4924   ZZ=            -84.0723
   XY=             -0.3268   XZ=             -0.4632   YZ=             -0.5203

 Normal termination of Gaussian 16 at Wed May  5 19:46:23 2021.
