 Gaussian 16, Revision A.03,
 Gaussian 16:  EM64L-G16RevA.03 25-Dec-2016

 -------------
 #p 6-31g* mp2
 -------------

 ------------------------------------------------------
 Input file generated by CHIRIPA (05-May-2021 14:53:11)
 ------------------------------------------------------
 Symbolic Z-matrix:
 Charge =  0 Multiplicity = 1

                         Standard orientation:
 ---------------------------------------------------------------------
 Center     Atomic      Atomic             Coordinates (Angstroms)
 Number     Number       Type             X           Y           Z
 ---------------------------------------------------------------------
      1          6           0       -3.914015    0.377091    0.194024
      2          6           0       -4.094923   -1.079231   -0.235375
      3          6           0       -5.445746   -1.656955    0.188070
      4          1           0       -4.018216    0.446542    1.285475
      5          1           0       -4.723856    0.982295   -0.236420
      6          1           0       -3.284200   -1.681270    0.194618
      7          1           0       -3.990089   -1.145252   -1.325910
      8          1           0       -6.266129   -1.081219   -0.252498
      9          1           0       -5.556230   -1.620283    1.276670
     10          1           0       -5.553938   -2.698885   -0.129004
     11          6           0       -2.568439    0.968699   -0.222091
     12          6           0       -2.387532    2.425021    0.207308
     13          6           0       -1.036709    3.002745   -0.216137
     14          1           0       -1.758599    0.363495    0.208353
     15          1           0       -2.464238    0.899248   -1.313541
     16          1           0       -2.492366    2.491042    1.297844
     17          1           0       -3.198255    3.027060   -0.222684
     18          1           0       -0.926225    2.966073   -1.304737
     19          1           0       -0.216325    2.427009    0.224431
     20          1           0       -0.928516    4.044675    0.100938
     21          6           0        4.866987    0.425757    0.108236
     22          6           0        4.163590    0.174649    1.290901
     23          6           0        2.869373   -0.352411    1.248991
     24          6           0        2.306490   -0.617682    0.001560
     25          6           0        2.981753   -0.378392   -1.194289
     26          6           0        4.274868    0.148923   -1.128404
     27          1           0        5.871938    0.835290    0.150104
     28          1           0        4.620936    0.388667    2.252710
     29          1           0        2.302282   -0.556423    2.149105
     30          1           0        2.499475   -0.602012   -2.138121
     31          1           0        4.818772    0.342929   -2.048499
     32          7           0        0.936945   -1.175793   -0.055499
     33          8           0        0.463311   -1.400821   -1.167105
     34          8           0        0.363060   -1.377643    1.012467
 ---------------------------------------------------------------------

 SCF Done:  E(RHF) =  -669.536603223     A.U. after   15 cycles
 E2 =    -0.2092200045D+01 EUMP2 =    -0.67162880326819D+03

 The electronic state is 1-A.
 Alpha  occ. eigenvalues --  -20.61031 -20.61022 -15.86032 -11.31337 -11.27893
 Alpha  occ. eigenvalues --  -11.27882 -11.27618 -11.26884 -11.26873 -11.20733
 Alpha  occ. eigenvalues --  -11.20518 -11.20215 -11.20156 -11.19989 -11.19983
 Alpha  occ. eigenvalues --   -1.60073  -1.39629  -1.19493  -1.08903  -1.07253
 Alpha  occ. eigenvalues --   -1.04883  -1.02501  -0.95749  -0.94973  -0.86285
 Alpha  occ. eigenvalues --   -0.86006  -0.82585  -0.78543  -0.77644  -0.77011
 Alpha  occ. eigenvalues --   -0.72250  -0.71387  -0.70601  -0.65148  -0.64886
 Alpha  occ. eigenvalues --   -0.63876  -0.62230  -0.59905  -0.58359  -0.56569
 Alpha  occ. eigenvalues --   -0.55389  -0.54280  -0.53212  -0.52974  -0.51727
 Alpha  occ. eigenvalues --   -0.51410  -0.49091  -0.49014  -0.48905  -0.46866
 Alpha  occ. eigenvalues --   -0.45574  -0.45075  -0.44568  -0.44317  -0.42698
 Alpha  occ. eigenvalues --   -0.37464  -0.36479
 Alpha virt. eigenvalues --    0.04838   0.11173   0.16339   0.21309   0.23974
 Alpha virt. eigenvalues --    0.25160   0.27234   0.27705   0.28163   0.28515
 Alpha virt. eigenvalues --    0.29184   0.30939   0.32139   0.32452   0.32630

 Mulliken charges:
               1
     1  C   -0.297045
     2  C   -0.301836
     3  C   -0.475309
     4  H    0.146727
     5  H    0.143173
     6  H    0.167982
     7  H    0.151087
     8  H    0.150515
     9  H    0.152678
    10  H    0.158262
    11  C   -0.307282
    12  C   -0.298429
    13  C   -0.473769
    14  H    0.170268
    15  H    0.149174
    16  H    0.149657
    17  H    0.148257
    18  H    0.154142
    19  H    0.149607
    20  H    0.155973
    21  C   -0.170245
    22  C   -0.218472
    23  C   -0.171166
    24  C    0.159737
    25  C   -0.170292
    26  C   -0.218518
    27  H    0.226228
    28  H    0.223997
    29  H    0.275781
    30  H    0.276088
    31  H    0.224053
    32  N    0.487459
    33  O   -0.457113
    34  O   -0.461369
 Sum of Mulliken charges =  -0.00000

 Dipole moment (field-independent basis, Debye):
    X=              5.1293    Y=              1.7471    Z=              0.1733  Tot=              5.4214
 Quadrupole moment (field-independent basis, Debye-Ang):
   XX=            -74.8391   YY=            -98.8662   ZZ=            -89.0087
   XY=              1.3532   XZ=              0.7877   YZ=             -0.1857

 Normal termination of Gaussian 16 at Wed May  5 20:04:33 2021.
