 Gaussian 16, Revision A.03,
 Gaussian 16:  EM64L-G16RevA.03 25-Dec-2016

 -------------
 #p 6-31g* mp2
 -------------

 ------------------------------------------------------
 Input file generated by CHIRIPA (05-May-2021 14:51:08)
 ------------------------------------------------------
 Symbolic Z-matrix:
 Charge =  0 Multiplicity = 1

                         Standard orientation:
 ---------------------------------------------------------------------
 Center     Atomic      Atomic             Coordinates (Angstroms)
 Number     Number       Type             X           Y           Z
 ---------------------------------------------------------------------
      1          6           0       -3.059813   -0.375673    0.061327
      2          6           0       -2.284701   -0.695852    1.339870
      3          6           0       -0.769828   -0.675082    1.133660
      4          1           0       -2.784431   -1.099565   -0.717832
      5          1           0       -2.752574    0.612696   -0.307626
      6          1           0       -2.594321   -1.682727    1.707062
      7          1           0       -2.562104    0.028771    2.116133
      8          1           0       -0.441343    0.311022    0.789717
      9          1           0       -0.473743   -1.410199    0.378321
     10          1           0       -0.235319   -0.906609    2.060243
     11          6           0       -4.575495   -0.392585    0.251460
     12          6           0       -5.350608   -0.072406   -1.027082
     13          6           0       -6.865481   -0.093176   -0.820873
     14          1           0       -4.882735   -1.380954    0.620414
     15          1           0       -4.850877    0.331307    1.030619
     16          1           0       -5.073205   -0.797029   -1.803346
     17          1           0       -5.040987    0.914469   -1.394275
     18          1           0       -7.161566    0.641941   -0.065534
     19          1           0       -7.193966   -1.079280   -0.476929
     20          1           0       -7.399990    0.138351   -1.747455
     21          6           0        4.341668   -0.088467    0.136003
     22          6           0        5.233100   -0.736021   -0.924189
     23          6           0        6.276387   -1.678777   -0.323725
     24          1           0        4.970841    0.463886    0.847335
     25          1           0        3.836865   -0.876574    0.711725
     26          1           0        5.735008    0.053095   -1.498647
     27          1           0        4.601717   -1.286737   -1.633190
     28          1           0        5.790557   -2.486323    0.233446
     29          1           0        6.930287   -1.138879    0.368752
     30          1           0        6.902715   -2.130683   -1.099196
     31          6           0        3.293641    0.856725   -0.448790
     32          6           0        2.402208    1.504279    0.611401
     33          6           0        1.358922    2.447035    0.010937
     34          1           0        3.798445    1.644832   -1.024513
     35          1           0        2.664469    0.304372   -1.160121
     36          1           0        3.033592    2.054995    1.320402
     37          1           0        1.900300    0.715164    1.185860
     38          1           0        0.705021    1.907137   -0.681540
     39          1           0        1.844752    3.254582   -0.546233
     40          1           0        0.732594    2.898942    0.786408
 ---------------------------------------------------------------------

 SCF Done:  E(RHF) =  -470.732380389     A.U. after   11 cycles
 E2 =    -0.1583491936D+01 EUMP2 =    -0.47231587232441D+03

 The electronic state is 1-A.
 Alpha  occ. eigenvalues --  -11.21605 -11.21603 -11.21564 -11.21484 -11.21414
 Alpha  occ. eigenvalues --  -11.21354 -11.21347 -11.21286 -11.21074 -11.21073
 Alpha  occ. eigenvalues --  -11.21043 -11.21034  -1.08444  -1.08372  -1.03583
 Alpha  occ. eigenvalues --   -1.03452  -0.96053  -0.95898  -0.87026  -0.86961
 Alpha  occ. eigenvalues --   -0.79642  -0.79525  -0.78259  -0.78179  -0.65144
 Alpha  occ. eigenvalues --   -0.64961  -0.61210  -0.60691  -0.59379  -0.59303
 Alpha  occ. eigenvalues --   -0.57607  -0.57555  -0.55554  -0.54974  -0.52702
 Alpha  occ. eigenvalues --   -0.52646  -0.52395  -0.52359  -0.50009  -0.49794
 Alpha  occ. eigenvalues --   -0.47972  -0.47798  -0.46646  -0.46552  -0.45837
 Alpha  occ. eigenvalues --   -0.45737  -0.45685  -0.45588  -0.43784  -0.43728
 Alpha virt. eigenvalues --    0.21648   0.22991   0.23675   0.24992   0.26074
 Alpha virt. eigenvalues --    0.26455   0.27057   0.27637   0.28021   0.29174
 Alpha virt. eigenvalues --    0.30785   0.31393   0.31673   0.31733   0.32540

 Mulliken charges:
               1
     1  C   -0.298858
     2  C   -0.299369
     3  C   -0.484729
     4  H    0.149358
     5  H    0.149833
     6  H    0.151617
     7  H    0.151938
     8  H    0.167796
     9  H    0.154111
    10  H    0.159419
    11  C   -0.298268
    12  C   -0.299685
    13  C   -0.475713
    14  H    0.149561
    15  H    0.149732
    16  H    0.151867
    17  H    0.152070
    18  H    0.155218
    19  H    0.155161
    20  H    0.160284
    21  C   -0.298389
    22  C   -0.299596
    23  C   -0.475678
    24  H    0.149403
    25  H    0.149865
    26  H    0.151796
    27  H    0.151858
    28  H    0.155147
    29  H    0.155095
    30  H    0.160093
    31  C   -0.297748
    32  C   -0.305957
    33  C   -0.480211
    34  H    0.149001
    35  H    0.149773
    36  H    0.151473
    37  H    0.160828
    38  H    0.155468
    39  H    0.156822
    40  H    0.159611
 Sum of Mulliken charges =  -0.00000

 Dipole moment (field-independent basis, Debye):
    X=             -0.0124    Y=              0.0056    Z=              0.0067  Tot=              0.0151
 Quadrupole moment (field-independent basis, Debye-Ang):
   XX=            -86.3871   YY=            -83.7637   ZZ=            -84.8371
   XY=              1.0808   XZ=             -0.1502   YZ=              0.5277

 Normal termination of Gaussian 16 at Wed May  5 18:07:07 2021.
