 Gaussian 16, Revision A.03,
 Gaussian 16:  EM64L-G16RevA.03 25-Dec-2016

 -------------
 #p 6-31g* mp2
 -------------

 ------------------------------------------------------
 Input file generated by CHIRIPA (05-May-2021 14:55:24)
 ------------------------------------------------------
 Symbolic Z-matrix:
 Charge =  0 Multiplicity = 1

                         Standard orientation:
 ---------------------------------------------------------------------
 Center     Atomic      Atomic             Coordinates (Angstroms)
 Number     Number       Type             X           Y           Z
 ---------------------------------------------------------------------
      1          6           0       -1.945291   -2.056550   -1.058118
      2          6           0       -3.276714   -1.910783   -0.654895
      3          6           0       -3.749345   -0.676682   -0.198649
      4          6           0       -2.859172    0.395359   -0.158534
      5          6           0       -1.527086    0.281765   -0.553418
      6          6           0       -1.076259   -0.961741   -1.006184
      7          1           0       -1.586609   -3.018882   -1.411189
      8          1           0       -3.953866   -2.759293   -0.694153
      9          1           0       -4.775184   -0.535919    0.119562
     10          1           0       -0.875783    1.145868   -0.502952
     11          1           0       -0.041745   -1.072019   -1.318697
     12          7           0       -3.347984    1.706825    0.322631
     13          8           0       -2.543718    2.635872    0.348405
     14          8           0       -4.526126    1.780872    0.664884
     15          6           0        3.902138    0.451793    0.298535
     16          6           0        5.071108    0.530283   -0.683979
     17          6           0        5.752184    1.899199   -0.684279
     18          1           0        3.167128    1.228557    0.046859
     19          1           0        4.265967    0.681572    1.309587
     20          1           0        4.705450    0.299069   -1.692666
     21          1           0        5.803330   -0.246882   -0.430052
     22          1           0        6.144010    2.134754    0.310500
     23          1           0        5.039891    2.683807   -0.959288
     24          1           0        6.584917    1.933143   -1.393689
     25          6           0        3.211103   -0.910581    0.310324
     26          6           0        2.042133   -0.989071    1.292839
     27          6           0        1.361058   -2.357987    1.293139
     28          1           0        2.847275   -1.140360   -0.700727
     29          1           0        3.946114   -1.687345    0.562001
     30          1           0        1.309911   -0.211905    1.038912
     31          1           0        2.407792   -0.757856    2.301525
     32          1           0        2.073351   -3.142595    1.568147
     33          1           0        0.969231   -2.593542    0.298359
     34          1           0        0.528324   -2.391930    2.002549
 ---------------------------------------------------------------------

 SCF Done:  E(RHF) =  -669.534420876     A.U. after   15 cycles
 E2 =    -0.2093300155D+01 EUMP2 =    -0.67162772103104D+03

 The electronic state is 1-A.
 Alpha  occ. eigenvalues --  -20.60781 -20.60776 -15.85835 -11.31212 -11.27773
 Alpha  occ. eigenvalues --  -11.27768 -11.27508 -11.26796 -11.26781 -11.22233
 Alpha  occ. eigenvalues --  -11.22086 -11.22025 -11.21880 -11.21732 -11.21362
 Alpha  occ. eigenvalues --   -1.59857  -1.39410  -1.19386  -1.09019  -1.08773
 Alpha  occ. eigenvalues --   -1.04805  -1.04050  -0.96513  -0.95610  -0.87531
 Alpha  occ. eigenvalues --   -0.86190  -0.82446  -0.80124  -0.78811  -0.77498
 Alpha  occ. eigenvalues --   -0.72054  -0.71180  -0.70491  -0.65769  -0.65040
 Alpha  occ. eigenvalues --   -0.64771  -0.62274  -0.61312  -0.59870  -0.58106
 Alpha  occ. eigenvalues --   -0.55864  -0.55279  -0.53231  -0.53032  -0.52941
 Alpha  occ. eigenvalues --   -0.52833  -0.50465  -0.48816  -0.48808  -0.48424
 Alpha  occ. eigenvalues --   -0.47184  -0.46342  -0.46287  -0.44813  -0.44319
 Alpha  occ. eigenvalues --   -0.37329  -0.36350
 Alpha virt. eigenvalues --    0.05010   0.11187   0.16413   0.19062   0.22871
 Alpha virt. eigenvalues --    0.24014   0.25285   0.25532   0.27145   0.28570
 Alpha virt. eigenvalues --    0.29218   0.30265   0.31150   0.31297   0.32171

 Mulliken charges:
               1
     1  C   -0.170869
     2  C   -0.218590
     3  C   -0.171209
     4  C    0.158168
     5  C   -0.173775
     6  C   -0.214733
     7  H    0.225966
     8  H    0.223664
     9  H    0.275677
    10  H    0.275114
    11  H    0.226705
    12  N    0.488144
    13  O   -0.460433
    14  O   -0.460315
    15  C   -0.298233
    16  C   -0.299845
    17  C   -0.476193
    18  H    0.148897
    19  H    0.153154
    20  H    0.150220
    21  H    0.152769
    22  H    0.156738
    23  H    0.156665
    24  H    0.161336
    25  C   -0.299624
    26  C   -0.304275
    27  C   -0.472066
    28  H    0.140906
    29  H    0.152847
    30  H    0.150532
    31  H    0.157934
    32  H    0.156351
    33  H    0.142922
    34  H    0.165454
 Sum of Mulliken charges =  -0.00000

 Dipole moment (field-independent basis, Debye):
    X=              1.7915    Y=             -4.5968    Z=             -1.5956  Tot=              5.1852
 Quadrupole moment (field-independent basis, Debye-Ang):
   XX=            -99.9350   YY=            -99.0164   ZZ=            -94.2652
   XY=             15.5881   XZ=              4.6506   YZ=             -0.4489

 Normal termination of Gaussian 16 at Thu May  6 14:19:57 2021.
