 Gaussian 16, Revision A.03,
 Gaussian 16:  EM64L-G16RevA.03 25-Dec-2016

 -------------
 #p 6-31g* mp2
 -------------

 ------------------------------------------------------
 Input file generated by CHIRIPA (05-May-2021 14:51:08)
 ------------------------------------------------------
 Symbolic Z-matrix:
 Charge =  0 Multiplicity = 1

                         Standard orientation:
 ---------------------------------------------------------------------
 Center     Atomic      Atomic             Coordinates (Angstroms)
 Number     Number       Type             X           Y           Z
 ---------------------------------------------------------------------
      1          6           0        3.036108   -0.029438    0.346218
      2          6           0        1.802009   -0.886177    0.061644
      3          6           0        0.511953   -0.258626    0.590538
      4          1           0        3.121790    0.130318    1.429768
      5          1           0        2.897527    0.962388   -0.105969
      6          1           0        1.943468   -1.876549    0.513052
      7          1           0        1.719362   -1.044072   -1.021340
      8          1           0        0.343650    0.720917    0.131441
      9          1           0        0.569029   -0.116290    1.674551
     10          1           0       -0.357695   -0.887646    0.376283
     11          6           0        4.333566   -0.643549   -0.176466
     12          6           0        5.567665    0.213191    0.108108
     13          6           0        6.857720   -0.414361   -0.420786
     14          1           0        4.472147   -1.635374    0.275721
     15          1           0        4.247883   -0.803305   -1.260016
     16          1           0        5.650311    0.371085    1.191092
     17          1           0        5.426206    1.203562   -0.343300
     18          1           0        6.800644   -0.556697   -1.504799
     19          1           0        7.026023   -1.393904    0.038311
     20          1           0        7.727369    0.214659   -0.206531
     21          6           0       -2.993185    0.660124   -0.067175
     22          6           0       -3.037314    2.187926   -0.110274
     23          6           0       -1.645911    2.820768   -0.074171
     24          1           0       -2.466873    0.340367    0.842602
     25          1           0       -2.400357    0.293272   -0.916511
     26          1           0       -3.631039    2.551730    0.738109
     27          1           0       -3.563751    2.504081   -1.019959
     28          1           0       -1.048213    2.486106   -0.928197
     29          1           0       -1.115884    2.534028    0.839859
     30          1           0       -1.700877    3.913394   -0.105890
     31          6           0       -4.376489    0.012864   -0.102577
     32          6           0       -4.332359   -1.514940   -0.059479
     33          6           0       -5.723763   -2.147780   -0.095581
     34          1           0       -4.969315    0.379715    0.746759
     35          1           0       -4.902801    0.332619   -1.012354
     36          1           0       -3.805922   -1.831093    0.850207
     37          1           0       -3.738634   -1.878743   -0.907861
     38          1           0       -6.253790   -1.861041   -1.009611
     39          1           0       -6.321461   -1.813120    0.758445
     40          1           0       -5.668796   -3.240407   -0.063863
 ---------------------------------------------------------------------

 SCF Done:  E(RHF) =  -470.731178666     A.U. after   11 cycles
 E2 =    -0.1584222252D+01 EUMP2 =    -0.47231540091749D+03

 The electronic state is 1-A.
 Alpha  occ. eigenvalues --  -11.21599 -11.21571 -11.21563 -11.21482 -11.21345
 Alpha  occ. eigenvalues --  -11.21341 -11.21282 -11.21249 -11.21066 -11.21043
 Alpha  occ. eigenvalues --  -11.21040 -11.20810  -1.08417  -1.08344  -1.03552
 Alpha  occ. eigenvalues --   -1.03416  -0.95967  -0.95902  -0.86987  -0.86939
 Alpha  occ. eigenvalues --   -0.79752  -0.79416  -0.78275  -0.78065  -0.65036
 Alpha  occ. eigenvalues --   -0.64989  -0.60926  -0.60866  -0.59387  -0.59260
 Alpha  occ. eigenvalues --   -0.57825  -0.57304  -0.55251  -0.55189  -0.52827
 Alpha  occ. eigenvalues --   -0.52664  -0.52494  -0.52037  -0.49913  -0.49874
 Alpha  occ. eigenvalues --   -0.48058  -0.47631  -0.46621  -0.46550  -0.45863
 Alpha  occ. eigenvalues --   -0.45717  -0.45618  -0.45462  -0.43762  -0.43577
 Alpha virt. eigenvalues --    0.22221   0.23060   0.23782   0.24435   0.25937
 Alpha virt. eigenvalues --    0.26528   0.26801   0.27103   0.27981   0.29727
 Alpha virt. eigenvalues --    0.30658   0.31414   0.31642   0.32095   0.32461

 Mulliken charges:
               1
     1  C   -0.298344
     2  C   -0.300338
     3  C   -0.482757
     4  H    0.149256
     5  H    0.149335
     6  H    0.150923
     7  H    0.150761
     8  H    0.164429
     9  H    0.151769
    10  H    0.163641
    11  C   -0.298112
    12  C   -0.299555
    13  C   -0.475648
    14  H    0.149382
    15  H    0.149372
    16  H    0.151822
    17  H    0.151863
    18  H    0.155076
    19  H    0.155102
    20  H    0.160115
    21  C   -0.301508
    22  C   -0.299016
    23  C   -0.479311
    24  H    0.155798
    25  H    0.150159
    26  H    0.151611
    27  H    0.151368
    28  H    0.154561
    29  H    0.159275
    30  H    0.160316
    31  C   -0.297775
    32  C   -0.300286
    33  C   -0.475500
    34  H    0.149126
    35  H    0.149120
    36  H    0.151799
    37  H    0.151529
    38  H    0.155227
    39  H    0.155248
    40  H    0.160164
 Sum of Mulliken charges =  -0.00000

 Dipole moment (field-independent basis, Debye):
    X=             -0.0449    Y=              0.0310    Z=              0.0081  Tot=              0.0551
 Quadrupole moment (field-independent basis, Debye-Ang):
   XX=            -86.9525   YY=            -85.1160   ZZ=            -83.0439
   XY=             -0.2535   XZ=              0.3279   YZ=             -0.4944

 Normal termination of Gaussian 16 at Thu May  6 05:17:36 2021.
