 Gaussian 16, Revision A.03,
 Gaussian 16:  EM64L-G16RevA.03 25-Dec-2016

 -------------
 #p 6-31g* mp2
 -------------

 ------------------------------------------------------
 Input file generated by CHIRIPA (05-May-2021 14:53:17)
 ------------------------------------------------------
 Symbolic Z-matrix:
 Charge =  0 Multiplicity = 1

                         Standard orientation:
 ---------------------------------------------------------------------
 Center     Atomic      Atomic             Coordinates (Angstroms)
 Number     Number       Type             X           Y           Z
 ---------------------------------------------------------------------
      1          6           0       -2.843818    0.033768   -0.098261
      2          6           0       -4.191909    0.027616    0.623263
      3          6           0       -4.709938   -1.384829    0.896099
      4          1           0       -2.940162   -0.512530   -1.046534
      5          1           0       -2.109699   -0.516608    0.506346
      6          1           0       -4.922920    0.579025    0.018129
      7          1           0       -4.092393    0.574157    1.569839
      8          1           0       -4.002270   -1.940999    1.519383
      9          1           0       -4.837516   -1.936103   -0.041143
     10          1           0       -5.674712   -1.365819    1.412538
     11          6           0       -2.312845    1.438587   -0.378049
     12          6           0       -0.964754    1.444740   -1.099573
     13          6           0       -0.446725    2.857185   -1.372409
     14          1           0       -3.046964    1.988963   -0.982657
     15          1           0       -2.216501    1.984886    0.570224
     16          1           0       -1.064270    0.898198   -2.046149
     17          1           0       -0.233743    0.893331   -0.494440
     18          1           0       -0.319147    3.408459   -0.435167
     19          1           0       -1.154393    3.413354   -1.995693
     20          1           0        0.518049    2.838175   -1.888848
     21          6           0        1.178373   -2.388724   -1.356025
     22          6           0        2.063480   -1.416663   -1.833733
     23          6           0        2.533139   -0.407136   -0.988260
     24          6           0        2.095138   -0.399808    0.335142
     25          6           0        1.213829   -1.354232    0.840769
     26          6           0        0.757115   -2.354467   -0.022650
     27          1           0        0.818559   -3.169340   -2.019779
     28          1           0        2.392326   -1.440789   -2.868779
     29          1           0        3.218840    0.357810   -1.331900
     30          1           0        0.903846   -1.304062    1.877500
     31          1           0        0.069780   -3.108082    0.351088
     32          7           0        2.585492    0.664014    1.239705
     33          8           0        2.184563    0.648416    2.401449
     34          8           0        3.361478    1.493292    0.769830
 ---------------------------------------------------------------------

 SCF Done:  E(RHF) =  -669.534635034     A.U. after   15 cycles
 E2 =    -0.2094752113D+01 EUMP2 =    -0.67162938714728D+03

 The electronic state is 1-A.
 Alpha  occ. eigenvalues --  -20.60841 -20.60834 -15.85891 -11.31234 -11.27835
 Alpha  occ. eigenvalues --  -11.27830 -11.27586 -11.26876 -11.26864 -11.21755
 Alpha  occ. eigenvalues --  -11.21526 -11.21417 -11.21365 -11.21319 -11.20857
 Alpha  occ. eigenvalues --   -1.59917  -1.39469  -1.19462  -1.08843  -1.08472
 Alpha  occ. eigenvalues --   -1.04856  -1.03562  -0.96021  -0.95673  -0.87033
 Alpha  occ. eigenvalues --   -0.86248  -0.82504  -0.79638  -0.78295  -0.77548
 Alpha  occ. eigenvalues --   -0.72110  -0.71257  -0.70550  -0.65132  -0.65092
 Alpha  occ. eigenvalues --   -0.64850  -0.62200  -0.60984  -0.59413  -0.57645
 Alpha  occ. eigenvalues --   -0.55348  -0.55318  -0.53327  -0.52942  -0.52657
 Alpha  occ. eigenvalues --   -0.52439  -0.49957  -0.48871  -0.48865  -0.47922
 Alpha  occ. eigenvalues --   -0.46674  -0.45789  -0.45695  -0.44866  -0.43810
 Alpha  occ. eigenvalues --   -0.37357  -0.36430
 Alpha virt. eigenvalues --    0.04944   0.11148   0.16390   0.21099   0.22843
 Alpha virt. eigenvalues --    0.24059   0.26124   0.27063   0.27565   0.28113
 Alpha virt. eigenvalues --    0.28311   0.30592   0.31460   0.31686   0.31867

 Mulliken charges:
               1
     1  C   -0.297593
     2  C   -0.299958
     3  C   -0.474974
     4  H    0.145944
     5  H    0.145540
     6  H    0.152810
     7  H    0.154517
     8  H    0.151123
     9  H    0.153182
    10  H    0.161942
    11  C   -0.298447
    12  C   -0.305111
    13  C   -0.476322
    14  H    0.148739
    15  H    0.153265
    16  H    0.146754
    17  H    0.158999
    18  H    0.161342
    19  H    0.153378
    20  H    0.158555
    21  C   -0.171166
    22  C   -0.215234
    23  C   -0.171333
    24  C    0.158166
    25  C   -0.175511
    26  C   -0.212687
    27  H    0.226239
    28  H    0.223968
    29  H    0.275796
    30  H    0.275516
    31  H    0.224566
    32  N    0.489070
    33  O   -0.460937
    34  O   -0.460138
 Sum of Mulliken charges =  -0.00000

 Dipole moment (field-independent basis, Debye):
    X=             -1.6251    Y=             -3.7455    Z=             -3.1775  Tot=              5.1736
 Quadrupole moment (field-independent basis, Debye-Ang):
   XX=           -101.2814   YY=            -92.3435   ZZ=            -93.7415
   XY=             -6.6389   XZ=             -9.2658   YZ=             -1.1093

 Normal termination of Gaussian 16 at Thu May  6 18:55:16 2021.
