 Gaussian 16, Revision A.03,
 Gaussian 16:  EM64L-G16RevA.03 25-Dec-2016

 -------------
 #p 6-31g* mp2
 -------------

 ------------------------------------------------------
 Input file generated by CHIRIPA (05-May-2021 14:55:20)
 ------------------------------------------------------
 Symbolic Z-matrix:
 Charge =  0 Multiplicity = 1

                         Standard orientation:
 ---------------------------------------------------------------------
 Center     Atomic      Atomic             Coordinates (Angstroms)
 Number     Number       Type             X           Y           Z
 ---------------------------------------------------------------------
      1          6           0        1.448330    1.525992    1.830311
      2          6           0        0.695470    0.482663    1.281507
      3          6           0        1.278663   -0.419322    0.386601
      4          6           0        2.623214   -0.247604    0.061047
      5          6           0        3.399643    0.781748    0.591032
      6          6           0        2.795638    1.671948    1.483932
      7          1           0        0.987208    2.222098    2.524716
      8          1           0       -0.351071    0.366879    1.548701
      9          1           0        0.719061   -1.235983   -0.053090
     10          1           0        4.440747    0.871536    0.305626
     11          1           0        3.382755    2.481273    1.908586
     12          7           0        3.251631   -1.196257   -0.885288
     13          8           0        4.437987   -1.023334   -1.156014
     14          8           0        2.545928   -2.094771   -1.338380
     15          6           0       -3.027198    0.536184   -0.884715
     16          6           0       -2.744859    1.999887   -0.544357
     17          6           0       -2.350118    2.826028   -1.768883
     18          1           0       -2.135998    0.096855   -1.353434
     19          1           0       -3.829618    0.489401   -1.633933
     20          1           0       -1.944160    2.043840    0.205020
     21          1           0       -3.636770    2.435729   -0.076220
     22          1           0       -3.149303    2.811961   -2.517019
     23          1           0       -1.447076    2.417845   -2.234182
     24          1           0       -2.152814    3.869163   -1.502799
     25          6           0       -3.423090   -0.302573    0.329157
     26          6           0       -3.705427   -1.766276   -0.011201
     27          6           0       -4.100168   -2.592417    1.213325
     28          1           0       -2.620669   -0.255791    1.078375
     29          1           0       -4.314289    0.136756    0.797876
     30          1           0       -2.813517   -2.202119   -0.479338
     31          1           0       -4.506126   -1.810229   -0.760578
     32          1           0       -5.003211   -2.184234    1.678623
     33          1           0       -3.300984   -2.578351    1.961461
     34          1           0       -4.297474   -3.635552    0.947241
 ---------------------------------------------------------------------

 SCF Done:  E(RHF) =  -669.535359355     A.U. after   15 cycles
 E2 =    -0.2092508393D+01 EUMP2 =    -0.67162786774776D+03

 The electronic state is 1-A.
 Alpha  occ. eigenvalues --  -20.60797 -20.60792 -15.85850 -11.31227 -11.27800
 Alpha  occ. eigenvalues --  -11.27794 -11.27536 -11.26807 -11.26784 -11.22252
 Alpha  occ. eigenvalues --  -11.22246 -11.22176 -11.22018 -11.21579 -11.21517
 Alpha  occ. eigenvalues --   -1.59872  -1.39425  -1.19400  -1.09120  -1.08789
 Alpha  occ. eigenvalues --   -1.04804  -1.04113  -0.96560  -0.95624  -0.87568
 Alpha  occ. eigenvalues --   -0.86204  -0.82459  -0.80184  -0.78952  -0.77504
 Alpha  occ. eigenvalues --   -0.72068  -0.71195  -0.70504  -0.65884  -0.65049
 Alpha  occ. eigenvalues --   -0.64736  -0.62135  -0.61511  -0.59923  -0.58173
 Alpha  occ. eigenvalues --   -0.55861  -0.55292  -0.53232  -0.53126  -0.52992
 Alpha  occ. eigenvalues --   -0.52877  -0.50501  -0.48833  -0.48823  -0.48494
 Alpha  occ. eigenvalues --   -0.47235  -0.46448  -0.46388  -0.44828  -0.44402
 Alpha  occ. eigenvalues --   -0.37370  -0.36394
 Alpha virt. eigenvalues --    0.05021   0.11135   0.16449   0.18719   0.23050
 Alpha virt. eigenvalues --    0.23697   0.24796   0.25489   0.27175   0.28526
 Alpha virt. eigenvalues --    0.29968   0.30730   0.31327   0.31407   0.31902

 Mulliken charges:
               1
     1  C   -0.173051
     2  C   -0.223372
     3  C   -0.175209
     4  C    0.158711
     5  C   -0.170734
     6  C   -0.218335
     7  H    0.226713
     8  H    0.233887
     9  H    0.275614
    10  H    0.275805
    11  H    0.223664
    12  N    0.488140
    13  O   -0.460288
    14  O   -0.460457
    15  C   -0.300496
    16  C   -0.300554
    17  C   -0.476074
    18  H    0.151303
    19  H    0.154420
    20  H    0.144879
    21  H    0.152691
    22  H    0.157416
    23  H    0.159038
    24  H    0.160143
    25  C   -0.302582
    26  C   -0.300574
    27  C   -0.475822
    28  H    0.139338
    29  H    0.153273
    30  H    0.153137
    31  H    0.156145
    32  H    0.156140
    33  H    0.152693
    34  H    0.164399
 Sum of Mulliken charges =  -0.00000

 Dipole moment (field-independent basis, Debye):
    X=             -2.3263    Y=              3.3247    Z=              3.2286  Tot=              5.1855
 Quadrupole moment (field-independent basis, Debye-Ang):
   XX=           -101.1585   YY=            -96.0224   ZZ=            -95.5634
   XY=             11.6747   XZ=              9.8244   YZ=              0.1605

 Normal termination of Gaussian 16 at Wed May  5 22:09:14 2021.
