 Gaussian 16, Revision A.03,
 Gaussian 16:  EM64L-G16RevA.03 25-Dec-2016

 -------------
 #p 6-31g* mp2
 -------------

 ------------------------------------------------------
 Input file generated by CHIRIPA (05-May-2021 14:51:10)
 ------------------------------------------------------
 Symbolic Z-matrix:
 Charge =  0 Multiplicity = 1

                         Standard orientation:
 ---------------------------------------------------------------------
 Center     Atomic      Atomic             Coordinates (Angstroms)
 Number     Number       Type             X           Y           Z
 ---------------------------------------------------------------------
      1          6           0       -2.165731   -1.137523    0.227462
      2          6           0       -1.489895   -1.954776   -0.874050
      3          6           0       -0.168669   -2.577504   -0.421982
      4          1           0       -1.480669   -0.345933    0.560658
      5          1           0       -2.343003   -1.784290    1.097900
      6          1           0       -1.315204   -1.307004   -1.742664
      7          1           0       -2.176719   -2.744394   -1.204796
      8          1           0       -0.329438   -3.245955    0.430032
      9          1           0        0.536972   -1.800398   -0.110892
     10          1           0        0.297373   -3.157253   -1.224824
     11          6           0       -3.487660   -0.508631   -0.209260
     12          6           0       -4.163495    0.308622    0.892253
     13          6           0       -5.484721    0.931350    0.440184
     14          1           0       -3.310387    0.138136   -1.079698
     15          1           0       -4.172722   -1.300222   -0.542456
     16          1           0       -3.476671    1.098239    1.222998
     17          1           0       -4.338186   -0.339150    1.760867
     18          1           0       -6.190363    0.154244    0.129095
     19          1           0       -5.323953    1.599800   -0.411830
     20          1           0       -5.950763    1.511099    1.243027
     21          6           0        2.273992    1.074342   -0.472585
     22          6           0        1.495729    2.259945    0.098937
     23          6           0        0.393417    2.751288   -0.839831
     24          1           0        2.713577    1.363141   -1.437108
     25          1           0        1.575306    0.252306   -0.681127
     26          1           0        2.195872    3.079006    0.307631
     27          1           0        1.058105    1.968351    1.062304
     28          1           0       -0.327434    1.951793   -1.039287
     29          1           0        0.816797    3.068758   -1.798247
     30          1           0       -0.150217    3.599181   -0.411582
     31          6           0        3.379398    0.571812    0.454383
     32          6           0        4.157662   -0.613790   -0.117139
     33          6           0        5.259973   -1.105133    0.821629
     34          1           0        4.078083    1.393848    0.662925
     35          1           0        2.939812    0.283013    1.418906
     36          1           0        4.595285   -0.322197   -1.080506
     37          1           0        3.457518   -1.432852   -0.325833
     38          1           0        4.836592   -1.422604    1.780045
     39          1           0        5.980824   -0.305638    1.021085
     40          1           0        5.803608   -1.953026    0.393379
 ---------------------------------------------------------------------

 SCF Done:  E(RHF) =  -470.733312226     A.U. after   11 cycles
 E2 =    -0.1583741312D+01 EUMP2 =    -0.47231705353784D+03

 The electronic state is 1-A.
 Alpha  occ. eigenvalues --  -11.21670 -11.21656 -11.21617 -11.21584 -11.21456
 Alpha  occ. eigenvalues --  -11.21424 -11.21391 -11.21364 -11.21146 -11.21136
 Alpha  occ. eigenvalues --  -11.21076 -11.21053  -1.08493  -1.08443  -1.03577
 Alpha  occ. eigenvalues --   -1.03551  -0.96048  -0.95984  -0.87048  -0.87016
 Alpha  occ. eigenvalues --   -0.79639  -0.79614  -0.78313  -0.78246  -0.65321
 Alpha  occ. eigenvalues --   -0.64916  -0.61027  -0.60893  -0.59395  -0.59365
 Alpha  occ. eigenvalues --   -0.57663  -0.57592  -0.55532  -0.55098  -0.52723
 Alpha  occ. eigenvalues --   -0.52692  -0.52480  -0.52394  -0.50057  -0.49871
 Alpha  occ. eigenvalues --   -0.47991  -0.47917  -0.46744  -0.46643  -0.45961
 Alpha  occ. eigenvalues --   -0.45779  -0.45767  -0.45458  -0.43828  -0.43807
 Alpha virt. eigenvalues --    0.18761   0.22223   0.24176   0.24383   0.25978
 Alpha virt. eigenvalues --    0.26240   0.26908   0.27873   0.28718   0.29456
 Alpha virt. eigenvalues --    0.31049   0.31578   0.31613   0.31753   0.32204

 Mulliken charges:
               1
     1  C   -0.300601
     2  C   -0.300375
     3  C   -0.482699
     4  H    0.150761
     5  H    0.149874
     6  H    0.152423
     7  H    0.152664
     8  H    0.155647
     9  H    0.160846
    10  H    0.160858
    11  C   -0.298723
    12  C   -0.299769
    13  C   -0.475796
    14  H    0.150054
    15  H    0.149887
    16  H    0.152356
    17  H    0.151835
    18  H    0.155131
    19  H    0.155535
    20  H    0.160317
    21  C   -0.305948
    22  C   -0.299542
    23  C   -0.477911
    24  H    0.150100
    25  H    0.155959
    26  H    0.152476
    27  H    0.151789
    28  H    0.155970
    29  H    0.155695
    30  H    0.160500
    31  C   -0.298023
    32  C   -0.302132
    33  C   -0.475632
    34  H    0.149722
    35  H    0.149578
    36  H    0.151849
    37  H    0.154622
    38  H    0.155353
    39  H    0.155003
    40  H    0.160346
 Sum of Mulliken charges =  -0.00000

 Dipole moment (field-independent basis, Debye):
    X=             -0.0063    Y=             -0.0087    Z=             -0.0057  Tot=              0.0121
 Quadrupole moment (field-independent basis, Debye-Ang):
   XX=            -85.6633   YY=            -84.1061   ZZ=            -84.8464
   XY=              1.7561   XZ=             -1.1082   YZ=             -0.1952

 Normal termination of Gaussian 16 at Wed May  5 18:12:57 2021.
