 Gaussian 16, Revision A.03,
 Gaussian 16:  EM64L-G16RevA.03 25-Dec-2016

 -------------
 #p 6-31g* mp2
 -------------

 ------------------------------------------------------
 Input file generated by CHIRIPA (05-May-2021 14:57:24)
 ------------------------------------------------------
 Symbolic Z-matrix:
 Charge =  0 Multiplicity = 1

                         Standard orientation:
 ---------------------------------------------------------------------
 Center     Atomic      Atomic             Coordinates (Angstroms)
 Number     Number       Type             X           Y           Z
 ---------------------------------------------------------------------
      1          6           0       -2.990475    2.370366   -0.481213
      2          6           0       -2.352948    1.835563    0.643094
      3          6           0       -2.484386    0.479288    0.955808
      4          6           0       -3.264488   -0.316894    0.118654
      5          6           0       -3.912089    0.186366   -1.008569
      6          6           0       -3.766642    1.545515   -1.302009
      7          1           0       -2.882930    3.425069   -0.716651
      8          1           0       -1.749539    2.473781    1.282327
      9          1           0       -2.001791    0.039162    1.819989
     10          1           0       -4.506983   -0.474828   -1.626907
     11          1           0       -4.262902    1.958115   -2.175813
     12          7           0       -3.411051   -1.754243    0.439509
     13          8           0       -4.103906   -2.434585   -0.313966
     14          8           0       -2.830297   -2.173278    1.438394
     15          6           0        2.036085    2.255803    0.360370
     16          6           0        1.316280    1.122615   -0.032424
     17          6           0        1.973093   -0.088211   -0.271264
     18          6           0        3.356755   -0.130347   -0.106972
     19          6           0        4.101800    0.981355    0.283306
     20          6           0        3.424101    2.181687    0.516705
     21          1           0        1.517745    3.192326    0.543793
     22          1           0        0.238260    1.177242   -0.154625
     23          1           0        1.440448   -0.980771   -0.576297
     24          1           0        5.175694    0.895999    0.396809
     25          1           0        3.985690    3.060134    0.821654
     26          7           0        4.063148   -1.406640   -0.356941
     27          8           0        5.282773   -1.417673   -0.205180
     28          8           0        3.383820   -2.371799   -0.699895
 ---------------------------------------------------------------------

 SCF Done:  E(RHF) =  -868.336348194     A.U. after   16 cycles
 E2 =    -0.2601595224D+01 EUMP2 =    -0.87093794341834D+03

 The electronic state is 1-A.
 Alpha  occ. eigenvalues --  -20.61401 -20.61394 -20.60767 -20.60750 -15.86466
 Alpha  occ. eigenvalues --  -15.85815 -11.32101 -11.31299 -11.28743 -11.28660
 Alpha  occ. eigenvalues --  -11.28513 -11.27883 -11.27832 -11.27831 -11.27724
 Alpha  occ. eigenvalues --  -11.27696 -11.26966 -11.26804  -1.60473  -1.59834
 Alpha  occ. eigenvalues --   -1.40018  -1.39384  -1.20330  -1.19484  -1.09662
 Alpha  occ. eigenvalues --   -1.08882  -1.05774  -1.04887  -0.96438  -0.95694
 Alpha  occ. eigenvalues --   -0.87137  -0.86302  -0.83266  -0.82509  -0.78269
 Alpha  occ. eigenvalues --   -0.77519  -0.72670  -0.72033  -0.71810  -0.71383
 Alpha  occ. eigenvalues --   -0.71159  -0.70652  -0.65960  -0.65765  -0.65136
 Alpha  occ. eigenvalues --   -0.64917  -0.63074  -0.62237  -0.56223  -0.55496
 Alpha  occ. eigenvalues --   -0.54195  -0.53821  -0.53235  -0.52832  -0.49453
 Alpha  occ. eigenvalues --   -0.49412  -0.48803  -0.48780  -0.45361  -0.44762
 Alpha  occ. eigenvalues --   -0.38321  -0.37554  -0.37337  -0.36472
 Alpha virt. eigenvalues --    0.04255   0.04995   0.10171   0.11114   0.15629
 Alpha virt. eigenvalues --    0.16454   0.19844   0.21762   0.25662   0.27307
 Alpha virt. eigenvalues --    0.27726   0.28374   0.30234   0.31190   0.32172

 Mulliken charges:
               1
     1  C   -0.170738
     2  C   -0.232510
     3  C   -0.175125
     4  C    0.159628
     5  C   -0.169053
     6  C   -0.217981
     7  H    0.227493
     8  H    0.223606
     9  H    0.280634
    10  H    0.279936
    11  H    0.227642
    12  N    0.487806
    13  O   -0.456522
    14  O   -0.457150
    15  C   -0.175770
    16  C   -0.229392
    17  C   -0.173125
    18  C    0.159583
    19  C   -0.171381
    20  C   -0.217744
    21  H    0.217544
    22  H    0.234324
    23  H    0.279526
    24  H    0.276178
    25  H    0.222702
    26  N    0.487776
    27  O   -0.460664
    28  O   -0.457224
 Sum of Mulliken charges =  -0.00000

 Dipole moment (field-independent basis, Debye):
    X=             -2.2693    Y=              9.3265    Z=             -0.3288  Tot=              9.6042
 Quadrupole moment (field-independent basis, Debye-Ang):
   XX=           -118.8419   YY=           -109.4193   ZZ=           -102.7273
   XY=              1.1472   XZ=             11.0749   YZ=              1.3521

 Normal termination of Gaussian 16 at Thu May  6 00:18:52 2021.
