 Gaussian 16, Revision A.03,
 Gaussian 16:  EM64L-G16RevA.03 25-Dec-2016

 -------------
 #p 6-31g* mp2
 -------------

 ------------------------------------------------------
 Input file generated by CHIRIPA (05-May-2021 14:53:17)
 ------------------------------------------------------
 Symbolic Z-matrix:
 Charge =  0 Multiplicity = 1

                         Standard orientation:
 ---------------------------------------------------------------------
 Center     Atomic      Atomic             Coordinates (Angstroms)
 Number     Number       Type             X           Y           Z
 ---------------------------------------------------------------------
      1          6           0        4.274528   -0.017772   -0.026740
      2          6           0        4.283465   -1.534018   -0.223978
      3          6           0        5.574592   -2.186881    0.270549
      4          1           0        5.133445    0.419273   -0.554186
      5          1           0        4.415123    0.207105    1.039589
      6          1           0        4.141511   -1.756000   -1.289430
      7          1           0        3.424319   -1.967485    0.303840
      8          1           0        5.718906   -1.994639    1.338639
      9          1           0        6.440172   -1.781953   -0.263684
     10          1           0        5.559606   -3.270831    0.119924
     11          6           0        2.990334    0.649265   -0.516265
     12          6           0        2.981398    2.165511   -0.319027
     13          6           0        1.690271    2.818373   -0.813554
     14          1           0        2.849740    0.424388   -1.582594
     15          1           0        2.131418    0.212220    0.011181
     16          1           0        3.840543    2.598977   -0.846845
     17          1           0        3.123352    2.387493    0.746425
     18          1           0        0.824690    2.413446   -0.279321
     19          1           0        1.545957    2.626132   -1.881645
     20          1           0        1.705257    3.902323   -0.662929
     21          6           0       -5.143448   -0.620805   -0.741884
     22          6           0       -4.149870   -1.590624   -0.911503
     23          6           0       -2.868858   -1.393965   -0.387212
     24          6           0       -2.614939   -0.210507    0.304340
     25          6           0       -3.583697    0.774548    0.489985
     26          6           0       -4.857695    0.556610   -0.042913
     27          1           0       -6.135845   -0.781840   -1.152509
     28          1           0       -4.368942   -2.505980   -1.453884
     29          1           0       -2.080982   -2.128178   -0.503836
     30          1           0       -3.335313    1.676914    1.035383
     31          1           0       -5.627364    1.311524    0.090356
     32          7           0       -1.262502    0.008950    0.863939
     33          8           0       -1.064129    1.060109    1.469208
     34          8           0       -0.426442   -0.874353    0.686688
 ---------------------------------------------------------------------

 SCF Done:  E(RHF) =  -669.537155472     A.U. after   15 cycles
 E2 =    -0.2092227804D+01 EUMP2 =    -0.67162938327603D+03

 The electronic state is 1-A.
 Alpha  occ. eigenvalues --  -20.61210 -20.61195 -15.86182 -11.31408 -11.27955
 Alpha  occ. eigenvalues --  -11.27951 -11.27679 -11.26940 -11.26930 -11.20478
 Alpha  occ. eigenvalues --  -11.20232 -11.20190 -11.20132 -11.19733 -11.19705
 Alpha  occ. eigenvalues --   -1.60232  -1.39792  -1.19563  -1.08989  -1.07099
 Alpha  occ. eigenvalues --   -1.04943  -1.02302  -0.95845  -0.94756  -0.86349
 Alpha  occ. eigenvalues --   -0.85782  -0.82684  -0.78383  -0.77750  -0.76885
 Alpha  occ. eigenvalues --   -0.72403  -0.71526  -0.70673  -0.65221  -0.64948
 Alpha  occ. eigenvalues --   -0.63713  -0.62291  -0.59690  -0.58148  -0.56375
 Alpha  occ. eigenvalues --   -0.55455  -0.54034  -0.53279  -0.53034  -0.51508
 Alpha  occ. eigenvalues --   -0.51203  -0.49226  -0.49191  -0.48675  -0.46703
 Alpha  occ. eigenvalues --   -0.45442  -0.45122  -0.44459  -0.44189  -0.42523
 Alpha  occ. eigenvalues --   -0.37534  -0.36538
 Alpha virt. eigenvalues --    0.04715   0.11120   0.16209   0.21246   0.24207
 Alpha virt. eigenvalues --    0.25516   0.27187   0.27850   0.28201   0.28978
 Alpha virt. eigenvalues --    0.29190   0.30842   0.32284   0.32603   0.32855

 Mulliken charges:
               1
     1  C   -0.296634
     2  C   -0.300301
     3  C   -0.474911
     4  H    0.143599
     5  H    0.149221
     6  H    0.147512
     7  H    0.159667
     8  H    0.154550
     9  H    0.152163
    10  H    0.156468
    11  C   -0.312430
    12  C   -0.295748
    13  C   -0.483690
    14  H    0.140717
    15  H    0.180228
    16  H    0.144298
    17  H    0.153063
    18  H    0.171339
    19  H    0.146539
    20  H    0.153683
    21  C   -0.170161
    22  C   -0.218647
    23  C   -0.170352
    24  C    0.158632
    25  C   -0.170260
    26  C   -0.218642
    27  H    0.226479
    28  H    0.224284
    29  H    0.276220
    30  H    0.276284
    31  H    0.224317
    32  N    0.488408
    33  O   -0.458164
    34  O   -0.457730
 Sum of Mulliken charges =  -0.00000

 Dipole moment (field-independent basis, Debye):
    X=             -5.2578    Y=             -0.9090    Z=             -1.7752  Tot=              5.6234
 Quadrupole moment (field-independent basis, Debye-Ang):
   XX=            -71.8450   YY=            -91.7145   ZZ=            -95.5562
   XY=              2.0024   XZ=              3.1563   YZ=              2.5012

 Normal termination of Gaussian 16 at Thu May  6 10:42:22 2021.
