 Gaussian 16, Revision A.03,
 Gaussian 16:  EM64L-G16RevA.03 25-Dec-2016

 -------------
 #p 6-31g* mp2
 -------------

 ------------------------------------------------------
 Input file generated by CHIRIPA (05-May-2021 14:51:09)
 ------------------------------------------------------
 Symbolic Z-matrix:
 Charge =  0 Multiplicity = 1

                         Standard orientation:
 ---------------------------------------------------------------------
 Center     Atomic      Atomic             Coordinates (Angstroms)
 Number     Number       Type             X           Y           Z
 ---------------------------------------------------------------------
      1          6           0       -4.135333    0.148437   -0.237158
      2          6           0       -3.279047    1.389188    0.018374
      3          6           0       -1.815268    1.188546   -0.375184
      4          1           0       -3.716776   -0.699617    0.321912
      5          1           0       -4.074030   -0.117993   -1.301419
      6          1           0       -3.343050    1.654014    1.081571
      7          1           0       -3.699802    2.234433   -0.541217
      8          1           0       -1.732227    0.946802   -1.439733
      9          1           0       -1.373449    0.363085    0.192275
     10          1           0       -1.221301    2.087750   -0.184145
     11          6           0       -5.601148    0.333475    0.151268
     12          6           0       -6.457434   -0.907277   -0.104264
     13          6           0       -7.921212   -0.706634    0.289294
     14          1           0       -5.662451    0.599904    1.215529
     15          1           0       -6.019705    1.181529   -0.407802
     16          1           0       -6.036678   -1.752521    0.455327
     17          1           0       -6.393430   -1.172102   -1.167461
     18          1           0       -8.363032    0.118827   -0.278165
     19          1           0       -8.004253   -0.464890    1.353843
     20          1           0       -8.515180   -1.605838    0.098255
     21          6           0        5.491820    0.095411    0.328318
     22          6           0        6.781371   -0.313912   -0.384069
     23          6           0        8.020200    0.367322    0.198182
     24          1           0        5.375968    1.186079    0.265328
     25          1           0        5.577779   -0.148627    1.396237
     26          1           0        6.692465   -0.070441   -1.450575
     27          1           0        6.894068   -1.403753   -0.319542
     28          1           0        8.136705    0.115010    1.257128
     29          1           0        7.933956    1.455898    0.119668
     30          1           0        8.930737    0.060462   -0.325859
     31          6           0        4.244661   -0.577323   -0.242428
     32          6           0        2.955110   -0.167999    0.469959
     33          6           0        1.716280   -0.849234   -0.112292
     34          1           0        4.158701   -0.333285   -1.310347
     35          1           0        4.360513   -1.667990   -0.179438
     36          1           0        2.842412    0.921841    0.405432
     37          1           0        3.044015   -0.411471    1.536465
     38          1           0        1.802524   -1.937810   -0.033778
     39          1           0        1.599775   -0.596922   -1.171238
     40          1           0        0.805743   -0.542374    0.411749
 ---------------------------------------------------------------------

 SCF Done:  E(RHF) =  -470.733120471     A.U. after   11 cycles
 E2 =    -0.1582205145D+01 EUMP2 =    -0.47231532561673D+03

 The electronic state is 1-A.
 Alpha  occ. eigenvalues --  -11.21591 -11.21581 -11.21579 -11.21547 -11.21392
 Alpha  occ. eigenvalues --  -11.21371 -11.21332 -11.21310 -11.21063 -11.21054
 Alpha  occ. eigenvalues --  -11.21035 -11.20969  -1.08417  -1.08392  -1.03525
 Alpha  occ. eigenvalues --   -1.03477  -0.96000  -0.95903  -0.87046  -0.86892
 Alpha  occ. eigenvalues --   -0.79626  -0.79505  -0.78230  -0.78204  -0.65050
 Alpha  occ. eigenvalues --   -0.65022  -0.60938  -0.60879  -0.59333  -0.59327
 Alpha  occ. eigenvalues --   -0.57647  -0.57490  -0.55272  -0.55212  -0.52832
 Alpha  occ. eigenvalues --   -0.52616  -0.52390  -0.52211  -0.49902  -0.49860
 Alpha  occ. eigenvalues --   -0.47951  -0.47804  -0.46607  -0.46581  -0.45770
 Alpha  occ. eigenvalues --   -0.45748  -0.45695  -0.45672  -0.43786  -0.43690
 Alpha virt. eigenvalues --    0.22432   0.22969   0.23572   0.24737   0.26339
 Alpha virt. eigenvalues --    0.26644   0.26949   0.27520   0.27648   0.28937
 Alpha virt. eigenvalues --    0.29901   0.31378   0.31609   0.31972   0.32078

 Mulliken charges:
               1
     1  C   -0.298327
     2  C   -0.299772
     3  C   -0.478467
     4  H    0.149707
     5  H    0.149626
     6  H    0.151676
     7  H    0.151742
     8  H    0.155479
     9  H    0.158679
    10  H    0.159852
    11  C   -0.298267
    12  C   -0.299649
    13  C   -0.475699
    14  H    0.149456
    15  H    0.149616
    16  H    0.151963
    17  H    0.151951
    18  H    0.155153
    19  H    0.155152
    20  H    0.160235
    21  C   -0.298197
    22  C   -0.299603
    23  C   -0.475676
    24  H    0.149588
    25  H    0.149398
    26  H    0.151901
    27  H    0.151882
    28  H    0.155127
    29  H    0.155143
    30  H    0.160174
    31  C   -0.298500
    32  C   -0.299205
    33  C   -0.480098
    34  H    0.149501
    35  H    0.149489
    36  H    0.152050
    37  H    0.151349
    38  H    0.154172
    39  H    0.155626
    40  H    0.165774
 Sum of Mulliken charges =  -0.00000

 Dipole moment (field-independent basis, Debye):
    X=             -0.0135    Y=              0.0015    Z=             -0.0067  Tot=              0.0151
 Quadrupole moment (field-independent basis, Debye-Ang):
   XX=            -87.0773   YY=            -84.2743   ZZ=            -83.5970
   XY=             -0.5397   XZ=              0.2304   YZ=             -0.9867

 Normal termination of Gaussian 16 at Thu May  6 02:08:14 2021.
