 Gaussian 16, Revision A.03,
 Gaussian 16:  EM64L-G16RevA.03 25-Dec-2016

 -------------
 #p 6-31g* mp2
 -------------

 ------------------------------------------------------
 Input file generated by CHIRIPA (05-May-2021 14:51:10)
 ------------------------------------------------------
 Symbolic Z-matrix:
 Charge =  0 Multiplicity = 1

                         Standard orientation:
 ---------------------------------------------------------------------
 Center     Atomic      Atomic             Coordinates (Angstroms)
 Number     Number       Type             X           Y           Z
 ---------------------------------------------------------------------
      1          6           0        3.515268   -0.731543   -0.318162
      2          6           0        4.682446   -1.618560    0.116444
      3          6           0        4.370380   -3.110034   -0.009707
      4          1           0        2.632151   -0.975393    0.288128
      5          1           0        3.253862   -0.965611   -1.359447
      6          1           0        4.942475   -1.381917    1.156156
      7          1           0        5.562940   -1.372437   -0.490821
      8          1           0        4.131871   -3.367338   -1.046774
      9          1           0        3.507880   -3.376873    0.609561
     10          1           0        5.218311   -3.725730    0.306190
     11          6           0        3.811983    0.762176   -0.197782
     12          6           0        2.644804    1.649192   -0.632387
     13          6           0        2.956871    3.140666   -0.506237
     14          1           0        4.073388    0.996243    0.843503
     15          1           0        4.695100    1.006025   -0.804071
     16          1           0        1.764311    1.403069   -0.025122
     17          1           0        2.384776    1.412549   -1.672099
     18          1           0        3.819371    3.407505   -1.125504
     19          1           0        3.195380    3.397970    0.530831
     20          1           0        2.108940    3.756362   -0.822134
     21          6           0       -3.144825    0.521884    0.418270
     22          6           0       -1.888398   -0.030461    1.092280
     23          6           0       -0.859888    1.056320    1.406708
     24          1           0       -2.859283    1.037713   -0.508731
     25          1           0       -3.599217    1.280294    1.070756
     26          1           0       -1.437279   -0.788597    0.439334
     27          1           0       -2.176985   -0.545202    2.017686
     28          1           0       -1.287361    1.808881    2.077171
     29          1           0       -0.543452    1.564103    0.489851
     30          1           0        0.030226    0.639460    1.888150
     31          6           0       -4.182425   -0.552515    0.097673
     32          6           0       -5.438853   -0.000171   -0.576336
     33          6           0       -6.467364   -1.086953   -0.890765
     34          1           0       -3.728033   -1.310927   -0.554811
     35          1           0       -4.467968   -1.068345    1.024674
     36          1           0       -5.150265    0.514569   -1.501742
     37          1           0       -5.889972    0.757965    0.076609
     38          1           0       -6.783798   -1.594735    0.026092
     39          1           0       -6.039890   -1.839514   -1.561228
     40          1           0       -7.357477   -0.670093   -1.372207
 ---------------------------------------------------------------------

 SCF Done:  E(RHF) =  -470.732947495     A.U. after   11 cycles
 E2 =    -0.1582835034D+01 EUMP2 =    -0.47231578252907D+03

 The electronic state is 1-A.
 Alpha  occ. eigenvalues --  -11.21646 -11.21617 -11.21583 -11.21455 -11.21431
 Alpha  occ. eigenvalues --  -11.21371 -11.21367 -11.21299 -11.21130 -11.21082
 Alpha  occ. eigenvalues --  -11.21061 -11.21006  -1.08461  -1.08381  -1.03576
 Alpha  occ. eigenvalues --   -1.03472  -0.96026  -0.95932  -0.87054  -0.86941
 Alpha  occ. eigenvalues --   -0.79688  -0.79497  -0.78279  -0.78187  -0.65129
 Alpha  occ. eigenvalues --   -0.64988  -0.61076  -0.60792  -0.59398  -0.59293
 Alpha  occ. eigenvalues --   -0.57646  -0.57535  -0.55354  -0.55186  -0.52746
 Alpha  occ. eigenvalues --   -0.52617  -0.52443  -0.52357  -0.50073  -0.49808
 Alpha  occ. eigenvalues --   -0.47978  -0.47828  -0.46805  -0.46429  -0.45849
 Alpha  occ. eigenvalues --   -0.45754  -0.45705  -0.45539  -0.43802  -0.43730
 Alpha virt. eigenvalues --    0.21515   0.23069   0.23814   0.24554   0.26300
 Alpha virt. eigenvalues --    0.26584   0.27082   0.27213   0.27911   0.29273
 Alpha virt. eigenvalues --    0.30812   0.31370   0.31681   0.31813   0.32345

 Mulliken charges:
               1
     1  C   -0.298675
     2  C   -0.299580
     3  C   -0.475688
     4  H    0.149482
     5  H    0.149276
     6  H    0.151855
     7  H    0.151996
     8  H    0.155069
     9  H    0.155091
    10  H    0.160208
    11  C   -0.297513
    12  C   -0.309943
    13  C   -0.475147
    14  H    0.149094
    15  H    0.149248
    16  H    0.164037
    17  H    0.150329
    18  H    0.154788
    19  H    0.155135
    20  H    0.159528
    21  C   -0.298765
    22  C   -0.299901
    23  C   -0.480402
    24  H    0.150146
    25  H    0.149602
    26  H    0.152617
    27  H    0.152054
    28  H    0.155831
    29  H    0.159907
    30  H    0.160022
    31  C   -0.298386
    32  C   -0.299693
    33  C   -0.475730
    34  H    0.149724
    35  H    0.149679
    36  H    0.152009
    37  H    0.151943
    38  H    0.155194
    39  H    0.155249
    40  H    0.160310
 Sum of Mulliken charges =  -0.00000

 Dipole moment (field-independent basis, Debye):
    X=             -0.0539    Y=              0.0007    Z=              0.0174  Tot=              0.0566
 Quadrupole moment (field-independent basis, Debye-Ang):
   XX=            -85.3249   YY=            -86.5204   ZZ=            -83.1146
   XY=             -0.7587   XZ=             -0.9480   YZ=             -0.0614

 Normal termination of Gaussian 16 at Wed May  5 16:41:29 2021.
