 Gaussian 16, Revision A.03,
 Gaussian 16:  EM64L-G16RevA.03 25-Dec-2016

 -------------
 #p 6-31g* mp2
 -------------

 ------------------------------------------------------
 Input file generated by CHIRIPA (05-May-2021 14:55:23)
 ------------------------------------------------------
 Symbolic Z-matrix:
 Charge =  0 Multiplicity = 1

                         Standard orientation:
 ---------------------------------------------------------------------
 Center     Atomic      Atomic             Coordinates (Angstroms)
 Number     Number       Type             X           Y           Z
 ---------------------------------------------------------------------
      1          6           0       -1.329750    1.424521   -1.046138
      2          6           0       -2.644635    1.882953   -0.914089
      3          6           0       -3.648724    1.033041   -0.440799
      4          6           0       -3.301091   -0.275097   -0.107308
      5          6           0       -2.000204   -0.761374   -0.227794
      6          6           0       -1.012290    0.106144   -0.703174
      7          1           0       -0.556032    2.091592   -1.414613
      8          1           0       -2.894077    2.906323   -1.179680
      9          1           0       -4.674752    1.361888   -0.328797
     10          1           0       -1.782091   -1.786776    0.044964
     11          1           0        0.008019   -0.252611   -0.804701
     12          7           0       -4.355513   -1.184181    0.394849
     13          8           0       -4.023461   -2.332215    0.681897
     14          8           0       -5.494055   -0.731473    0.491882
     15          6           0        4.691260   -0.080385    0.015871
     16          6           0        4.786092   -1.599954   -0.125196
     17          6           0        6.169129   -2.066180   -0.580867
     18          1           0        4.938476    0.387018   -0.947127
     19          1           0        5.449580    0.262291    0.733449
     20          1           0        4.026900   -1.939814   -0.841254
     21          1           0        4.538434   -2.063800    0.838198
     22          1           0        6.936003   -1.755259    0.135955
     23          1           0        6.421560   -1.630568   -1.553040
     24          1           0        6.214636   -3.155629   -0.675157
     25          6           0        3.314652    0.401073    0.470708
     26          6           0        3.219822    1.920643    0.611775
     27          6           0        1.836785    2.386870    1.067446
     28          1           0        2.556333    0.058398   -0.246871
     29          1           0        3.067437   -0.066330    1.433706
     30          1           0        3.467479    2.384489   -0.351619
     31          1           0        3.979013    2.260503    1.327833
     32          1           0        1.584352    1.951257    2.039619
     33          1           0        1.069911    2.075948    0.350624
     34          1           0        1.791277    3.476318    1.161736
 ---------------------------------------------------------------------

 SCF Done:  E(RHF) =  -669.534488032     A.U. after   15 cycles
 E2 =    -0.2092691984D+01 EUMP2 =    -0.67162718001620D+03

 The electronic state is 1-A.
 Alpha  occ. eigenvalues --  -20.60748 -20.60743 -15.85802 -11.31172 -11.27740
 Alpha  occ. eigenvalues --  -11.27731 -11.27474 -11.26755 -11.26739 -11.22459
 Alpha  occ. eigenvalues --  -11.22330 -11.22226 -11.22088 -11.21918 -11.21563
 Alpha  occ. eigenvalues --   -1.59824  -1.39377  -1.19348  -1.09225  -1.08748
 Alpha  occ. eigenvalues --   -1.04749  -1.04266  -0.96726  -0.95581  -0.87737
 Alpha  occ. eigenvalues --   -0.86154  -0.82410  -0.80338  -0.79041  -0.77448
 Alpha  occ. eigenvalues --   -0.72021  -0.71146  -0.70497  -0.65893  -0.65003
 Alpha  occ. eigenvalues --   -0.64744  -0.62119  -0.61640  -0.60085  -0.58334
 Alpha  occ. eigenvalues --   -0.56137  -0.55198  -0.53391  -0.53290  -0.52941
 Alpha  occ. eigenvalues --   -0.52821  -0.50643  -0.48785  -0.48775  -0.48629
 Alpha  occ. eigenvalues --   -0.47375  -0.46564  -0.46491  -0.44782  -0.44535
 Alpha  occ. eigenvalues --   -0.37280  -0.36339
 Alpha virt. eigenvalues --    0.05051   0.11219   0.16487   0.19245   0.22684
 Alpha virt. eigenvalues --    0.23926   0.24571   0.26305   0.26775   0.28270
 Alpha virt. eigenvalues --    0.29142   0.30104   0.31014   0.31437   0.31614

 Mulliken charges:
               1
     1  C   -0.171684
     2  C   -0.219709
     3  C   -0.171170
     4  C    0.158821
     5  C   -0.172745
     6  C   -0.220163
     7  H    0.226045
     8  H    0.223587
     9  H    0.275588
    10  H    0.276068
    11  H    0.230119
    12  N    0.488046
    13  O   -0.460389
    14  O   -0.460494
    15  C   -0.298395
    16  C   -0.300040
    17  C   -0.476151
    18  H    0.150061
    19  H    0.152753
    20  H    0.149465
    21  H    0.153817
    22  H    0.156678
    23  H    0.155618
    24  H    0.162407
    25  C   -0.300541
    26  C   -0.300736
    27  C   -0.479925
    28  H    0.140504
    29  H    0.153744
    30  H    0.150582
    31  H    0.156396
    32  H    0.160822
    33  H    0.149327
    34  H    0.161694
 Sum of Mulliken charges =  -0.00000

 Dipole moment (field-independent basis, Debye):
    X=              3.8625    Y=              3.1999    Z=             -1.6842  Tot=              5.2910
 Quadrupole moment (field-independent basis, Debye-Ang):
   XX=           -117.3504   YY=            -94.2797   ZZ=            -94.2161
   XY=            -14.2184   XZ=              6.6624   YZ=             -0.4158

 Normal termination of Gaussian 16 at Thu May  6 07:51:30 2021.
