 Gaussian 16, Revision A.03,
 Gaussian 16:  EM64L-G16RevA.03 25-Dec-2016

 -------------
 #p 6-31g* mp2
 -------------

 ------------------------------------------------------
 Input file generated by CHIRIPA (05-May-2021 14:51:10)
 ------------------------------------------------------
 Symbolic Z-matrix:
 Charge =  0 Multiplicity = 1

                         Standard orientation:
 ---------------------------------------------------------------------
 Center     Atomic      Atomic             Coordinates (Angstroms)
 Number     Number       Type             X           Y           Z
 ---------------------------------------------------------------------
      1          6           0       -1.993846    1.159092   -0.156703
      2          6           0       -2.397767    2.354552    0.706840
      3          6           0       -1.282285    3.391822    0.839376
      4          1           0       -1.101566    0.686758    0.276520
      5          1           0       -1.704627    1.517389   -1.154386
      6          1           0       -2.687461    1.993970    1.702166
      7          1           0       -3.289302    2.823980    0.271617
      8          1           0       -0.997831    3.779452   -0.144204
      9          1           0       -0.392570    2.944726    1.294473
     10          1           0       -1.592454    4.237769    1.460688
     11          6           0       -3.098525    0.113494   -0.298617
     12          6           0       -2.694604   -1.081966   -1.162160
     13          6           0       -3.810086   -2.119236   -1.294696
     14          1           0       -3.387743   -0.244803    0.699066
     15          1           0       -3.990805    0.585828   -0.731840
     16          1           0       -1.803068   -1.551394   -0.726937
     17          1           0       -2.404910   -0.721384   -2.157486
     18          1           0       -4.699801   -1.672140   -1.749793
     19          1           0       -4.094540   -2.506866   -0.311116
     20          1           0       -3.499917   -2.965183   -1.916008
     21          6           0        3.236461   -0.312229    0.183680
     22          6           0        3.514094    0.341872   -1.170224
     23          6           0        4.898946    0.985860   -1.242743
     24          1           0        3.332996    0.443271    0.975416
     25          1           0        4.005773   -1.071633    0.380808
     26          1           0        2.743694    1.098852   -1.365367
     27          1           0        3.416699   -0.415230   -1.958847
     28          1           0        5.680747    0.238339   -1.073629
     29          1           0        5.003918    1.761024   -0.476778
     30          1           0        5.076414    1.447454   -2.219112
     31          6           0        1.855910   -0.960357    0.271639
     32          6           0        1.578277   -1.614458    1.625543
     33          6           0        0.193425   -2.258446    1.698064
     34          1           0        1.086598   -0.200953    0.074511
     35          1           0        1.759375   -1.715857   -0.520096
     36          1           0        1.675672   -0.857356    2.414166
     37          1           0        2.348676   -2.371438    1.820687
     38          1           0        0.088452   -3.033610    0.932098
     39          1           0       -0.588376   -1.510924    1.528950
     40          1           0        0.015957   -2.720041    2.674432
 ---------------------------------------------------------------------

 SCF Done:  E(RHF) =  -470.732584321     A.U. after   11 cycles
 E2 =    -0.1584654250D+01 EUMP2 =    -0.47231723857104D+03

 The electronic state is 1-A.
 Alpha  occ. eigenvalues --  -11.21661 -11.21639 -11.21593 -11.21503 -11.21414
 Alpha  occ. eigenvalues --  -11.21411 -11.21351 -11.21348 -11.21153 -11.21130
 Alpha  occ. eigenvalues --  -11.21064 -11.21015  -1.08490  -1.08407  -1.03572
 Alpha  occ. eigenvalues --   -1.03518  -0.96016  -0.95984  -0.87053  -0.86981
 Alpha  occ. eigenvalues --   -0.79653  -0.79575  -0.78439  -0.78087  -0.65311
 Alpha  occ. eigenvalues --   -0.64895  -0.60962  -0.60934  -0.59401  -0.59332
 Alpha  occ. eigenvalues --   -0.57645  -0.57567  -0.55350  -0.55238  -0.52711
 Alpha  occ. eigenvalues --   -0.52671  -0.52500  -0.52363  -0.50011  -0.49880
 Alpha  occ. eigenvalues --   -0.48063  -0.47876  -0.46832  -0.46580  -0.46287
 Alpha  occ. eigenvalues --   -0.45752  -0.45735  -0.44961  -0.43810  -0.43778
 Alpha virt. eigenvalues --    0.20188   0.22758   0.24043   0.24264   0.25883
 Alpha virt. eigenvalues --    0.26687   0.26879   0.27573   0.28020   0.30130
 Alpha virt. eigenvalues --    0.31136   0.31501   0.31683   0.31863   0.32415

 Mulliken charges:
               1
     1  C   -0.309746
     2  C   -0.298800
     3  C   -0.475822
     4  H    0.159085
     5  H    0.149661
     6  H    0.151803
     7  H    0.152380
     8  H    0.155285
     9  H    0.154119
    10  H    0.160684
    11  C   -0.297910
    12  C   -0.305737
    13  C   -0.475442
    14  H    0.149240
    15  H    0.149908
    16  H    0.159243
    17  H    0.151323
    18  H    0.154753
    19  H    0.155309
    20  H    0.159892
    21  C   -0.297535
    22  C   -0.299853
    23  C   -0.475739
    24  H    0.149382
    25  H    0.149512
    26  H    0.152622
    27  H    0.151963
    28  H    0.155087
    29  H    0.155254
    30  H    0.160271
    31  C   -0.307361
    32  C   -0.299291
    33  C   -0.482220
    34  H    0.157737
    35  H    0.149869
    36  H    0.151414
    37  H    0.152381
    38  H    0.156148
    39  H    0.160378
    40  H    0.160752
 Sum of Mulliken charges =  -0.00000

 Dipole moment (field-independent basis, Debye):
    X=              0.0155    Y=             -0.0071    Z=              0.0025  Tot=              0.0172
 Quadrupole moment (field-independent basis, Debye-Ang):
   XX=            -86.0480   YY=            -84.7098   ZZ=            -84.0758
   XY=             -1.6310   XZ=              0.1748   YZ=             -0.1733

 Normal termination of Gaussian 16 at Thu May  6 06:58:42 2021.
