 Gaussian 16, Revision A.03,
 Gaussian 16:  EM64L-G16RevA.03 25-Dec-2016

 -------------
 #p 6-31g* mp2
 -------------

 ------------------------------------------------------
 Input file generated by CHIRIPA (05-May-2021 14:53:16)
 ------------------------------------------------------
 Symbolic Z-matrix:
 Charge =  0 Multiplicity = 1

                         Standard orientation:
 ---------------------------------------------------------------------
 Center     Atomic      Atomic             Coordinates (Angstroms)
 Number     Number       Type             X           Y           Z
 ---------------------------------------------------------------------
      1          6           0       -2.811541    0.806512   -0.150817
      2          6           0       -2.729111    1.740703   -1.358491
      3          6           0       -2.120995    3.100493   -1.013587
      4          1           0       -3.407886    1.287357    0.636651
      5          1           0       -1.803745    0.664111    0.263265
      6          1           0       -3.736576    1.880198   -1.771010
      7          1           0       -2.133054    1.257497   -2.143249
      8          1           0       -1.105510    2.980326   -0.622495
      9          1           0       -2.718143    3.606565   -0.248142
     10          1           0       -2.071574    3.752438   -1.891303
     11          6           0       -3.417307   -0.556793   -0.479717
     12          6           0       -3.499737   -1.490984    0.727957
     13          6           0       -4.107854   -2.850774    0.383053
     14          1           0       -4.425104   -0.414391   -0.893799
     15          1           0       -2.820963   -1.037638   -1.267185
     16          1           0       -4.095795   -1.007778    1.512714
     17          1           0       -2.492273   -1.630478    1.140476
     18          1           0       -3.510705   -3.356845   -0.382392
     19          1           0       -5.123338   -2.730607   -0.008039
     20          1           0       -4.157274   -3.502719    1.260769
     21          6           0        3.650530   -1.783189   -1.182860
     22          6           0        4.124844   -0.470496   -1.091306
     23          6           0        3.458355    0.471867   -0.302450
     24          6           0        2.315452    0.065415    0.384469
     25          6           0        1.818133   -1.234941    0.313496
     26          6           0        2.500715   -2.160557   -0.481403
     27          1           0        4.174525   -2.508734   -1.798009
     28          1           0        5.017556   -0.174608   -1.634960
     29          1           0        3.803717    1.494740   -0.213709
     30          1           0        0.925616   -1.500200    0.867093
     31          1           0        2.130067   -3.179317   -0.550633
     32          7           0        1.601351    1.054188    1.222793
     33          8           0        0.596661    0.671032    1.818129
     34          8           0        2.059852    2.193622    1.268664
 ---------------------------------------------------------------------

 SCF Done:  E(RHF) =  -669.536324831     A.U. after   15 cycles
 E2 =    -0.2091855917D+01 EUMP2 =    -0.67162818074825D+03

 The electronic state is 1-A.
 Alpha  occ. eigenvalues --  -20.61034 -20.61027 -15.86044 -11.31340 -11.27903
 Alpha  occ. eigenvalues --  -11.27895 -11.27629 -11.26900 -11.26890 -11.21230
 Alpha  occ. eigenvalues --  -11.20926 -11.20904 -11.20889 -11.20473 -11.20249
 Alpha  occ. eigenvalues --   -1.60083  -1.39640  -1.19506  -1.08915  -1.07840
 Alpha  occ. eigenvalues --   -1.04898  -1.02995  -0.95761  -0.95428  -0.86443
 Alpha  occ. eigenvalues --   -0.86299  -0.82594  -0.79064  -0.77700  -0.77546
 Alpha  occ. eigenvalues --   -0.72263  -0.71393  -0.70614  -0.65163  -0.64901
 Alpha  occ. eigenvalues --   -0.64482  -0.62245  -0.60408  -0.58817  -0.57026
 Alpha  occ. eigenvalues --   -0.55402  -0.54724  -0.53231  -0.52989  -0.52161
 Alpha  occ. eigenvalues --   -0.51833  -0.49376  -0.49033  -0.49023  -0.47372
 Alpha  occ. eigenvalues --   -0.46122  -0.45463  -0.45153  -0.44569  -0.43217
 Alpha  occ. eigenvalues --   -0.37482  -0.36497
 Alpha virt. eigenvalues --    0.04831   0.11143   0.16296   0.20730   0.23007
 Alpha virt. eigenvalues --    0.24706   0.25848   0.27438   0.27612   0.28445
 Alpha virt. eigenvalues --    0.29081   0.31139   0.31481   0.32173   0.32219

 Mulliken charges:
               1
     1  C   -0.307343
     2  C   -0.299546
     3  C   -0.475655
     4  H    0.150756
     5  H    0.167315
     6  H    0.148421
     7  H    0.146092
     8  H    0.162383
     9  H    0.156584
    10  H    0.155452
    11  C   -0.297590
    12  C   -0.298956
    13  C   -0.475249
    14  H    0.147532
    15  H    0.143361
    16  H    0.154839
    17  H    0.151147
    18  H    0.150302
    19  H    0.155488
    20  H    0.158961
    21  C   -0.170437
    22  C   -0.218547
    23  C   -0.170654
    24  C    0.158126
    25  C   -0.172020
    26  C   -0.218679
    27  H    0.226256
    28  H    0.224067
    29  H    0.276017
    30  H    0.276544
    31  H    0.224231
    32  N    0.487713
    33  O   -0.458737
    34  O   -0.458175
 Sum of Mulliken charges =  -0.00000

 Dipole moment (field-independent basis, Debye):
    X=              2.7315    Y=             -3.3908    Z=             -2.8006  Tot=              5.1770
 Quadrupole moment (field-independent basis, Debye-Ang):
   XX=            -80.7540   YY=            -94.2349   ZZ=            -97.6370
   XY=             -6.3135   XZ=             -7.7554   YZ=             -2.2469

 Normal termination of Gaussian 16 at Thu May  6 10:37:42 2021.
