 Gaussian 16, Revision A.03,
 Gaussian 16:  EM64L-G16RevA.03 25-Dec-2016

 -------------
 #p 6-31g* mp2
 -------------

 ------------------------------------------------------
 Input file generated by CHIRIPA (05-May-2021 14:57:25)
 ------------------------------------------------------
 Symbolic Z-matrix:
 Charge =  0 Multiplicity = 1

                         Standard orientation:
 ---------------------------------------------------------------------
 Center     Atomic      Atomic             Coordinates (Angstroms)
 Number     Number       Type             X           Y           Z
 ---------------------------------------------------------------------
      1          6           0        1.973308    1.637992    0.566341
      2          6           0        2.962926    1.355922    1.513767
      3          6           0        4.003618    0.472509    1.211960
      4          6           0        4.023871   -0.113668   -0.052665
      5          6           0        3.052561    0.147181   -1.017966
      6          6           0        2.021200    1.033787   -0.694279
      7          1           0        1.168498    2.325489    0.809291
      8          1           0        2.928272    1.823694    2.493580
      9          1           0        4.782692    0.236330    1.926580
     10          1           0        3.113870   -0.334523   -1.986274
     11          1           0        1.254007    1.250979   -1.432037
     12          7           0        5.120666   -1.050588   -0.383756
     13          8           0        5.115912   -1.554004   -1.505000
     14          8           0        5.964320   -1.263789    0.484247
     15          6           0       -2.252807    1.890588   -0.328728
     16          6           0       -1.826891    0.738710    0.340820
     17          6           0       -2.699459   -0.337519    0.527645
     18          6           0       -3.996850   -0.227461    0.029694
     19          6           0       -4.450897    0.906790   -0.641575
     20          6           0       -3.561143    1.970810   -0.816928
     21          1           0       -1.568299    2.721886   -0.469401
     22          1           0       -0.811387    0.673621    0.721031
     23          1           0       -2.395934   -1.241080    1.042297
     24          1           0       -5.469184    0.942312   -1.009335
     25          1           0       -3.894662    2.864135   -1.337294
     26          7           0       -4.929696   -1.360355    0.221404
     27          8           0       -6.067648   -1.238604   -0.226792
     28          8           0       -4.505245   -2.348615    0.816233
 ---------------------------------------------------------------------

 SCF Done:  E(RHF) =  -868.336298974     A.U. after   16 cycles
 E2 =    -0.2601237080D+01 EUMP2 =    -0.87093753605350D+03

 The electronic state is 1-A.
 Alpha  occ. eigenvalues --  -20.61380 -20.61374 -20.61242 -20.61237 -15.86438
 Alpha  occ. eigenvalues --  -15.86298 -11.32035 -11.31828 -11.28591 -11.28574
 Alpha  occ. eigenvalues --  -11.28512 -11.28393 -11.28388 -11.28304 -11.27749
 Alpha  occ. eigenvalues --  -11.27700 -11.27486 -11.27468  -1.60449  -1.60313
 Alpha  occ. eigenvalues --   -1.39995  -1.39861  -1.20236  -1.20023  -1.09638
 Alpha  occ. eigenvalues --   -1.09415  -1.05648  -1.05435  -0.96423  -0.96217
 Alpha  occ. eigenvalues --   -0.87083  -0.86830  -0.83221  -0.83032  -0.78203
 Alpha  occ. eigenvalues --   -0.78029  -0.72655  -0.72518  -0.71773  -0.71637
 Alpha  occ. eigenvalues --   -0.71497  -0.71143  -0.65934  -0.65760  -0.65658
 Alpha  occ. eigenvalues --   -0.65342  -0.62979  -0.62754  -0.56258  -0.56046
 Alpha  occ. eigenvalues --   -0.54081  -0.53814  -0.53692  -0.53421  -0.49431
 Alpha  occ. eigenvalues --   -0.49393  -0.49288  -0.49259  -0.45348  -0.45229
 Alpha  occ. eigenvalues --   -0.38294  -0.38060  -0.37255  -0.36993
 Alpha virt. eigenvalues --    0.04256   0.04479   0.10151   0.10741   0.15551
 Alpha virt. eigenvalues --    0.15916   0.18196   0.21992   0.25050   0.26539
 Alpha virt. eigenvalues --    0.27189   0.29530   0.30270   0.30734   0.31770

 Mulliken charges:
               1
     1  C   -0.180852
     2  C   -0.218344
     3  C   -0.170185
     4  C    0.160247
     5  C   -0.169760
     6  C   -0.218843
     7  H    0.220080
     8  H    0.226680
     9  H    0.278962
    10  H    0.279277
    11  H    0.224166
    12  N    0.487820
    13  O   -0.457540
    14  O   -0.457667
    15  C   -0.177263
    16  C   -0.224805
    17  C   -0.171389
    18  C    0.159790
    19  C   -0.170588
    20  C   -0.217325
    21  H    0.217707
    22  H    0.226833
    23  H    0.278969
    24  H    0.277873
    25  H    0.225104
    26  N    0.487817
    27  O   -0.458648
    28  O   -0.458116
 Sum of Mulliken charges =  -0.00000

 Dipole moment (field-independent basis, Debye):
    X=             -0.4416    Y=              7.0764    Z=              0.4784  Tot=              7.1063
 Quadrupole moment (field-independent basis, Debye-Ang):
   XX=           -157.6224   YY=           -107.4567   ZZ=           -100.2501
   XY=             -4.8054   XZ=             11.8375   YZ=             -0.7516

 Normal termination of Gaussian 16 at Thu May  6 00:22:50 2021.
