 Gaussian 16, Revision A.03,
 Gaussian 16:  EM64L-G16RevA.03 25-Dec-2016

 -------------
 #p 6-31g* mp2
 -------------

 ------------------------------------------------------
 Input file generated by CHIRIPA (05-May-2021 14:55:22)
 ------------------------------------------------------
 Symbolic Z-matrix:
 Charge =  0 Multiplicity = 1

                         Standard orientation:
 ---------------------------------------------------------------------
 Center     Atomic      Atomic             Coordinates (Angstroms)
 Number     Number       Type             X           Y           Z
 ---------------------------------------------------------------------
      1          6           0       -1.543922    1.849883    0.926112
      2          6           0       -2.094343    0.951817    1.846457
      3          6           0       -2.906265   -0.100561    1.413061
      4          6           0       -3.148087   -0.225727    0.045895
      5          6           0       -2.614205    0.652781   -0.895638
      6          6           0       -1.805149    1.697767   -0.439590
      7          1           0       -0.914315    2.664525    1.271583
      8          1           0       -1.893177    1.067511    2.907679
      9          1           0       -3.345192   -0.810160    2.103881
     10          1           0       -2.832714    0.511731   -1.947197
     11          1           0       -1.379027    2.393714   -1.156614
     12          7           0       -4.006115   -1.335920   -0.424912
     13          8           0       -4.203984   -1.424478   -1.634723
     14          8           0       -4.464522   -2.096511    0.424795
     15          6           0        4.502005   -0.266589    0.072530
     16          6           0        4.516062   -1.788063   -0.078809
     17          6           0        5.829985   -2.416321    0.386692
     18          1           0        5.337119    0.160165   -0.499669
     19          1           0        4.680261   -0.008171    1.125545
     20          1           0        4.336456   -2.043570   -1.130984
     21          1           0        3.680704   -2.211230    0.493664
     22          1           0        6.012291   -2.190442    1.442317
     23          1           0        6.671769   -2.021829   -0.191561
     24          1           0        5.818318   -3.504455    0.269690
     25          6           0        3.195080    0.376040   -0.388663
     26          6           0        3.181023    1.897514   -0.237324
     27          6           0        1.867099    2.525772   -0.702824
     28          1           0        3.016824    0.117622   -1.441678
     29          1           0        2.359966   -0.050714    0.183538
     30          1           0        4.016380    2.320681   -0.809795
     31          1           0        3.360628    2.153021    0.814853
     32          1           0        1.025316    2.131280   -0.124571
     33          1           0        1.684794    2.299893   -1.758450
     34          1           0        1.878767    3.613905   -0.585822
 ---------------------------------------------------------------------

 SCF Done:  E(RHF) =  -669.534405877     A.U. after   15 cycles
 E2 =    -0.2092523453D+01 EUMP2 =    -0.67162692932947D+03

 The electronic state is 1-A.
 Alpha  occ. eigenvalues --  -20.60771 -20.60765 -15.85823 -11.31201 -11.27764
 Alpha  occ. eigenvalues --  -11.27739 -11.27477 -11.26790 -11.26738 -11.22283
 Alpha  occ. eigenvalues --  -11.21950 -11.21879 -11.21864 -11.21746 -11.21293
 Alpha  occ. eigenvalues --   -1.59846  -1.39399  -1.19373  -1.08908  -1.08767
 Alpha  occ. eigenvalues --   -1.04773  -1.04038  -0.96521  -0.95600  -0.87557
 Alpha  occ. eigenvalues --   -0.86162  -0.82428  -0.80124  -0.78677  -0.77468
 Alpha  occ. eigenvalues --   -0.72042  -0.71168  -0.70505  -0.65543  -0.65024
 Alpha  occ. eigenvalues --   -0.64776  -0.62124  -0.61438  -0.59890  -0.58098
 Alpha  occ. eigenvalues --   -0.55903  -0.55207  -0.53323  -0.53198  -0.52902
 Alpha  occ. eigenvalues --   -0.52696  -0.50436  -0.48804  -0.48796  -0.48412
 Alpha  occ. eigenvalues --   -0.47132  -0.46227  -0.46131  -0.44802  -0.44279
 Alpha  occ. eigenvalues --   -0.37297  -0.36354
 Alpha virt. eigenvalues --    0.05016   0.11208   0.16439   0.20911   0.22503
 Alpha virt. eigenvalues --    0.23985   0.26030   0.26382   0.27181   0.27727
 Alpha virt. eigenvalues --    0.29086   0.30166   0.31126   0.31654   0.31937

 Mulliken charges:
               1
     1  C   -0.174236
     2  C   -0.219901
     3  C   -0.171374
     4  C    0.158747
     5  C   -0.172254
     6  C   -0.215917
     7  H    0.227760
     8  H    0.223419
     9  H    0.275563
    10  H    0.275696
    11  H    0.228380
    12  N    0.488065
    13  O   -0.460257
    14  O   -0.460442
    15  C   -0.298672
    16  C   -0.300130
    17  C   -0.475992
    18  H    0.150321
    19  H    0.148976
    20  H    0.153260
    21  H    0.152901
    22  H    0.154926
    23  H    0.155425
    24  H    0.161918
    25  C   -0.299156
    26  C   -0.298681
    27  C   -0.486823
    28  H    0.151077
    29  H    0.151244
    30  H    0.154461
    31  H    0.150913
    32  H    0.157002
    33  H    0.155996
    34  H    0.157787
 Sum of Mulliken charges =  -0.00000

 Dipole moment (field-independent basis, Debye):
    X=              3.0865    Y=              3.8406    Z=              1.6417  Tot=              5.1935
 Quadrupole moment (field-independent basis, Debye-Ang):
   XX=           -114.9187   YY=            -97.2412   ZZ=            -89.3679
   XY=            -12.5235   XZ=             -6.4222   YZ=             -1.7592

 Normal termination of Gaussian 16 at Wed May  5 19:01:16 2021.
