 Gaussian 16, Revision A.03,
 Gaussian 16:  EM64L-G16RevA.03 25-Dec-2016

 -------------
 #p 6-31g* mp2
 -------------

 ------------------------------------------------------
 Input file generated by CHIRIPA (05-May-2021 14:57:25)
 ------------------------------------------------------
 Symbolic Z-matrix:
 Charge =  0 Multiplicity = 1

                         Standard orientation:
 ---------------------------------------------------------------------
 Center     Atomic      Atomic             Coordinates (Angstroms)
 Number     Number       Type             X           Y           Z
 ---------------------------------------------------------------------
      1          6           0       -5.549595   -0.040971   -1.384229
      2          6           0       -5.748122    0.010167   -0.000577
      3          6           0       -4.660414   -0.051902    0.875543
      4          6           0       -3.382094   -0.165442    0.331211
      5          6           0       -3.151882   -0.218794   -1.042633
      6          6           0       -4.254392   -0.155087   -1.899932
      7          1           0       -6.400302    0.007882   -2.057510
      8          1           0       -6.752872    0.098777    0.402747
      9          1           0       -4.785505   -0.014431    1.950888
     10          1           0       -2.138484   -0.307277   -1.414938
     11          1           0       -4.097216   -0.195024   -2.974057
     12          7           0       -2.222751   -0.232019    1.248758
     13          8           0       -1.106524   -0.331920    0.744085
     14          8           0       -2.452238   -0.183041    2.455230
     15          6           0        4.819991   -2.038685   -0.142179
     16          6           0        5.495861   -0.844468    0.129057
     17          6           0        4.815140    0.376530    0.110898
     18          6           0        3.452629    0.366496   -0.183644
     19          6           0        2.751315   -0.806578   -0.458135
     20          6           0        3.452286   -2.015968   -0.434393
     21          1           0        5.356657   -2.982676   -0.125904
     22          1           0        6.558023   -0.859089    0.356308
     23          1           0        5.313732    1.315835    0.317126
     24          1           0        1.692336   -0.760167   -0.681356
     25          1           0        2.924814   -2.941862   -0.645431
     26          7           0        2.721261    1.652968   -0.205822
     27          8           0        1.521026    1.617249   -0.468113
     28          8           0        3.362099    2.672663    0.039504
 ---------------------------------------------------------------------

 SCF Done:  E(RHF) =  -868.337948553     A.U. after   16 cycles
 E2 =    -0.2599589312D+01 EUMP2 =    -0.87093753786456D+03

 The electronic state is 1-A.
 Alpha  occ. eigenvalues --  -20.60501 -20.60460 -20.59904 -20.59839 -15.85531
 Alpha  occ. eigenvalues --  -15.84925 -11.30915 -11.30337 -11.27498 -11.27485
 Alpha  occ. eigenvalues --  -11.27257 -11.26987 -11.26848 -11.26759 -11.26527
 Alpha  occ. eigenvalues --  -11.26513 -11.26022 -11.25958  -1.59541  -1.58947
 Alpha  occ. eigenvalues --   -1.39097  -1.38493  -1.19094  -1.18540  -1.08488
 Alpha  occ. eigenvalues --   -1.07940  -1.04505  -1.03953  -0.95321  -0.94757
 Alpha  occ. eigenvalues --   -0.85903  -0.85352  -0.82158  -0.81587  -0.77203
 Alpha  occ. eigenvalues --   -0.76598  -0.71777  -0.71145  -0.70844  -0.70263
 Alpha  occ. eigenvalues --   -0.70210  -0.69663  -0.64756  -0.64516  -0.64200
 Alpha  occ. eigenvalues --   -0.63973  -0.61855  -0.61284  -0.55017  -0.54493
 Alpha  occ. eigenvalues --   -0.52829  -0.52604  -0.52285  -0.52052  -0.48519
 Alpha  occ. eigenvalues --   -0.48505  -0.47930  -0.47882  -0.44502  -0.43862
 Alpha  occ. eigenvalues --   -0.37080  -0.36552  -0.36107  -0.35554
 Alpha virt. eigenvalues --    0.05347   0.05933   0.11547   0.12095   0.16822
 Alpha virt. eigenvalues --    0.17393   0.21435   0.22209   0.27049   0.27810
 Alpha virt. eigenvalues --    0.28337   0.29336   0.30834   0.31751   0.32381

 Mulliken charges:
               1
     1  C   -0.170878
     2  C   -0.218627
     3  C   -0.170905
     4  C    0.158817
     5  C   -0.168589
     6  C   -0.218585
     7  H    0.224752
     8  H    0.222636
     9  H    0.275216
    10  H    0.275652
    11  H    0.222838
    12  N    0.492708
    13  O   -0.462599
    14  O   -0.461257
    15  C   -0.170919
    16  C   -0.219413
    17  C   -0.171157
    18  C    0.156718
    19  C   -0.168202
    20  C   -0.219955
    21  H    0.222470
    22  H    0.220347
    23  H    0.273430
    24  H    0.286643
    25  H    0.221300
    26  N    0.487820
    27  O   -0.454475
    28  O   -0.465787
 Sum of Mulliken charges =  -0.00000

 Dipole moment (field-independent basis, Debye):
    X=             -1.7250    Y=             -4.2603    Z=             -3.1369  Tot=              5.5647
 Quadrupole moment (field-independent basis, Debye-Ang):
   XX=            -55.9699   YY=           -108.7771   ZZ=           -104.7964
   XY=            -13.0503   XZ=              8.0219   YZ=              2.4635

 Normal termination of Gaussian 16 at Wed May  5 21:07:46 2021.
