 Gaussian 16, Revision A.03,
 Gaussian 16:  EM64L-G16RevA.03 25-Dec-2016

 -------------
 #p 6-31g* mp2
 -------------

 ------------------------------------------------------
 Input file generated by CHIRIPA (05-May-2021 14:57:24)
 ------------------------------------------------------
 Symbolic Z-matrix:
 Charge =  0 Multiplicity = 1

                         Standard orientation:
 ---------------------------------------------------------------------
 Center     Atomic      Atomic             Coordinates (Angstroms)
 Number     Number       Type             X           Y           Z
 ---------------------------------------------------------------------
      1          6           0        1.616305    2.778238   -0.333593
      2          6           0        1.371641    2.292614    0.955139
      3          6           0        1.638580    0.957703    1.273420
      4          6           0        2.152104    0.132503    0.274105
      5          6           0        2.406539    0.586665   -1.019065
      6          6           0        2.132064    1.925217   -1.314852
      7          1           0        1.406014    3.816643   -0.572104
      8          1           0        0.971127    2.952798    1.719201
      9          1           0        1.458584    0.555564    2.263017
     10          1           0        2.806121   -0.095497   -1.759610
     11          1           0        2.323061    2.299614   -2.316547
     12          7           0        2.438689   -1.282635    0.599148
     13          8           0        2.890824   -1.989325   -0.299072
     14          8           0        2.205753   -1.658334    1.745982
     15          6           0       -3.275636    1.793772    0.355455
     16          6           0       -2.081874    1.817453   -0.373167
     17          6           0       -1.424560    0.627074   -0.697951
     18          6           0       -1.991686   -0.574508   -0.276219
     19          6           0       -3.179674   -0.630894    0.450964
     20          6           0       -3.819767    0.571828    0.764474
     21          1           0       -3.779565    2.723281    0.603376
     22          1           0       -1.656983    2.764962   -0.692133
     23          1           0       -0.499165    0.616472   -1.260934
     24          1           0       -3.578868   -1.590885    0.755067
     25          1           0       -4.746731    0.550404    1.330446
     26          7           0       -1.304932   -1.841243   -0.614085
     27          8           0       -1.825137   -2.886779   -0.230841
     28          8           0       -0.259454   -1.764587   -1.255752
 ---------------------------------------------------------------------

 SCF Done:  E(RHF) =  -868.335144905     A.U. after   16 cycles
 E2 =    -0.2607970680D+01 EUMP2 =    -0.87094311558457D+03

 The electronic state is 1-A.
 Alpha  occ. eigenvalues --  -20.60659 -20.60598 -20.60212 -20.60124 -15.85674
 Alpha  occ. eigenvalues --  -15.85235 -11.31154 -11.31106 -11.27804 -11.27732
 Alpha  occ. eigenvalues --  -11.27726 -11.27723 -11.27640 -11.27556 -11.26994
 Alpha  occ. eigenvalues --  -11.26984 -11.26782 -11.26764  -1.59694  -1.59204
 Alpha  occ. eigenvalues --   -1.39256  -1.38753  -1.19487  -1.19295  -1.08745
 Alpha  occ. eigenvalues --   -1.08712  -1.04912  -1.04742  -0.95541  -0.95452
 Alpha  occ. eigenvalues --   -0.86272  -0.86145  -0.82377  -0.82282  -0.77421
 Alpha  occ. eigenvalues --   -0.77195  -0.71979  -0.71479  -0.71205  -0.70553
 Alpha  occ. eigenvalues --   -0.70464  -0.70230  -0.65063  -0.64982  -0.64906
 Alpha  occ. eigenvalues --   -0.64772  -0.62222  -0.62159  -0.55435  -0.55346
 Alpha  occ. eigenvalues --   -0.53698  -0.52982  -0.52963  -0.52342  -0.48657
 Alpha  occ. eigenvalues --   -0.48637  -0.48273  -0.48175  -0.44735  -0.43941
 Alpha  occ. eigenvalues --   -0.37654  -0.37222  -0.37022  -0.35764
 Alpha virt. eigenvalues --    0.05094   0.05335   0.10696   0.11682   0.16479
 Alpha virt. eigenvalues --    0.16703   0.20712   0.21812   0.26689   0.27180
 Alpha virt. eigenvalues --    0.28408   0.28581   0.30667   0.31364   0.32578

 Mulliken charges:
               1
     1  C   -0.181748
     2  C   -0.214358
     3  C   -0.172682
     4  C    0.166747
     5  C   -0.169531
     6  C   -0.229253
     7  H    0.221665
     8  H    0.221569
     9  H    0.276956
    10  H    0.283007
    11  H    0.224653
    12  N    0.493061
    13  O   -0.447505
    14  O   -0.464532
    15  C   -0.172639
    16  C   -0.221439
    17  C   -0.169043
    18  C    0.154140
    19  C   -0.169402
    20  C   -0.220003
    21  H    0.222791
    22  H    0.214927
    23  H    0.281886
    24  H    0.276976
    25  H    0.223018
    26  N    0.489082
    27  O   -0.453931
    28  O   -0.464413
 Sum of Mulliken charges =  -0.00000

 Dipole moment (field-independent basis, Debye):
    X=             -3.1693    Y=              8.9122    Z=              0.0203  Tot=              9.4589
 Quadrupole moment (field-independent basis, Debye-Ang):
   XX=            -97.2211   YY=           -108.7023   ZZ=           -101.4344
   XY=              4.7427   XZ=             -8.4423   YZ=             -1.0073

 Normal termination of Gaussian 16 at Wed May  5 22:43:39 2021.
