 Gaussian 16, Revision A.03,
 Gaussian 16:  EM64L-G16RevA.03 25-Dec-2016

 -------------
 #p 6-31g* mp2
 -------------

 ------------------------------------------------------
 Input file generated by CHIRIPA (05-May-2021 14:57:26)
 ------------------------------------------------------
 Symbolic Z-matrix:
 Charge =  0 Multiplicity = 1

                         Standard orientation:
 ---------------------------------------------------------------------
 Center     Atomic      Atomic             Coordinates (Angstroms)
 Number     Number       Type             X           Y           Z
 ---------------------------------------------------------------------
      1          6           0        5.133266   -1.558033   -0.044881
      2          6           0        5.572811   -0.234893    0.067465
      3          6           0        4.656980    0.821300    0.051363
      4          6           0        3.302900    0.516787   -0.079125
      5          6           0        2.833904   -0.791018   -0.193054
      6          6           0        3.767623   -1.831391   -0.174553
      7          1           0        5.851654   -2.372364   -0.031440
      8          1           0        6.632783   -0.019625    0.168290
      9          1           0        4.969850    1.854871    0.136576
     10          1           0        1.770895   -0.974266   -0.292302
     11          1           0        3.423393   -2.857990   -0.261987
     12          7           0        2.323882    1.626556   -0.097441
     13          8           0        1.136319    1.331819   -0.213464
     14          8           0        2.762628    2.770117    0.004572
     15          6           0       -5.708979    0.730131   -0.365489
     16          6           0       -4.983112    0.164399   -1.418858
     17          6           0       -3.738322   -0.427836   -1.185828
     18          6           0       -3.247242   -0.436748    0.118798
     19          6           0       -3.946550    0.118592    1.189245
     20          6           0       -5.189296    0.705465    0.932911
     21          1           0       -6.675168    1.188112   -0.555563
     22          1           0       -5.384235    0.182107   -2.428229
     23          1           0       -3.155300   -0.873142   -1.982827
     24          1           0       -3.520678    0.085675    2.184718
     25          1           0       -5.750804    1.144052    1.752909
     26          7           0       -1.930519   -1.060883    0.377831
     27          8           0       -1.519839   -1.055848    1.536258
     28          8           0       -1.334086   -1.543298   -0.582471
 ---------------------------------------------------------------------

 SCF Done:  E(RHF) =  -868.340334871     A.U. after   16 cycles
 E2 =    -0.2599089702D+01 EUMP2 =    -0.87093942457329D+03

 The electronic state is 1-A.
 Alpha  occ. eigenvalues --  -20.60577 -20.60570 -20.59876 -20.59838 -15.85586
 Alpha  occ. eigenvalues --  -15.84911 -11.30812 -11.30141 -11.27378 -11.27366
 Alpha  occ. eigenvalues --  -11.27126 -11.26826 -11.26553 -11.26524 -11.26384
 Alpha  occ. eigenvalues --  -11.26372 -11.25830 -11.25667  -1.59596  -1.58939
 Alpha  occ. eigenvalues --   -1.39163  -1.38489  -1.18974  -1.18341  -1.08402
 Alpha  occ. eigenvalues --   -1.07784  -1.04371  -1.03713  -0.95264  -0.94621
 Alpha  occ. eigenvalues --   -0.85778  -0.85127  -0.82111  -0.81450  -0.77162
 Alpha  occ. eigenvalues --   -0.76482  -0.71835  -0.71189  -0.70804  -0.70255
 Alpha  occ. eigenvalues --   -0.70111  -0.69458  -0.64647  -0.64394  -0.64000
 Alpha  occ. eigenvalues --   -0.63727  -0.61727  -0.61023  -0.54903  -0.54281
 Alpha  occ. eigenvalues --   -0.52688  -0.52477  -0.52083  -0.51798  -0.48597
 Alpha  occ. eigenvalues --   -0.48571  -0.47906  -0.47867  -0.44595  -0.43918
 Alpha  occ. eigenvalues --   -0.36946  -0.36374  -0.35959  -0.35317
 Alpha virt. eigenvalues --    0.05379   0.06023   0.11699   0.12328   0.16876
 Alpha virt. eigenvalues --    0.17503   0.21762   0.22468   0.27683   0.28366
 Alpha virt. eigenvalues --    0.28653   0.29450   0.31299   0.31958   0.32886

 Mulliken charges:
               1
     1  C   -0.170894
     2  C   -0.220056
     3  C   -0.171723
     4  C    0.155165
     5  C   -0.175302
     6  C   -0.221560
     7  H    0.222040
     8  H    0.219207
     9  H    0.271846
    10  H    0.297817
    11  H    0.225223
    12  N    0.487799
    13  O   -0.457591
    14  O   -0.466692
    15  C   -0.170217
    16  C   -0.218523
    17  C   -0.168446
    18  C    0.162221
    19  C   -0.168649
    20  C   -0.218528
    21  H    0.224662
    22  H    0.222392
    23  H    0.274525
    24  H    0.275639
    25  H    0.222760
    26  N    0.494265
    27  O   -0.459442
    28  O   -0.467937
 Sum of Mulliken charges =  -0.00000

 Dipole moment (field-independent basis, Debye):
    X=             -1.5413    Y=             -1.7892    Z=             -0.8124  Tot=              2.4973
 Quadrupole moment (field-independent basis, Debye-Ang):
   XX=            -51.5905   YY=           -109.9451   ZZ=           -101.1744
   XY=            -14.3632   XZ=              2.3151   YZ=              2.6560

 Normal termination of Gaussian 16 at Fri May  7 06:35:12 2021.
