 Gaussian 16, Revision A.03,
 Gaussian 16:  EM64L-G16RevA.03 25-Dec-2016

 -------------
 #p 6-31g* mp2
 -------------

 ------------------------------------------------------
 Input file generated by CHIRIPA (05-May-2021 14:55:25)
 ------------------------------------------------------
 Symbolic Z-matrix:
 Charge =  0 Multiplicity = 1

                         Standard orientation:
 ---------------------------------------------------------------------
 Center     Atomic      Atomic             Coordinates (Angstroms)
 Number     Number       Type             X           Y           Z
 ---------------------------------------------------------------------
      1          6           0       -4.603328    1.163677    0.651376
      2          6           0       -4.727101   -0.197371    0.949283
      3          6           0       -3.738140   -1.103356    0.554700
      4          6           0       -2.633720   -0.611613   -0.139372
      5          6           0       -2.481716    0.738582   -0.451073
      6          6           0       -3.483005    1.626494   -0.046621
      7          1           0       -5.376365    1.860448    0.961730
      8          1           0       -5.596068   -0.559633    1.491231
      9          1           0       -3.808651   -2.162196    0.772193
     10          1           0       -1.604001    1.069855   -0.992638
     11          1           0       -3.384228    2.682961   -0.279357
     12          7           0       -1.580226   -1.561172   -0.562323
     13          8           0       -0.616928   -1.102746   -1.172683
     14          8           0       -1.737744   -2.745882   -0.275464
     15          6           0        3.889613   -0.118283    0.021841
     16          6           0        5.300174   -0.238488    0.599641
     17          6           0        5.879245   -1.646414    0.457451
     18          1           0        3.231362   -0.839591    0.525195
     19          1           0        3.910294   -0.401779   -1.039571
     20          1           0        5.277093    0.046480    1.659300
     21          1           0        5.955100    0.483323    0.094987
     22          1           0        5.931267   -1.936903   -0.596831
     23          1           0        5.249408   -2.376229    0.976370
     24          1           0        6.888111   -1.709830    0.877007
     25          6           0        3.297201    1.283375    0.156499
     26          6           0        1.886639    1.403581   -0.421299
     27          6           0        1.307569    2.811506   -0.279110
     28          1           0        3.276520    1.566871    1.217912
     29          1           0        3.955451    2.004684   -0.346855
     30          1           0        1.231714    0.681769    0.083354
     31          1           0        1.909720    1.118613   -1.480958
     32          1           0        1.937405    3.541321   -0.798029
     33          1           0        1.255546    3.101995    0.775172
     34          1           0        0.298702    2.874923   -0.698665
 ---------------------------------------------------------------------

 SCF Done:  E(RHF) =  -669.535610836     A.U. after   15 cycles
 E2 =    -0.2092034755D+01 EUMP2 =    -0.67162764559085D+03

 The electronic state is 1-A.
 Alpha  occ. eigenvalues --  -20.60875 -20.60867 -15.85899 -11.31231 -11.27801
 Alpha  occ. eigenvalues --  -11.27780 -11.27538 -11.26811 -11.26796 -11.21037
 Alpha  occ. eigenvalues --  -11.21029 -11.20907 -11.20820 -11.20644 -11.20500
 Alpha  occ. eigenvalues --   -1.59938  -1.39493  -1.19403  -1.08807  -1.07836
 Alpha  occ. eigenvalues --   -1.04800  -1.03037  -0.95656  -0.95530  -0.86549
 Alpha  occ. eigenvalues --   -0.86198  -0.82483  -0.79060  -0.77678  -0.77447
 Alpha  occ. eigenvalues --   -0.72122  -0.71255  -0.70515  -0.65058  -0.64810
 Alpha  occ. eigenvalues --   -0.64467  -0.62174  -0.60430  -0.58911  -0.57132
 Alpha  occ. eigenvalues --   -0.55302  -0.54826  -0.53133  -0.52903  -0.52260
 Alpha  occ. eigenvalues --   -0.51937  -0.49457  -0.48911  -0.48884  -0.47376
 Alpha  occ. eigenvalues --   -0.46101  -0.45293  -0.45100  -0.44632  -0.43280
 Alpha  occ. eigenvalues --   -0.37385  -0.36398
 Alpha virt. eigenvalues --    0.04960   0.11220   0.16445   0.20308   0.23347
 Alpha virt. eigenvalues --    0.24077   0.26433   0.27310   0.27737   0.28296
 Alpha virt. eigenvalues --    0.29281   0.30881   0.31583   0.31869   0.32546

 Mulliken charges:
               1
     1  C   -0.170600
     2  C   -0.218769
     3  C   -0.170608
     4  C    0.157845
     5  C   -0.175543
     6  C   -0.219732
     7  H    0.225829
     8  H    0.223586
     9  H    0.275556
    10  H    0.283092
    11  H    0.223922
    12  N    0.487771
    13  O   -0.459131
    14  O   -0.459765
    15  C   -0.298045
    16  C   -0.299471
    17  C   -0.475389
    18  H    0.155602
    19  H    0.152763
    20  H    0.149533
    21  H    0.149580
    22  H    0.155987
    23  H    0.156840
    24  H    0.157635
    25  C   -0.299310
    26  C   -0.301324
    27  C   -0.475731
    28  H    0.145828
    29  H    0.146278
    30  H    0.163481
    31  H    0.158092
    32  H    0.155554
    33  H    0.153715
    34  H    0.144928
 Sum of Mulliken charges =  -0.00000

 Dipole moment (field-independent basis, Debye):
    X=             -3.7840    Y=              3.1577    Z=              1.4445  Tot=              5.1358
 Quadrupole moment (field-independent basis, Debye-Ang):
   XX=            -74.9002   YY=            -97.6671   ZZ=            -94.2440
   XY=             -4.0964   XZ=             -5.3702   YZ=             -3.3943

 Normal termination of Gaussian 16 at Thu May  6 16:02:54 2021.
