 Gaussian 16, Revision A.03,
 Gaussian 16:  EM64L-G16RevA.03 25-Dec-2016

 -------------
 #p 6-31g* mp2
 -------------

 ------------------------------------------------------
 Input file generated by CHIRIPA (05-May-2021 14:57:24)
 ------------------------------------------------------
 Symbolic Z-matrix:
 Charge =  0 Multiplicity = 1

                         Standard orientation:
 ---------------------------------------------------------------------
 Center     Atomic      Atomic             Coordinates (Angstroms)
 Number     Number       Type             X           Y           Z
 ---------------------------------------------------------------------
      1          6           0        4.158456    2.068689    0.091543
      2          6           0        2.906922    2.089748   -0.532749
      3          6           0        2.161505    0.914852   -0.668838
      4          6           0        2.700396   -0.268742   -0.166851
      5          6           0        3.944342   -0.322057    0.460084
      6          6           0        4.672266    0.864975    0.585096
      7          1           0        4.730720    2.986090    0.192958
      8          1           0        2.505396    3.023116   -0.916997
      9          1           0        1.189971    0.902625   -1.147786
     10          1           0        4.318318   -1.267781    0.833135
     11          1           0        5.643947    0.845630    1.070386
     12          7           0        1.920516   -1.518977   -0.305059
     13          8           0        2.417471   -2.548810    0.145623
     14          8           0        0.827058   -1.445403   -0.861453
     15          6           0       -2.273482   -2.397208    0.223497
     16          6           0       -2.697532   -1.813674   -0.974914
     17          6           0       -3.007972   -0.451662   -1.030580
     18          6           0       -2.882629    0.300502    0.136394
     19          6           0       -2.462728   -0.251828    1.345487
     20          6           0       -2.157638   -1.615800    1.377838
     21          1           0       -2.034403   -3.456013    0.257684
     22          1           0       -2.788417   -2.418087   -1.872952
     23          1           0       -3.338545    0.025731   -1.945038
     24          1           0       -2.381804    0.376382    2.224248
     25          1           0       -1.828555   -2.066292    2.309936
     26          7           0       -3.208446    1.743441    0.089805
     27          8           0       -3.089852    2.384401    1.131795
     28          8           0       -3.576247    2.206135   -0.987819
 ---------------------------------------------------------------------

 SCF Done:  E(RHF) =  -868.339152660     A.U. after   16 cycles
 E2 =    -0.2600041095D+01 EUMP2 =    -0.87093919375524D+03

 The electronic state is 1-A.
 Alpha  occ. eigenvalues --  -20.61187 -20.61145 -20.60290 -20.60285 -15.86187
 Alpha  occ. eigenvalues --  -15.85332 -11.31355 -11.30305 -11.27917 -11.27865
 Alpha  occ. eigenvalues --  -11.27591 -11.26885 -11.26882 -11.26845 -11.26818
 Alpha  occ. eigenvalues --  -11.26420 -11.25737 -11.25682  -1.60244  -1.59382
 Alpha  occ. eigenvalues --   -1.39800  -1.38944  -1.19506  -1.18423  -1.08942
 Alpha  occ. eigenvalues --   -1.07865  -1.04872  -1.03793  -0.95812  -0.94780
 Alpha  occ. eigenvalues --   -0.86280  -0.85209  -0.82646  -0.81652  -0.77719
 Alpha  occ. eigenvalues --   -0.76767  -0.72439  -0.71563  -0.71553  -0.70711
 Alpha  occ. eigenvalues --   -0.70609  -0.69521  -0.65158  -0.64866  -0.64087
 Alpha  occ. eigenvalues --   -0.63811  -0.62219  -0.61188  -0.55381  -0.54250
 Alpha  occ. eigenvalues --   -0.53223  -0.52956  -0.52095  -0.51907  -0.49204
 Alpha  occ. eigenvalues --   -0.49169  -0.48334  -0.48278  -0.45234  -0.44439
 Alpha  occ. eigenvalues --   -0.37484  -0.36473  -0.36208  -0.35373
 Alpha virt. eigenvalues --    0.04775   0.05786   0.11188   0.12292   0.16318
 Alpha virt. eigenvalues --    0.17422   0.21366   0.22382   0.27290   0.28190
 Alpha virt. eigenvalues --    0.28211   0.29279   0.30926   0.31939   0.32392

 Mulliken charges:
               1
     1  C   -0.170247
     2  C   -0.218184
     3  C   -0.170630
     4  C    0.157151
     5  C   -0.171641
     6  C   -0.218660
     7  H    0.227233
     8  H    0.228130
     9  H    0.276804
    10  H    0.274236
    11  H    0.223638
    12  N    0.489264
    13  O   -0.464639
    14  O   -0.461956
    15  C   -0.150349
    16  C   -0.208796
    17  C   -0.172671
    18  C    0.154748
    19  C   -0.173832
    20  C   -0.219157
    21  H    0.228387
    22  H    0.222078
    23  H    0.270727
    24  H    0.270211
    25  H    0.220753
    26  N    0.487121
    27  O   -0.465001
    28  O   -0.464717
 Sum of Mulliken charges =  -0.00000

 Dipole moment (field-independent basis, Debye):
    X=              4.1036    Y=             -0.9073    Z=              0.5493  Tot=              4.2385
 Quadrupole moment (field-independent basis, Debye-Ang):
   XX=            -95.4902   YY=           -109.5753   ZZ=           -100.0854
   XY=             25.6297   XZ=              3.9475   YZ=             -2.3931

 Normal termination of Gaussian 16 at Wed May  5 19:26:55 2021.
