 Gaussian 16, Revision A.03,
 Gaussian 16:  EM64L-G16RevA.03 25-Dec-2016

 -------------
 #p 6-31g* mp2
 -------------

 ------------------------------------------------------
 Input file generated by CHIRIPA (05-May-2021 14:51:10)
 ------------------------------------------------------
 Symbolic Z-matrix:
 Charge =  0 Multiplicity = 1

                         Standard orientation:
 ---------------------------------------------------------------------
 Center     Atomic      Atomic             Coordinates (Angstroms)
 Number     Number       Type             X           Y           Z
 ---------------------------------------------------------------------
      1          6           0        5.085228   -0.459864    0.375727
      2          6           0        6.216442   -0.792736   -0.597688
      3          6           0        7.239568   -1.762532   -0.005655
      4          1           0        5.512944   -0.029777    1.291713
      5          1           0        4.581071   -1.389862    0.672921
      6          1           0        6.717432    0.137752   -0.894031
      7          1           0        5.785970   -1.221903   -1.511539
      8          1           0        6.759432   -2.705992    0.273545
      9          1           0        7.696186   -1.338612    0.894563
     10          1           0        8.039362   -1.986776   -0.718330
     11          6           0        4.054448    0.508540   -0.201694
     12          6           0        2.923235    0.841411    0.771721
     13          6           0        1.900108    1.811207    0.179688
     14          1           0        4.558606    1.438538   -0.498888
     15          1           0        3.626733    0.078452   -1.117680
     16          1           0        3.353707    1.270579    1.685572
     17          1           0        2.422245   -0.089076    1.068064
     18          1           0        1.443490    1.387287   -0.720530
     19          1           0        2.380245    2.754668   -0.099512
     20          1           0        1.100315    2.035451    0.892363
     21          6           0       -5.325973   -0.018404    0.020951
     22          6           0       -5.952716   -1.412912   -0.001932
     23          6           0       -7.465904   -1.384582    0.215456
     24          1           0       -5.550687    0.461895    0.983115
     25          1           0       -5.797288    0.600582   -0.755009
     26          1           0       -5.479394   -2.029503    0.772921
     27          1           0       -5.726322   -1.890022   -0.964080
     28          1           0       -7.956055   -0.792330   -0.564026
     29          1           0       -7.707723   -0.932605    1.182844
     30          1           0       -7.893312   -2.391943    0.195324
     31          6           0       -3.813704   -0.030271   -0.194984
     32          6           0       -3.186960    1.364237   -0.172101
     33          6           0       -1.673773    1.335906   -0.389489
     34          1           0       -3.342389   -0.649258    0.580976
     35          1           0       -3.588990   -0.510571   -1.157149
     36          1           0       -3.413354    1.841346    0.790046
     37          1           0       -3.660283    1.980827   -0.946954
     38          1           0       -1.431954    0.883929   -1.356877
     39          1           0       -1.183621    0.743655    0.389993
     40          1           0       -1.246364    2.343267   -0.369357
 ---------------------------------------------------------------------

 SCF Done:  E(RHF) =  -470.732649735     A.U. after   11 cycles
 E2 =    -0.1582545901D+01 EUMP2 =    -0.47231519563618D+03

 The electronic state is 1-A.
 Alpha  occ. eigenvalues --  -11.21592 -11.21573 -11.21543 -11.21523 -11.21386
 Alpha  occ. eigenvalues --  -11.21360 -11.21326 -11.21298 -11.21064 -11.21050
 Alpha  occ. eigenvalues --  -11.20982 -11.20893  -1.08410  -1.08376  -1.03529
 Alpha  occ. eigenvalues --   -1.03443  -0.96033  -0.95838  -0.87114  -0.86793
 Alpha  occ. eigenvalues --   -0.79675  -0.79427  -0.78229  -0.78184  -0.65043
 Alpha  occ. eigenvalues --   -0.65008  -0.60932  -0.60853  -0.59459  -0.59162
 Alpha  occ. eigenvalues --   -0.57565  -0.57530  -0.55286  -0.55178  -0.52956
 Alpha  occ. eigenvalues --   -0.52386  -0.52347  -0.52265  -0.49909  -0.49809
 Alpha  occ. eigenvalues --   -0.47887  -0.47841  -0.46599  -0.46562  -0.45776
 Alpha  occ. eigenvalues --   -0.45720  -0.45689  -0.45653  -0.43907  -0.43524
 Alpha virt. eigenvalues --    0.22365   0.22986   0.23616   0.24791   0.26458
 Alpha virt. eigenvalues --    0.26641   0.27060   0.27508   0.27552   0.29247
 Alpha virt. eigenvalues --    0.30390   0.30797   0.31440   0.32105   0.32210

 Mulliken charges:
               1
     1  C   -0.298204
     2  C   -0.299590
     3  C   -0.475667
     4  H    0.149513
     5  H    0.149372
     6  H    0.151862
     7  H    0.151869
     8  H    0.155116
     9  H    0.155118
    10  H    0.160146
    11  C   -0.298359
    12  C   -0.300421
    13  C   -0.477581
    14  H    0.149387
    15  H    0.149596
    16  H    0.151273
    17  H    0.151314
    18  H    0.159209
    19  H    0.153322
    20  H    0.162583
    21  C   -0.298184
    22  C   -0.299590
    23  C   -0.475683
    24  H    0.149587
    25  H    0.149512
    26  H    0.151832
    27  H    0.151853
    28  H    0.155176
    29  H    0.155163
    30  H    0.160190
    31  C   -0.298391
    32  C   -0.301324
    33  C   -0.474717
    34  H    0.149265
    35  H    0.149383
    36  H    0.151501
    37  H    0.151576
    38  H    0.153577
    39  H    0.156308
    40  H    0.163109
 Sum of Mulliken charges =  -0.00000

 Dipole moment (field-independent basis, Debye):
    X=             -0.0112    Y=              0.0155    Z=             -0.0084  Tot=              0.0209
 Quadrupole moment (field-independent basis, Debye-Ang):
   XX=            -86.6762   YY=            -84.6682   ZZ=            -83.7382
   XY=              0.8163   XZ=              0.2418   YZ=              0.4227

 Normal termination of Gaussian 16 at Wed May  5 21:25:16 2021.
