 Gaussian 16, Revision A.03,
 Gaussian 16:  EM64L-G16RevA.03 25-Dec-2016

 -------------
 #p 6-31g* mp2
 -------------

 ------------------------------------------------------
 Input file generated by CHIRIPA (05-May-2021 14:51:10)
 ------------------------------------------------------
 Symbolic Z-matrix:
 Charge =  0 Multiplicity = 1

                         Standard orientation:
 ---------------------------------------------------------------------
 Center     Atomic      Atomic             Coordinates (Angstroms)
 Number     Number       Type             X           Y           Z
 ---------------------------------------------------------------------
      1          6           0        1.925122   -0.423240    0.596646
      2          6           0        1.727452   -0.673600    2.092049
      3          6           0        0.407318   -1.379151    2.403876
      4          1           0        1.087663    0.178813    0.218306
      5          1           0        1.886272   -1.382991    0.063013
      6          1           0        1.768045    0.286196    2.622860
      7          1           0        2.565577   -1.274964    2.466913
      8          1           0        0.361137   -2.350155    1.900271
      9          1           0       -0.440926   -0.780124    2.057104
     10          1           0        0.286512   -1.548205    3.478439
     11          6           0        3.240373    0.281394    0.269029
     12          6           0        3.438043    0.531753   -1.226375
     13          6           0        4.758178    1.237305   -1.538202
     14          1           0        3.279224    1.241145    0.802661
     15          1           0        4.077832   -0.320659    0.647369
     16          1           0        2.599918    1.133118   -1.601238
     17          1           0        3.397450   -0.428043   -1.757185
     18          1           0        5.606422    0.638278   -1.191430
     19          1           0        4.804358    2.208309   -1.034597
     20          1           0        4.878983    1.406359   -2.612765
     21          6           0       -2.225491   -0.596414   -0.330554
     22          6           0       -2.558546   -1.633260   -1.403871
     23          6           0       -1.836202   -2.963055   -1.185562
     24          1           0       -1.139987   -0.427766   -0.316983
     25          1           0       -2.491227   -1.001503    0.655692
     26          1           0       -2.293543   -1.225792   -2.387924
     27          1           0       -3.643404   -1.799318   -1.415019
     28          1           0       -2.108598   -3.394978   -0.217139
     29          1           0       -0.751068   -2.818194   -1.195572
     30          1           0       -2.088674   -3.689620   -1.964165
     31          6           0       -2.940004    0.738260   -0.535120
     32          6           0       -2.606949    1.775106    0.538196
     33          6           0       -3.329294    3.104901    0.319888
     34          1           0       -2.674269    1.143350   -1.521366
     35          1           0       -4.025508    0.569612   -0.548691
     36          1           0       -1.522092    1.941164    0.549344
     37          1           0       -2.871952    1.367638    1.522249
     38          1           0       -4.414428    2.960040    0.329898
     39          1           0       -3.056898    3.536824   -0.648535
     40          1           0       -3.076821    3.831466    1.098491
 ---------------------------------------------------------------------

 SCF Done:  E(RHF) =  -470.732009472     A.U. after   11 cycles
 E2 =    -0.1585020480D+01 EUMP2 =    -0.47231702995189D+03

 The electronic state is 1-A.
 Alpha  occ. eigenvalues --  -11.21673 -11.21643 -11.21568 -11.21566 -11.21436
 Alpha  occ. eigenvalues --  -11.21390 -11.21377 -11.21272 -11.21119 -11.21100
 Alpha  occ. eigenvalues --  -11.21038 -11.20885  -1.08493  -1.08395  -1.03554
 Alpha  occ. eigenvalues --   -1.03501  -0.96000  -0.95949  -0.87018  -0.86968
 Alpha  occ. eigenvalues --   -0.79699  -0.79541  -0.78515  -0.78003  -0.65192
 Alpha  occ. eigenvalues --   -0.64969  -0.60940  -0.60924  -0.59410  -0.59285
 Alpha  occ. eigenvalues --   -0.57669  -0.57520  -0.55343  -0.55186  -0.52696
 Alpha  occ. eigenvalues --   -0.52650  -0.52491  -0.52333  -0.49993  -0.49848
 Alpha  occ. eigenvalues --   -0.48158  -0.47782  -0.46769  -0.46653  -0.46327
 Alpha  occ. eigenvalues --   -0.45746  -0.45644  -0.44894  -0.43787  -0.43772
 Alpha virt. eigenvalues --    0.20700   0.23010   0.23394   0.24077   0.25236
 Alpha virt. eigenvalues --    0.25567   0.26550   0.28071   0.28590   0.30160
 Alpha virt. eigenvalues --    0.30623   0.31387   0.31499   0.31781   0.32224

 Mulliken charges:
               1
     1  C   -0.304967
     2  C   -0.299124
     3  C   -0.482675
     4  H    0.153655
     5  H    0.149721
     6  H    0.151485
     7  H    0.151587
     8  H    0.155464
     9  H    0.164482
    10  H    0.158627
    11  C   -0.297458
    12  C   -0.299646
    13  C   -0.475703
    14  H    0.149616
    15  H    0.150043
    16  H    0.151205
    17  H    0.151886
    18  H    0.155393
    19  H    0.155277
    20  H    0.160309
    21  C   -0.309711
    22  C   -0.298497
    23  C   -0.477097
    24  H    0.160910
    25  H    0.151528
    26  H    0.151515
    27  H    0.151539
    28  H    0.155714
    29  H    0.156159
    30  H    0.159855
    31  C   -0.297300
    32  C   -0.302071
    33  C   -0.475537
    34  H    0.149082
    35  H    0.149608
    36  H    0.151386
    37  H    0.152425
    38  H    0.155664
    39  H    0.155328
    40  H    0.160326
 Sum of Mulliken charges =  -0.00000

 Dipole moment (field-independent basis, Debye):
    X=             -0.0176    Y=              0.0066    Z=             -0.0066  Tot=              0.0199
 Quadrupole moment (field-independent basis, Debye-Ang):
   XX=            -84.9723   YY=            -85.1813   ZZ=            -84.7264
   XY=             -0.1643   XZ=             -0.2262   YZ=              0.1341

 Normal termination of Gaussian 16 at Wed May  5 23:03:26 2021.
