 Gaussian 16, Revision A.03,
 Gaussian 16:  EM64L-G16RevA.03 25-Dec-2016

 -------------
 #p 6-31g* mp2
 -------------

 ------------------------------------------------------
 Input file generated by CHIRIPA (05-May-2021 14:51:08)
 ------------------------------------------------------
 Symbolic Z-matrix:
 Charge =  0 Multiplicity = 1

                         Standard orientation:
 ---------------------------------------------------------------------
 Center     Atomic      Atomic             Coordinates (Angstroms)
 Number     Number       Type             X           Y           Z
 ---------------------------------------------------------------------
      1          6           0        2.929380    0.767004   -0.233151
      2          6           0        2.361299    1.923624    0.589951
      3          6           0        0.917055    2.260553    0.217885
      4          1           0        2.874261    1.022884   -1.300125
      5          1           0        2.296734   -0.120159   -0.091391
      6          1           0        2.995617    2.807954    0.447767
      7          1           0        2.417953    1.665040    1.655099
      8          1           0        0.266240    1.394676    0.376932
      9          1           0        0.847186    2.544084   -0.837260
     10          1           0        0.530858    3.090085    0.818375
     11          6           0        4.372396    0.418384    0.127260
     12          6           0        4.940478   -0.738237   -0.695842
     13          6           0        6.384721   -1.075166   -0.323776
     14          1           0        5.005042    1.305546   -0.014500
     15          1           0        4.427515    0.162504    1.194234
     16          1           0        4.883823   -0.479653   -1.760990
     17          1           0        4.306159   -1.622567   -0.553658
     18          1           0        6.454590   -1.358696    0.731368
     19          1           0        7.035536   -0.209288   -0.482824
     20          1           0        6.770918   -1.904698   -0.924267
     21          6           0       -4.156277   -0.042532    0.212119
     22          6           0       -5.353217   -0.024970   -0.739201
     23          6           0       -6.355459    1.081179   -0.407924
     24          1           0       -4.516576   -0.168707    1.242268
     25          1           0       -3.652519    0.933280    0.174489
     26          1           0       -5.853750   -1.000988   -0.700824
     27          1           0       -4.990014    0.100987   -1.767225
     28          1           0       -5.877073    2.064271   -0.465182
     29          1           0       -6.745717    0.956035    0.607280
     30          1           0       -7.203056    1.075492   -1.100315
     31          6           0       -3.145499   -1.142856   -0.106227
     32          6           0       -1.948558   -1.160418    0.845092
     33          6           0       -0.946318   -2.266565    0.513815
     34          1           0       -3.649256   -2.118668   -0.068598
     35          1           0       -2.785200   -1.016680   -1.136377
     36          1           0       -2.311762   -1.286374    1.873117
     37          1           0       -1.448026   -0.184400    0.806715
     38          1           0       -0.556059   -2.141423   -0.501388
     39          1           0       -1.424703   -3.249657    0.571073
     40          1           0       -0.098719   -2.260879    1.206207
 ---------------------------------------------------------------------

 SCF Done:  E(RHF) =  -470.733411423     A.U. after   11 cycles
 E2 =    -0.1582770618D+01 EUMP2 =    -0.47231618204141D+03

 The electronic state is 1-A.
 Alpha  occ. eigenvalues --  -11.21619 -11.21613 -11.21592 -11.21589 -11.21402
 Alpha  occ. eigenvalues --  -11.21401 -11.21342 -11.21340 -11.21125 -11.21090
 Alpha  occ. eigenvalues --  -11.21064 -11.21057  -1.08440  -1.08423  -1.03557
 Alpha  occ. eigenvalues --   -1.03519  -0.95997  -0.95979  -0.87025  -0.86985
 Alpha  occ. eigenvalues --   -0.79646  -0.79559  -0.78263  -0.78222  -0.65136
 Alpha  occ. eigenvalues --   -0.64999  -0.61084  -0.60808  -0.59377  -0.59332
 Alpha  occ. eigenvalues --   -0.57630  -0.57566  -0.55329  -0.55229  -0.52689
 Alpha  occ. eigenvalues --   -0.52679  -0.52446  -0.52390  -0.50060  -0.49828
 Alpha  occ. eigenvalues --   -0.48018  -0.47835  -0.46780  -0.46476  -0.45849
 Alpha  occ. eigenvalues --   -0.45761  -0.45733  -0.45558  -0.43792  -0.43787
 Alpha virt. eigenvalues --    0.20679   0.23098   0.23686   0.24896   0.25875
 Alpha virt. eigenvalues --    0.26563   0.27060   0.27311   0.28604   0.28924
 Alpha virt. eigenvalues --    0.30480   0.31619   0.31692   0.31796   0.32044

 Mulliken charges:
               1
     1  C   -0.299782
     2  C   -0.298882
     3  C   -0.484322
     4  H    0.149414
     5  H    0.151123
     6  H    0.152006
     7  H    0.152001
     8  H    0.162666
     9  H    0.155071
    10  H    0.160434
    11  C   -0.298261
    12  C   -0.299768
    13  C   -0.475703
    14  H    0.149489
    15  H    0.149619
    16  H    0.151840
    17  H    0.152315
    18  H    0.155177
    19  H    0.155117
    20  H    0.160280
    21  C   -0.298638
    22  C   -0.299675
    23  C   -0.475746
    24  H    0.149556
    25  H    0.150273
    26  H    0.151820
    27  H    0.152043
    28  H    0.155380
    29  H    0.155114
    30  H    0.160198
    31  C   -0.297641
    32  C   -0.308745
    33  C   -0.476345
    34  H    0.149507
    35  H    0.149914
    36  H    0.152294
    37  H    0.159634
    38  H    0.155905
    39  H    0.155714
    40  H    0.159603
 Sum of Mulliken charges =  -0.00000

 Dipole moment (field-independent basis, Debye):
    X=             -0.0095    Y=             -0.0043    Z=             -0.0025  Tot=              0.0107
 Quadrupole moment (field-independent basis, Debye-Ang):
   XX=            -86.1844   YY=            -84.6381   ZZ=            -83.9385
   XY=              1.5248   XZ=             -0.6211   YZ=             -0.9040

 Normal termination of Gaussian 16 at Thu May  6 05:17:27 2021.
