 Gaussian 16, Revision A.03,
 Gaussian 16:  EM64L-G16RevA.03 25-Dec-2016

 -------------
 #p 6-31g* mp2
 -------------

 ------------------------------------------------------
 Input file generated by CHIRIPA (05-May-2021 14:57:21)
 ------------------------------------------------------
 Symbolic Z-matrix:
 Charge =  0 Multiplicity = 1

                         Standard orientation:
 ---------------------------------------------------------------------
 Center     Atomic      Atomic             Coordinates (Angstroms)
 Number     Number       Type             X           Y           Z
 ---------------------------------------------------------------------
      1          6           0        5.067728   -1.832228   -0.015533
      2          6           0        4.221712   -1.583464   -1.101302
      3          6           0        3.376503   -0.469836   -1.102261
      4          6           0        3.403176    0.378015    0.003961
      5          6           0        4.234754    0.157089    1.100757
      6          6           0        5.071542   -0.962691    1.080100
      7          1           0        5.721036   -2.699711   -0.023184
      8          1           0        4.216635   -2.257049   -1.953536
      9          1           0        2.711550   -0.253495   -1.929576
     10          1           0        4.217523    0.846572    1.936062
     11          1           0        5.727521   -1.153394    1.924711
     12          7           0        2.512848    1.560220    0.014388
     13          8           0        2.555167    2.291963    1.000997
     14          8           0        1.789549    1.732703   -0.964246
     15          6           0       -6.043288   -0.417930    0.304176
     16          6           0       -5.494977    0.819102   -0.050262
     17          6           0       -4.114856    0.960790   -0.222714
     18          6           0       -3.308863   -0.160478   -0.031866
     19          6           0       -3.825118   -1.406239    0.321476
     20          6           0       -5.208081   -1.524702    0.488589
     21          1           0       -7.116503   -0.518976    0.436066
     22          1           0       -6.141191    1.680352   -0.194138
     23          1           0       -3.663864    1.906746   -0.496924
     24          1           0       -3.155460   -2.246684    0.457967
     25          1           0       -5.631128   -2.486625    0.763868
     26          7           0       -1.846286   -0.022773   -0.211607
     27          8           0       -1.157716   -1.025886   -0.037618
     28          8           0       -1.416182    1.085665   -0.523073
 ---------------------------------------------------------------------

 SCF Done:  E(RHF) =  -868.335984868     A.U. after   16 cycles
 E2 =    -0.2600250266D+01 EUMP2 =    -0.87093623513365D+03

 The electronic state is 1-A.
 Alpha  occ. eigenvalues --  -20.60150 -20.60038 -20.59322 -20.59158 -15.85147
 Alpha  occ. eigenvalues --  -15.84292 -11.30726 -11.29959 -11.27351 -11.27289
 Alpha  occ. eigenvalues --  -11.27116 -11.26620 -11.26542 -11.26437 -11.26407
 Alpha  occ. eigenvalues --  -11.26368 -11.25718 -11.25671  -1.59175  -1.58294
 Alpha  occ. eigenvalues --   -1.38720  -1.37844  -1.18923  -1.18174  -1.08281
 Alpha  occ. eigenvalues --   -1.07524  -1.04357  -1.03636  -0.95077  -0.94307
 Alpha  occ. eigenvalues --   -0.85746  -0.85024  -0.81903  -0.81148  -0.76920
 Alpha  occ. eigenvalues --   -0.76131  -0.71366  -0.70524  -0.70502  -0.70033
 Alpha  occ. eigenvalues --   -0.69596  -0.69316  -0.64569  -0.64364  -0.63838
 Alpha  occ. eigenvalues --   -0.63668  -0.61700  -0.60987  -0.54858  -0.54166
 Alpha  occ. eigenvalues --   -0.52678  -0.52453  -0.51934  -0.51751  -0.48172
 Alpha  occ. eigenvalues --   -0.48107  -0.47288  -0.47254  -0.44079  -0.43130
 Alpha  occ. eigenvalues --   -0.36921  -0.36180  -0.35971  -0.35243
 Alpha virt. eigenvalues --    0.05620   0.06443   0.11679   0.12408   0.17070
 Alpha virt. eigenvalues --    0.17853   0.21787   0.22403   0.27681   0.28284
 Alpha virt. eigenvalues --    0.28707   0.29340   0.31318   0.31902   0.32969

 Mulliken charges:
               1
     1  C   -0.172004
     2  C   -0.218814
     3  C   -0.164814
     4  C    0.162106
     5  C   -0.171624
     6  C   -0.218932
     7  H    0.220844
     8  H    0.219762
     9  H    0.277851
    10  H    0.272699
    11  H    0.218782
    12  N    0.489102
    13  O   -0.469345
    14  O   -0.445787
    15  C   -0.171539
    16  C   -0.218661
    17  C   -0.171034
    18  C    0.158727
    19  C   -0.171725
    20  C   -0.218614
    21  H    0.223937
    22  H    0.222889
    23  H    0.278806
    24  H    0.273354
    25  H    0.221273
    26  N    0.486285
    27  O   -0.469777
    28  O   -0.443748
 Sum of Mulliken charges =  -0.00000

 Dipole moment (field-independent basis, Debye):
    X=             -2.2261    Y=             -4.3876    Z=              0.4064  Tot=              4.9368
 Quadrupole moment (field-independent basis, Debye-Ang):
   XX=            -52.3838   YY=           -103.8130   ZZ=           -101.6624
   XY=            -11.0300   XZ=             -0.3399   YZ=             -0.2634

 Normal termination of Gaussian 16 at Thu May  6 17:51:56 2021.
