 Gaussian 16, Revision A.03,
 Gaussian 16:  EM64L-G16RevA.03 25-Dec-2016

 -------------
 #p 6-31g* mp2
 -------------

 ------------------------------------------------------
 Input file generated by CHIRIPA (05-May-2021 14:55:25)
 ------------------------------------------------------
 Symbolic Z-matrix:
 Charge =  0 Multiplicity = 1

                         Standard orientation:
 ---------------------------------------------------------------------
 Center     Atomic      Atomic             Coordinates (Angstroms)
 Number     Number       Type             X           Y           Z
 ---------------------------------------------------------------------
      1          6           0       -6.253669    0.619537   -0.571709
      2          6           0       -5.347785    1.577531   -0.104654
      3          6           0       -4.056233    1.205386    0.279987
      4          6           0       -3.702465   -0.139590    0.184184
      5          6           0       -4.582348   -1.117486   -0.277136
      6          6           0       -5.868738   -0.722548   -0.656311
      7          1           0       -7.254973    0.917481   -0.868384
      8          1           0       -5.643976    2.620536   -0.037886
      9          1           0       -3.334922    1.926366    0.645112
     10          1           0       -4.258099   -2.149580   -0.332473
     11          1           0       -6.570163   -1.468706   -1.018660
     12          7           0       -2.337889   -0.545629    0.588492
     13          8           0       -2.050697   -1.736991    0.494617
     14          8           0       -1.581365    0.335169    0.991609
     15          6           0        5.695527    0.454121   -0.072089
     16          6           0        6.902327   -0.482225   -0.141915
     17          6           0        8.232466    0.254949    0.016512
     18          1           0        5.787625    1.219598   -0.854718
     19          1           0        5.708498    0.986591    0.889005
     20          1           0        6.886324   -1.013792   -1.102017
     21          1           0        6.807250   -1.245677    0.640848
     22          1           0        8.274099    0.771608    0.980842
     23          1           0        8.353621    1.004809   -0.771926
     24          1           0        9.081738   -0.433370   -0.036536
     25          6           0        4.358524   -0.268084   -0.228837
     26          6           0        3.151724    0.668261   -0.159010
     27          6           0        1.821586   -0.068913   -0.317437
     28          1           0        4.345554   -0.800555   -1.189931
     29          1           0        4.266427   -1.033562    0.553792
     30          1           0        3.246801    1.431713   -0.941773
     31          1           0        3.167729    1.199828    0.801092
     32          1           0        1.700431   -0.818772    0.471000
     33          1           0        1.779953   -0.585571   -1.281767
     34          1           0        0.972314    0.619406   -0.264390
 ---------------------------------------------------------------------

 SCF Done:  E(RHF) =  -669.535918497     A.U. after   15 cycles
 E2 =    -0.2090877315D+01 EUMP2 =    -0.67162679581203D+03

 The electronic state is 1-A.
 Alpha  occ. eigenvalues --  -20.60893 -20.60887 -15.85922 -11.31268 -11.27834
 Alpha  occ. eigenvalues --  -11.27829 -11.27574 -11.26845 -11.26835 -11.20974
 Alpha  occ. eigenvalues --  -11.20619 -11.20558 -11.20414 -11.20347 -11.19283
 Alpha  occ. eigenvalues --   -1.59947  -1.39505  -1.19437  -1.08837  -1.07531
 Alpha  occ. eigenvalues --   -1.04837  -1.02534  -0.95678  -0.94946  -0.86237
 Alpha  occ. eigenvalues --   -0.85955  -0.82509  -0.78630  -0.77559  -0.77311
 Alpha  occ. eigenvalues --   -0.72145  -0.71263  -0.70546  -0.65093  -0.64840
 Alpha  occ. eigenvalues --   -0.64174  -0.62185  -0.59941  -0.58385  -0.56551
 Alpha  occ. eigenvalues --   -0.55341  -0.54248  -0.53169  -0.52930  -0.51620
 Alpha  occ. eigenvalues --   -0.51375  -0.49014  -0.48897  -0.48756  -0.46927
 Alpha  occ. eigenvalues --   -0.45695  -0.44921  -0.44832  -0.44767  -0.42731
 Alpha  occ. eigenvalues --   -0.37416  -0.36439
 Alpha virt. eigenvalues --    0.04948   0.11215   0.16429   0.21349   0.23697
 Alpha virt. eigenvalues --    0.25378   0.27264   0.27499   0.28206   0.28339
 Alpha virt. eigenvalues --    0.29146   0.30903   0.32377   0.32418   0.32588

 Mulliken charges:
               1
     1  C   -0.170672
     2  C   -0.218531
     3  C   -0.170883
     4  C    0.158341
     5  C   -0.170758
     6  C   -0.218561
     7  H    0.225879
     8  H    0.223707
     9  H    0.275546
    10  H    0.275873
    11  H    0.223732
    12  N    0.488828
    13  O   -0.458766
    14  O   -0.459701
    15  C   -0.297344
    16  C   -0.298968
    17  C   -0.475181
    18  H    0.147424
    19  H    0.148484
    20  H    0.150837
    21  H    0.151739
    22  H    0.154491
    23  H    0.153967
    24  H    0.158452
    25  C   -0.297284
    26  C   -0.300645
    27  C   -0.476045
    28  H    0.147237
    29  H    0.150046
    30  H    0.145450
    31  H    0.150521
    32  H    0.163222
    33  H    0.146018
    34  H    0.173545
 Sum of Mulliken charges =  -0.00000

 Dipole moment (field-independent basis, Debye):
    X=             -5.1681    Y=              1.3896    Z=             -1.3433  Tot=              5.5177
 Quadrupole moment (field-independent basis, Debye-Ang):
   XX=            -61.9835   YY=            -90.8745   ZZ=            -94.9679
   XY=             -4.0705   XZ=              4.9214   YZ=              1.5336

 Normal termination of Gaussian 16 at Thu May  6 09:34:05 2021.
