 Gaussian 16, Revision A.03,
 Gaussian 16:  EM64L-G16RevA.03 25-Dec-2016

 -------------
 #p 6-31g* mp2
 -------------

 ------------------------------------------------------
 Input file generated by CHIRIPA (05-May-2021 14:51:11)
 ------------------------------------------------------
 Symbolic Z-matrix:
 Charge =  0 Multiplicity = 1

                         Standard orientation:
 ---------------------------------------------------------------------
 Center     Atomic      Atomic             Coordinates (Angstroms)
 Number     Number       Type             X           Y           Z
 ---------------------------------------------------------------------
      1          6           0        4.218244   -0.391352    0.294498
      2          6           0        5.111692   -0.040862   -0.895836
      3          6           0        6.513764   -0.639493   -0.779091
      4          1           0        4.694118   -0.036651    1.218985
      5          1           0        4.145298   -1.484406    0.379983
      6          1           0        5.181811    1.051216   -0.979886
      7          1           0        4.633544   -0.396270   -1.817615
      8          1           0        6.462597   -1.731408   -0.718231
      9          1           0        7.013979   -0.275698    0.124258
     10          1           0        7.135588   -0.376485   -1.640498
     11          6           0        2.813364    0.199917    0.192311
     12          6           0        1.919917   -0.150573    1.382644
     13          6           0        0.517845    0.448057    1.265899
     14          1           0        2.886310    1.292970    0.106826
     15          1           0        2.337491   -0.154785   -0.732176
     16          1           0        2.398064    0.204834    2.304423
     17          1           0        1.849798   -1.242651    1.466694
     18          1           0        0.017630    0.084263    0.362551
     19          1           0        0.569011    1.539973    1.205039
     20          1           0       -0.103980    0.185050    2.127306
     21          6           0       -3.358401    0.733697   -0.632812
     22          6           0       -2.972447    1.911224    0.262987
     23          6           0       -2.660454    3.180329   -0.530631
     24          1           0       -2.540417    0.534673   -1.338671
     25          1           0       -4.232164    1.013124   -1.237671
     26          1           0       -2.100518    1.629174    0.866977
     27          1           0       -3.791365    2.107346    0.966923
     28          1           0       -3.529290    3.488868   -1.120993
     29          1           0       -1.828836    3.007980   -1.221506
     30          1           0       -2.386959    4.009477    0.129349
     31          6           0       -3.673207   -0.542262    0.146003
     32          6           0       -4.059162   -1.719788   -0.749795
     33          6           0       -4.371154   -2.988893    0.043822
     34          1           0       -2.799445   -0.821688    0.750863
     35          1           0       -4.491191   -0.343237    0.851863
     36          1           0       -3.240244   -1.915911   -1.453731
     37          1           0       -4.931091   -1.437740   -1.353786
     38          1           0       -5.202772   -2.816544    0.734697
     39          1           0       -3.502318   -3.297432    0.634184
     40          1           0       -4.644649   -3.818042   -0.616157
 ---------------------------------------------------------------------

 SCF Done:  E(RHF) =  -470.733096897     A.U. after   11 cycles
 E2 =    -0.1583209338D+01 EUMP2 =    -0.47231630623546D+03

 The electronic state is 1-A.
 Alpha  occ. eigenvalues --  -11.21682 -11.21640 -11.21562 -11.21466 -11.21407
 Alpha  occ. eigenvalues --  -11.21403 -11.21321 -11.21262 -11.21201 -11.21100
 Alpha  occ. eigenvalues --  -11.21046 -11.20973  -1.08496  -1.08344  -1.03609
 Alpha  occ. eigenvalues --   -1.03439  -0.96060  -0.95906  -0.87096  -0.86912
 Alpha  occ. eigenvalues --   -0.79717  -0.79475  -0.78315  -0.78140  -0.65139
 Alpha  occ. eigenvalues --   -0.64974  -0.60995  -0.60859  -0.59433  -0.59265
 Alpha  occ. eigenvalues --   -0.57662  -0.57511  -0.55406  -0.55133  -0.52798
 Alpha  occ. eigenvalues --   -0.52586  -0.52485  -0.52324  -0.49995  -0.49845
 Alpha  occ. eigenvalues --   -0.48038  -0.47784  -0.46708  -0.46522  -0.45908
 Alpha  occ. eigenvalues --   -0.45768  -0.45681  -0.45543  -0.43812  -0.43696
 Alpha virt. eigenvalues --    0.20880   0.22977   0.24078   0.24624   0.25935
 Alpha virt. eigenvalues --    0.26320   0.27027   0.27635   0.27812   0.29468
 Alpha virt. eigenvalues --    0.30720   0.31373   0.31695   0.31857   0.32291

 Mulliken charges:
               1
     1  C   -0.298375
     2  C   -0.299678
     3  C   -0.475747
     4  H    0.149834
     5  H    0.149627
     6  H    0.152053
     7  H    0.151965
     8  H    0.155237
     9  H    0.155258
    10  H    0.160406
    11  C   -0.298565
    12  C   -0.300932
    13  C   -0.479728
    14  H    0.149820
    15  H    0.149474
    16  H    0.152443
    17  H    0.152105
    18  H    0.157410
    19  H    0.156505
    20  H    0.161193
    21  C   -0.297741
    22  C   -0.309412
    23  C   -0.475404
    24  H    0.148601
    25  H    0.149114
    26  H    0.166368
    27  H    0.150687
    28  H    0.154607
    29  H    0.154834
    30  H    0.159378
    31  C   -0.300888
    32  C   -0.299384
    33  C   -0.475629
    34  H    0.151888
    35  H    0.149401
    36  H    0.151232
    37  H    0.151885
    38  H    0.155167
    39  H    0.154966
    40  H    0.160024
 Sum of Mulliken charges =  -0.00000

 Dipole moment (field-independent basis, Debye):
    X=              0.0667    Y=             -0.0014    Z=              0.0347  Tot=              0.0752
 Quadrupole moment (field-independent basis, Debye-Ang):
   XX=            -85.0385   YY=            -85.2300   ZZ=            -84.7382
   XY=              0.1861   XZ=              0.2230   YZ=              0.8832

 Normal termination of Gaussian 16 at Wed May  5 21:28:30 2021.
