 Gaussian 16, Revision A.03,
 Gaussian 16:  EM64L-G16RevA.03 25-Dec-2016

 -------------
 #p 6-31g* mp2
 -------------

 ------------------------------------------------------
 Input file generated by CHIRIPA (05-May-2021 14:51:10)
 ------------------------------------------------------
 Symbolic Z-matrix:
 Charge =  0 Multiplicity = 1

                         Standard orientation:
 ---------------------------------------------------------------------
 Center     Atomic      Atomic             Coordinates (Angstroms)
 Number     Number       Type             X           Y           Z
 ---------------------------------------------------------------------
      1          6           0       -3.177632    0.400302   -0.006487
      2          6           0       -3.127786   -0.813845   -0.934575
      3          6           0       -4.361296   -1.707975   -0.805039
      4          1           0       -3.275306    0.056090    1.032225
      5          1           0       -4.080808    0.985604   -0.228050
      6          1           0       -2.224256   -1.395935   -0.712267
      7          1           0       -3.030027   -0.466706   -1.971182
      8          1           0       -5.270277   -1.147797   -1.047023
      9          1           0       -4.459928   -2.082306    0.219045
     10          1           0       -4.304824   -2.569791   -1.477307
     11          6           0       -1.951428    1.303758   -0.124463
     12          6           0       -2.001273    2.517905    0.803625
     13          6           0       -0.767763    3.412035    0.674089
     14          1           0       -1.048252    0.718456    0.097099
     15          1           0       -1.853754    1.647971   -1.163175
     16          1           0       -2.099033    2.170767    1.840232
     17          1           0       -2.904803    3.099995    0.581316
     18          1           0       -0.669131    3.786366   -0.349996
     19          1           0        0.141217    2.851858    0.916073
     20          1           0       -0.824235    4.273851    1.346356
     21          6           0        3.212829   -0.464383    0.178919
     22          6           0        3.557060    0.489595   -0.965378
     23          6           0        4.856717    1.257920   -0.723790
     24          1           0        3.133979    0.107622    1.113552
     25          1           0        4.039783   -1.174827    0.316077
     26          1           0        2.729101    1.197154   -1.101244
     27          1           0        3.634912   -0.084719   -1.897428
     28          1           0        5.697645    0.566227   -0.609766
     29          1           0        4.786687    1.855384    0.190942
     30          1           0        5.083685    1.933973   -1.554029
     31          6           0        1.916230   -1.239677   -0.047969
     32          6           0        1.571999   -2.193656    1.096328
     33          6           0        0.272343   -2.961980    0.854741
     34          1           0        1.089277   -0.529234   -0.185125
     35          1           0        1.995080   -1.811682   -0.982602
     36          1           0        1.494148   -1.619341    2.028379
     37          1           0        2.399959   -2.901214    1.232195
     38          1           0        0.342371   -3.559444   -0.059991
     39          1           0       -0.568585   -2.270287    0.740716
     40          1           0        0.045374   -3.638033    1.684981
 ---------------------------------------------------------------------

 SCF Done:  E(RHF) =  -470.733008763     A.U. after   11 cycles
 E2 =    -0.1584133242D+01 EUMP2 =    -0.47231714200519D+03

 The electronic state is 1-A.
 Alpha  occ. eigenvalues --  -11.21656 -11.21650 -11.21596 -11.21566 -11.21447
 Alpha  occ. eigenvalues --  -11.21424 -11.21381 -11.21365 -11.21138 -11.21126
 Alpha  occ. eigenvalues --  -11.21062 -11.21047  -1.08488  -1.08436  -1.03571
 Alpha  occ. eigenvalues --   -1.03538  -0.96019  -0.95995  -0.87056  -0.86992
 Alpha  occ. eigenvalues --   -0.79664  -0.79577  -0.78394  -0.78158  -0.65294
 Alpha  occ. eigenvalues --   -0.64919  -0.61058  -0.60868  -0.59399  -0.59348
 Alpha  occ. eigenvalues --   -0.57671  -0.57562  -0.55362  -0.55240  -0.52701
 Alpha  occ. eigenvalues --   -0.52693  -0.52513  -0.52363  -0.50103  -0.49806
 Alpha  occ. eigenvalues --   -0.48067  -0.47848  -0.46801  -0.46605  -0.46215
 Alpha  occ. eigenvalues --   -0.45785  -0.45773  -0.45106  -0.43811  -0.43804
 Alpha virt. eigenvalues --    0.19662   0.22318   0.24080   0.24462   0.25393
 Alpha virt. eigenvalues --    0.26985   0.27075   0.27584   0.27906   0.29996
 Alpha virt. eigenvalues --    0.31361   0.31617   0.31674   0.31854   0.32151

 Mulliken charges:
               1
     1  C   -0.297743
     2  C   -0.307406
     3  C   -0.475268
     4  H    0.149322
     5  H    0.149902
     6  H    0.159192
     7  H    0.152050
     8  H    0.154995
     9  H    0.155204
    10  H    0.160483
    11  C   -0.307223
    12  C   -0.299164
    13  C   -0.476052
    14  H    0.156401
    15  H    0.150092
    16  H    0.151919
    17  H    0.152451
    18  H    0.155491
    19  H    0.154350
    20  H    0.160702
    21  C   -0.297758
    22  C   -0.300289
    23  C   -0.475679
    24  H    0.149154
    25  H    0.149698
    26  H    0.152895
    27  H    0.152000
    28  H    0.155066
    29  H    0.155244
    30  H    0.160392
    31  C   -0.306942
    32  C   -0.298986
    33  C   -0.482470
    34  H    0.156832
    35  H    0.150074
    36  H    0.151395
    37  H    0.152368
    38  H    0.155687
    39  H    0.160934
    40  H    0.160688
 Sum of Mulliken charges =  -0.00000

 Dipole moment (field-independent basis, Debye):
    X=             -0.0015    Y=             -0.0041    Z=             -0.0122  Tot=              0.0129
 Quadrupole moment (field-independent basis, Debye-Ang):
   XX=            -85.8341   YY=            -84.8168   ZZ=            -84.0273
   XY=             -1.8620   XZ=              0.0311   YZ=             -0.0784

 Normal termination of Gaussian 16 at Wed May  5 19:49:12 2021.
