 Gaussian 16, Revision A.03,
 Gaussian 16:  EM64L-G16RevA.03 25-Dec-2016

 -------------
 #p 6-31g* mp2
 -------------

 ------------------------------------------------------
 Input file generated by CHIRIPA (05-May-2021 14:57:22)
 ------------------------------------------------------
 Symbolic Z-matrix:
 Charge =  0 Multiplicity = 1

                         Standard orientation:
 ---------------------------------------------------------------------
 Center     Atomic      Atomic             Coordinates (Angstroms)
 Number     Number       Type             X           Y           Z
 ---------------------------------------------------------------------
      1          6           0       -1.204633    1.858845   -1.014303
      2          6           0       -2.568055    2.171086   -1.003974
      3          6           0       -3.505996    1.241006   -0.545972
      4          6           0       -3.043442    0.002645   -0.103484
      5          6           0       -1.691720   -0.338139   -0.101429
      6          6           0       -0.771580    0.607436   -0.563792
      7          1           0       -0.482932    2.587372   -1.371784
      8          1           0       -2.907246    3.142166   -1.353257
      9          1           0       -4.567415    1.456534   -0.527080
     10          1           0       -1.383901   -1.314394    0.252961
     11          1           0        0.286653    0.362200   -0.570673
     12          7           0       -4.026975   -0.990191    0.383691
     13          8           0       -3.593880   -2.074236    0.768284
     14          8           0       -5.212340   -0.665531    0.371721
     15          6           0        2.732840    2.094880    1.293301
     16          6           0        2.217393    0.964538    1.936079
     17          6           0        2.294160   -0.293320    1.330727
     18          6           0        2.895700   -0.384877    0.076512
     19          6           0        3.418488    0.722668   -0.589318
     20          6           0        3.330689    1.970556    0.034873
     21          1           0        2.668920    3.068141    1.770871
     22          1           0        1.752551    1.058101    2.913429
     23          1           0        1.903267   -1.184842    1.805920
     24          1           0        3.876126    0.597912   -1.563187
     25          1           0        3.731846    2.846669   -0.466667
     26          7           0        2.982810   -1.711236   -0.574319
     27          8           0        3.517612   -1.765315   -1.679624
     28          8           0        2.514635   -2.671645    0.033188
 ---------------------------------------------------------------------

 SCF Done:  E(RHF) =  -868.336562685     A.U. after   16 cycles
 E2 =    -0.2602964643D+01 EUMP2 =    -0.87093952732852D+03

 The electronic state is 1-A.
 Alpha  occ. eigenvalues --  -20.61669 -20.61664 -20.60700 -20.60688 -15.86728
 Alpha  occ. eigenvalues --  -15.85748 -11.32274 -11.31141 -11.28875 -11.28792
 Alpha  occ. eigenvalues --  -11.28569 -11.27909 -11.27805 -11.27713 -11.27640
 Alpha  occ. eigenvalues --  -11.27451 -11.26769 -11.26579  -1.60751  -1.59773
 Alpha  occ. eigenvalues --   -1.40293  -1.39324  -1.20509  -1.19304  -1.09822
 Alpha  occ. eigenvalues --   -1.08703  -1.05874  -1.04702  -0.96617  -0.95534
 Alpha  occ. eigenvalues --   -0.87242  -0.86107  -0.83414  -0.82365  -0.78453
 Alpha  occ. eigenvalues --   -0.77413  -0.72917  -0.72123  -0.71963  -0.71498
 Alpha  occ. eigenvalues --   -0.71099  -0.70429  -0.66081  -0.65805  -0.64951
 Alpha  occ. eigenvalues --   -0.64763  -0.63170  -0.62103  -0.56303  -0.55299
 Alpha  occ. eigenvalues --   -0.54396  -0.53901  -0.53042  -0.52474  -0.49701
 Alpha  occ. eigenvalues --   -0.49675  -0.48722  -0.48718  -0.45643  -0.44724
 Alpha  occ. eigenvalues --   -0.38495  -0.37644  -0.37242  -0.36206
 Alpha virt. eigenvalues --    0.04006   0.05137   0.10093   0.11335   0.15454
 Alpha virt. eigenvalues --    0.16639   0.20451   0.21524   0.26236   0.27074
 Alpha virt. eigenvalues --    0.27501   0.28322   0.30253   0.30968   0.31571

 Mulliken charges:
               1
     1  C   -0.175774
     2  C   -0.218619
     3  C   -0.172206
     4  C    0.159084
     5  C   -0.178543
     6  C   -0.220297
     7  H    0.221884
     8  H    0.221628
     9  H    0.274988
    10  H    0.279001
    11  H    0.235145
    12  N    0.487821
    13  O   -0.458680
    14  O   -0.461335
    15  C   -0.173304
    16  C   -0.211189
    17  C   -0.182236
    18  C    0.149300
    19  C   -0.177137
    20  C   -0.220150
    21  H    0.229780
    22  H    0.230304
    23  H    0.280358
    24  H    0.279162
    25  H    0.226588
    26  N    0.488366
    27  O   -0.457073
    28  O   -0.456867
 Sum of Mulliken charges =  -0.00000

 Dipole moment (field-independent basis, Debye):
    X=              3.4289    Y=              8.1129    Z=              0.7187  Tot=              8.8370
 Quadrupole moment (field-independent basis, Debye-Ang):
   XX=           -124.4826   YY=           -106.1324   ZZ=           -101.5848
   XY=              1.6714   XZ=             10.4141   YZ=             -3.2223

 Normal termination of Gaussian 16 at Thu May  6 21:07:54 2021.
