 Gaussian 16, Revision A.03,
 Gaussian 16:  EM64L-G16RevA.03 25-Dec-2016

 -------------
 #p 6-31g* mp2
 -------------

 ------------------------------------------------------
 Input file generated by CHIRIPA (05-May-2021 14:53:13)
 ------------------------------------------------------
 Symbolic Z-matrix:
 Charge =  0 Multiplicity = 1

                         Standard orientation:
 ---------------------------------------------------------------------
 Center     Atomic      Atomic             Coordinates (Angstroms)
 Number     Number       Type             X           Y           Z
 ---------------------------------------------------------------------
      1          6           0       -3.821874   -0.742639   -0.300722
      2          6           0       -2.478857   -1.435205   -0.066963
      3          6           0       -2.493100   -2.907323   -0.479831
      4          1           0       -4.603672   -1.274306    0.258800
      5          1           0       -4.088232   -0.823737   -1.363677
      6          1           0       -2.214447   -1.351621    0.994977
      7          1           0       -1.700133   -0.901713   -0.626954
      8          1           0       -2.732183   -3.006792   -1.543573
      9          1           0       -3.249420   -3.459257    0.087575
     10          1           0       -1.523151   -3.382940   -0.304192
     11          6           0       -3.823416    0.729555    0.107162
     12          6           0       -5.166432    1.422122   -0.126598
     13          6           0       -5.152190    2.894239    0.286270
     14          1           0       -3.557057    0.810654    1.170116
     15          1           0       -3.041617    1.261223   -0.452361
     16          1           0       -5.945157    0.888629    0.433393
     17          1           0       -5.430842    1.338538   -1.188538
     18          1           0       -4.395869    3.446173   -0.281135
     19          1           0       -4.913106    2.993708    1.350012
     20          1           0       -6.122138    3.369856    0.110631
     21          6           0        4.852222    1.577727   -0.565998
     22          6           0        4.084214    0.960722   -1.558966
     23          6           0        3.047931    0.087568   -1.215065
     24          6           0        2.806064   -0.146924    0.137638
     25          6           0        3.553630    0.452550    1.150093
     26          6           0        4.584951    1.322123    0.782985
     27          1           0        5.655305    2.254623   -0.842162
     28          1           0        4.289521    1.157363   -2.607406
     29          1           0        2.437816   -0.403566   -1.963373
     30          1           0        3.325167    0.236869    2.186773
     31          1           0        5.179767    1.799885    1.556277
     32          7           0        1.711625   -1.069398    0.513995
     33          8           0        1.518635   -1.259387    1.712868
     34          8           0        1.067516   -1.584976   -0.397015
 ---------------------------------------------------------------------

 SCF Done:  E(RHF) =  -669.536248461     A.U. after   15 cycles
 E2 =    -0.2091562964D+01 EUMP2 =    -0.67162781142446D+03

 The electronic state is 1-A.
 Alpha  occ. eigenvalues --  -20.61008 -20.60986 -15.86011 -11.31324 -11.27884
 Alpha  occ. eigenvalues --  -11.27879 -11.27618 -11.26887 -11.26877 -11.20963
 Alpha  occ. eigenvalues --  -11.20590 -11.20539 -11.20230 -11.19906 -11.19393
 Alpha  occ. eigenvalues --   -1.60044  -1.39603  -1.19489  -1.08896  -1.07405
 Alpha  occ. eigenvalues --   -1.04883  -1.02405  -0.95742  -0.94897  -0.86284
 Alpha  occ. eigenvalues --   -0.85937  -0.82576  -0.78548  -0.77631  -0.77116
 Alpha  occ. eigenvalues --   -0.72237  -0.71351  -0.70598  -0.65146  -0.64886
 Alpha  occ. eigenvalues --   -0.64054  -0.62231  -0.59819  -0.58330  -0.56441
 Alpha  occ. eigenvalues --   -0.55382  -0.54234  -0.53215  -0.52974  -0.51578
 Alpha  occ. eigenvalues --   -0.51330  -0.48991  -0.48955  -0.48911  -0.46844
 Alpha  occ. eigenvalues --   -0.45657  -0.45142  -0.44634  -0.44381  -0.42665
 Alpha  occ. eigenvalues --   -0.37465  -0.36483
 Alpha virt. eigenvalues --    0.04876   0.11172   0.16361   0.21300   0.23769
 Alpha virt. eigenvalues --    0.25467   0.27223   0.27609   0.28115   0.28579
 Alpha virt. eigenvalues --    0.29069   0.30864   0.32276   0.32501   0.32726

 Mulliken charges:
               1
     1  C   -0.298470
     2  C   -0.296959
     3  C   -0.478041
     4  H    0.145971
     5  H    0.144815
     6  H    0.155351
     7  H    0.159181
     8  H    0.146278
     9  H    0.146504
    10  H    0.177270
    11  C   -0.296765
    12  C   -0.298543
    13  C   -0.474938
    14  H    0.149440
    15  H    0.146235
    16  H    0.151239
    17  H    0.150133
    18  H    0.152986
    19  H    0.154530
    20  H    0.157958
    21  C   -0.170532
    22  C   -0.218527
    23  C   -0.170892
    24  C    0.158188
    25  C   -0.170588
    26  C   -0.218554
    27  H    0.226113
    28  H    0.223905
    29  H    0.275650
    30  H    0.275933
    31  H    0.223945
    32  N    0.489268
    33  O   -0.458767
    34  O   -0.459316
 Sum of Mulliken charges =  -0.00000

 Dipole moment (field-independent basis, Debye):
    X=              4.2667    Y=              3.1804    Z=             -1.2649  Tot=              5.4699
 Quadrupole moment (field-independent basis, Debye-Ang):
   XX=            -74.8721   YY=            -97.7350   ZZ=            -89.6769
   XY=              9.2783   XZ=             -2.5546   YZ=              0.8186

 Normal termination of Gaussian 16 at Wed May  5 17:01:52 2021.
