 Gaussian 16, Revision A.03,
 Gaussian 16:  EM64L-G16RevA.03 25-Dec-2016

 -------------
 #p 6-31g* mp2
 -------------

 ------------------------------------------------------
 Input file generated by CHIRIPA (05-May-2021 14:55:23)
 ------------------------------------------------------
 Symbolic Z-matrix:
 Charge =  0 Multiplicity = 1

                         Standard orientation:
 ---------------------------------------------------------------------
 Center     Atomic      Atomic             Coordinates (Angstroms)
 Number     Number       Type             X           Y           Z
 ---------------------------------------------------------------------
      1          6           0       -3.929002    1.254294   -0.877742
      2          6           0       -2.890210    1.685852   -0.046364
      3          6           0       -2.007308    0.763828    0.523639
      4          6           0       -2.193275   -0.588235    0.239679
      5          6           0       -3.218563   -1.049331   -0.584617
      6          6           0       -4.089580   -0.109516   -1.143746
      7          1           0       -4.610245    1.977454   -1.316310
      8          1           0       -2.763100    2.744382    0.161969
      9          1           0       -1.194563    1.070463    1.170817
     10          1           0       -3.319954   -2.111090   -0.773842
     11          1           0       -4.895424   -0.447549   -1.789032
     12          7           0       -1.264877   -1.573757    0.837360
     13          8           0       -1.450089   -2.759385    0.571612
     14          8           0       -0.369566   -1.141922    1.560253
     15          6           0        2.891400    1.274027   -0.379431
     16          6           0        2.093277    2.068809    0.654642
     17          6           0        1.877746    3.525438    0.242849
     18          1           0        3.864140    1.760298   -0.535196
     19          1           0        2.366207    1.309493   -1.343956
     20          1           0        2.619115    2.030699    1.617273
     21          1           0        1.122400    1.580483    0.808106
     22          1           0        1.332739    3.581202   -0.705022
     23          1           0        2.837957    4.033977    0.108743
     24          1           0        1.305048    4.075116    0.996328
     25          6           0        3.115091   -0.183957    0.018025
     26          6           0        3.913214   -0.978740   -1.016048
     27          6           0        4.128746   -2.435368   -0.604254
     28          1           0        3.640285   -0.219422    0.982550
     29          1           0        2.142351   -0.670229    0.173791
     30          1           0        4.884091   -0.490412   -1.169512
     31          1           0        3.387378   -0.940630   -1.978679
     32          1           0        3.168535   -2.943907   -0.470149
     33          1           0        4.673754   -2.491132    0.343616
     34          1           0        4.701444   -2.985046   -1.357734
 ---------------------------------------------------------------------

 SCF Done:  E(RHF) =  -669.535921517     A.U. after   15 cycles
 E2 =    -0.2092691908D+01 EUMP2 =    -0.67162861342537D+03

 The electronic state is 1-A.
 Alpha  occ. eigenvalues --  -20.61017 -20.61006 -15.86023 -11.31319 -11.27878
 Alpha  occ. eigenvalues --  -11.27859 -11.27606 -11.26881 -11.26866 -11.21378
 Alpha  occ. eigenvalues --  -11.21132 -11.20942 -11.20876 -11.20446 -11.20234
 Alpha  occ. eigenvalues --   -1.60066  -1.39623  -1.19485  -1.08894  -1.07876
 Alpha  occ. eigenvalues --   -1.04876  -1.03065  -0.95741  -0.95504  -0.86522
 Alpha  occ. eigenvalues --   -0.86277  -0.82573  -0.79160  -0.77732  -0.77501
 Alpha  occ. eigenvalues --   -0.72245  -0.71375  -0.70600  -0.65140  -0.64911
 Alpha  occ. eigenvalues --   -0.64497  -0.62244  -0.60458  -0.58921  -0.57096
 Alpha  occ. eigenvalues --   -0.55383  -0.54792  -0.53208  -0.52978  -0.52252
 Alpha  occ. eigenvalues --   -0.51907  -0.49446  -0.49021  -0.48997  -0.47443
 Alpha  occ. eigenvalues --   -0.46189  -0.45500  -0.45141  -0.44537  -0.43270
 Alpha  occ. eigenvalues --   -0.37461  -0.36468
 Alpha virt. eigenvalues --    0.04828   0.11116   0.16332   0.20681   0.23364
 Alpha virt. eigenvalues --    0.24505   0.26203   0.27507   0.27553   0.28466
 Alpha virt. eigenvalues --    0.29332   0.30907   0.31518   0.31894   0.32095

 Mulliken charges:
               1
     1  C   -0.170479
     2  C   -0.220236
     3  C   -0.174057
     4  C    0.156692
     5  C   -0.170594
     6  C   -0.218499
     7  H    0.226218
     8  H    0.224866
     9  H    0.283275
    10  H    0.275806
    11  H    0.223937
    12  N    0.487363
    13  O   -0.458410
    14  O   -0.459866
    15  C   -0.297441
    16  C   -0.304764
    17  C   -0.476477
    18  H    0.147465
    19  H    0.145453
    20  H    0.155283
    21  H    0.153585
    22  H    0.151543
    23  H    0.157429
    24  H    0.154452
    25  C   -0.306211
    26  C   -0.299189
    27  C   -0.476355
    28  H    0.149512
    29  H    0.169424
    30  H    0.147769
    31  H    0.148091
    32  H    0.163338
    33  H    0.154936
    34  H    0.156140
 Sum of Mulliken charges =  -0.00000

 Dipole moment (field-independent basis, Debye):
    X=             -3.4286    Y=              3.2929    Z=             -2.0124  Tot=              5.1622
 Quadrupole moment (field-independent basis, Debye-Ang):
   XX=            -79.2445   YY=            -97.7992   ZZ=            -95.3335
   XY=             -3.3826   XZ=              6.0882   YZ=              4.2000

 Normal termination of Gaussian 16 at Wed May  5 19:06:33 2021.
