 Gaussian 16, Revision A.03,
 Gaussian 16:  EM64L-G16RevA.03 25-Dec-2016

 -------------
 #p 6-31g* mp2
 -------------

 ------------------------------------------------------
 Input file generated by CHIRIPA (05-May-2021 14:55:21)
 ------------------------------------------------------
 Symbolic Z-matrix:
 Charge =  0 Multiplicity = 1

                         Standard orientation:
 ---------------------------------------------------------------------
 Center     Atomic      Atomic             Coordinates (Angstroms)
 Number     Number       Type             X           Y           Z
 ---------------------------------------------------------------------
      1          6           0       -4.433476    1.160799   -0.105611
      2          6           0       -3.220755    1.453839   -0.738033
      3          6           0       -2.173854    0.527294   -0.730201
      4          6           0       -2.374961   -0.687990   -0.077568
      5          6           0       -3.571476   -1.009280    0.561505
      6          6           0       -4.604664   -0.067659    0.541000
      7          1           0       -5.241407    1.886417   -0.116618
      8          1           0       -3.084983    2.407075   -1.240976
      9          1           0       -1.224639    0.728277   -1.211881
     10          1           0       -3.677050   -1.967953    1.054679
     11          1           0       -5.545392   -0.297950    1.032977
     12          7           0       -1.273913   -1.676861   -0.062568
     13          8           0       -1.476224   -2.740403    0.519314
     14          8           0       -0.229449   -1.369673   -0.632977
     15          6           0        2.751942    1.153684   -0.181681
     16          6           0        2.394974    2.293096    0.773463
     17          6           0        1.352898    3.248313    0.190854
     18          1           0        3.126635    1.577128   -1.123617
     19          1           0        1.839628    0.594480   -0.431419
     20          1           0        3.307912    2.849137    1.022417
     21          1           0        2.021267    1.866886    1.713306
     22          1           0        0.426528    2.712902   -0.041044
     23          1           0        1.720484    3.700735   -0.735858
     24          1           0        1.112456    4.055153    0.890180
     25          6           0        3.792513    0.190347    0.386582
     26          6           0        4.149481   -0.949065   -0.568561
     27          6           0        5.191556   -1.904283    0.014047
     28          1           0        4.704826    0.749550    0.636322
     29          1           0        3.417819   -0.233098    1.328519
     30          1           0        4.523188   -0.522856   -1.508404
     31          1           0        3.236543   -1.505107   -0.817515
     32          1           0        4.823970   -2.356705    0.940760
     33          1           0        6.117925   -1.368873    0.245945
     34          1           0        5.431999   -2.711123   -0.685277
 ---------------------------------------------------------------------

 SCF Done:  E(RHF) =  -669.536505093     A.U. after   15 cycles
 E2 =    -0.2092106428D+01 EUMP2 =    -0.67162861152178D+03

 The electronic state is 1-A.
 Alpha  occ. eigenvalues --  -20.61027 -20.61019 -15.86052 -11.31333 -11.27889
 Alpha  occ. eigenvalues --  -11.27884 -11.27613 -11.26891 -11.26879 -11.21211
 Alpha  occ. eigenvalues --  -11.21073 -11.20576 -11.20539 -11.20487 -11.20182
 Alpha  occ. eigenvalues --   -1.60081  -1.39639  -1.19496  -1.08906  -1.07685
 Alpha  occ. eigenvalues --   -1.04886  -1.02894  -0.95756  -0.95372  -0.86407
 Alpha  occ. eigenvalues --   -0.86286  -0.82592  -0.78969  -0.77689  -0.77403
 Alpha  occ. eigenvalues --   -0.72278  -0.71391  -0.70604  -0.65156  -0.64889
 Alpha  occ. eigenvalues --   -0.64289  -0.62239  -0.60283  -0.58780  -0.56964
 Alpha  occ. eigenvalues --   -0.55392  -0.54670  -0.53214  -0.52975  -0.52115
 Alpha  occ. eigenvalues --   -0.51814  -0.49370  -0.49025  -0.49013  -0.47288
 Alpha  occ. eigenvalues --   -0.45975  -0.45213  -0.45005  -0.44642  -0.43100
 Alpha  occ. eigenvalues --   -0.37469  -0.36478
 Alpha virt. eigenvalues --    0.04818   0.11132   0.16303   0.20430   0.23354
 Alpha virt. eigenvalues --    0.24479   0.26105   0.27428   0.27807   0.28587
 Alpha virt. eigenvalues --    0.29427   0.30928   0.31499   0.32120   0.32570

 Mulliken charges:
               1
     1  C   -0.170438
     2  C   -0.219088
     3  C   -0.172695
     4  C    0.157814
     5  C   -0.170731
     6  C   -0.218407
     7  H    0.226316
     8  H    0.225092
     9  H    0.278831
    10  H    0.275836
    11  H    0.224014
    12  N    0.491597
    13  O   -0.458459
    14  O   -0.464540
    15  C   -0.311240
    16  C   -0.298375
    17  C   -0.475632
    18  H    0.144429
    19  H    0.171614
    20  H    0.150640
    21  H    0.152336
    22  H    0.145847
    23  H    0.154212
    24  H    0.158620
    25  C   -0.295845
    26  C   -0.304886
    27  C   -0.475334
    28  H    0.144274
    29  H    0.151097
    30  H    0.146782
    31  H    0.170441
    32  H    0.156294
    33  H    0.150575
    34  H    0.159010
 Sum of Mulliken charges =  -0.00000

 Dipole moment (field-independent basis, Debye):
    X=             -4.1086    Y=              3.2763    Z=             -0.0610  Tot=              5.2553
 Quadrupole moment (field-independent basis, Debye-Ang):
   XX=            -75.7205   YY=            -98.6412   ZZ=            -93.9820
   XY=             -3.0062   XZ=             -1.8818   YZ=             -2.2215

 Normal termination of Gaussian 16 at Thu May  6 10:53:12 2021.
