 Gaussian 16, Revision A.03,
 Gaussian 16:  EM64L-G16RevA.03 25-Dec-2016

 -------------
 #p 6-31g* mp2
 -------------

 ------------------------------------------------------
 Input file generated by CHIRIPA (05-May-2021 14:57:25)
 ------------------------------------------------------
 Symbolic Z-matrix:
 Charge =  0 Multiplicity = 1

                         Standard orientation:
 ---------------------------------------------------------------------
 Center     Atomic      Atomic             Coordinates (Angstroms)
 Number     Number       Type             X           Y           Z
 ---------------------------------------------------------------------
      1          6           0        4.739727   -2.134109    0.012399
      2          6           0        3.719453   -1.862067    0.929762
      3          6           0        3.120276   -0.599614    0.971586
      4          6           0        3.568000    0.371705    0.077510
      5          6           0        4.582319    0.131323   -0.848051
      6          6           0        5.167150   -1.138301   -0.872021
      7          1           0        5.199610   -3.117598   -0.013156
      8          1           0        3.385488   -2.633497    1.617808
      9          1           0        2.328469   -0.361955    1.671569
     10          1           0        4.893917    0.920622   -1.521350
     11          1           0        5.959304   -1.346737   -1.585527
     12          7           0        2.941271    1.712003    0.112336
     13          8           0        3.353711    2.550600   -0.685966
     14          8           0        2.049469    1.898554    0.937275
     15          6           0       -1.149050   -0.215374   -0.064635
     16          6           0       -1.878992   -1.395462   -0.240987
     17          6           0       -3.276828   -1.371557   -0.246668
     18          6           0       -3.915133   -0.144566   -0.072459
     19          6           0       -3.215882    1.048186    0.105532
     20          6           0       -1.818644    1.000539    0.107757
     21          1           0       -0.063410   -0.243165   -0.061564
     22          1           0       -1.361643   -2.341194   -0.375096
     23          1           0       -3.866637   -2.270140   -0.381174
     24          1           0       -3.759696    1.975787    0.236831
     25          1           0       -1.254352    1.918583    0.244926
     26          7           0       -5.394643   -0.106693   -0.076644
     27          8           0       -5.933270    0.987080    0.078848
     28          8           0       -5.987638   -1.171497   -0.235338
 ---------------------------------------------------------------------

 SCF Done:  E(RHF) =  -868.339593461     A.U. after   16 cycles
 E2 =    -0.2599677011D+01 EUMP2 =    -0.87093927047195D+03

 The electronic state is 1-A.
 Alpha  occ. eigenvalues --  -20.62082 -20.62014 -20.60400 -20.60387 -15.87065
 Alpha  occ. eigenvalues --  -15.85444 -11.32297 -11.30721 -11.28853 -11.28770
 Alpha  occ. eigenvalues --  -11.28480 -11.27803 -11.27748 -11.27316 -11.27188
 Alpha  occ. eigenvalues --  -11.26935 -11.26351 -11.26067  -1.61107  -1.59473
 Alpha  occ. eigenvalues --   -1.40665  -1.39029  -1.20433  -1.18865  -1.09844
 Alpha  occ. eigenvalues --   -1.08270  -1.05801  -1.04242  -0.96704  -0.95127
 Alpha  occ. eigenvalues --   -0.87203  -0.85631  -0.83533  -0.81958  -0.78615
 Alpha  occ. eigenvalues --   -0.77021  -0.73279  -0.72436  -0.71663  -0.71507
 Alpha  occ. eigenvalues --   -0.70795  -0.69956  -0.66072  -0.65776  -0.64505
 Alpha  occ. eigenvalues --   -0.64206  -0.63141  -0.61575  -0.56273  -0.54772
 Alpha  occ. eigenvalues --   -0.54118  -0.53860  -0.52597  -0.52305  -0.50053
 Alpha  occ. eigenvalues --   -0.50021  -0.48425  -0.48411  -0.46082  -0.44455
 Alpha  occ. eigenvalues --   -0.38386  -0.37402  -0.36845  -0.35849
 Alpha virt. eigenvalues --    0.03860   0.05483   0.10113   0.11805   0.15399
 Alpha virt. eigenvalues --    0.16985   0.20345   0.21984   0.26202   0.27047
 Alpha virt. eigenvalues --    0.27987   0.28366   0.30392   0.31070   0.32238

 Mulliken charges:
               1
     1  C   -0.170197
     2  C   -0.219023
     3  C   -0.179479
     4  C    0.157612
     5  C   -0.170187
     6  C   -0.217658
     7  H    0.229464
     8  H    0.226446
     9  H    0.275314
    10  H    0.278366
    11  H    0.227538
    12  N    0.488127
    13  O   -0.452872
    14  O   -0.467710
    15  C   -0.174900
    16  C   -0.219780
    17  C   -0.172267
    18  C    0.158413
    19  C   -0.172216
    20  C   -0.221483
    21  H    0.224591
    22  H    0.217615
    23  H    0.272814
    24  H    0.275738
    25  H    0.240771
    26  N    0.488063
    27  O   -0.460389
    28  O   -0.462713
 Sum of Mulliken charges =  -0.00000

 Dipole moment (field-independent basis, Debye):
    X=              7.9192    Y=             -4.7127    Z=             -0.1563  Tot=              9.2167
 Quadrupole moment (field-independent basis, Debye-Ang):
   XX=           -128.1987   YY=           -103.1421   ZZ=           -103.1439
   XY=            -15.9469   XZ=             -3.6623   YZ=             -0.9861

 Normal termination of Gaussian 16 at Fri May  7 00:27:00 2021.
