 Gaussian 16, Revision A.03,
 Gaussian 16:  EM64L-G16RevA.03 25-Dec-2016

 -------------
 #p 6-31g* mp2
 -------------

 ------------------------------------------------------
 Input file generated by CHIRIPA (05-May-2021 14:51:09)
 ------------------------------------------------------
 Symbolic Z-matrix:
 Charge =  0 Multiplicity = 1

                         Standard orientation:
 ---------------------------------------------------------------------
 Center     Atomic      Atomic             Coordinates (Angstroms)
 Number     Number       Type             X           Y           Z
 ---------------------------------------------------------------------
      1          6           0        2.991243    1.129036   -0.390826
      2          6           0        1.853028    1.912556    0.263809
      3          6           0        2.028984    3.426231    0.138821
      4          1           0        3.944230    1.427860    0.066846
      5          1           0        3.054115    1.405373   -1.452466
      6          1           0        1.791431    1.633794    1.323580
      7          1           0        0.902620    1.611692   -0.195343
      8          1           0        2.068368    3.723850   -0.914019
      9          1           0        2.962229    3.746078    0.613534
     10          1           0        1.204225    3.966831    0.613570
     11          6           0        2.829559   -0.385553   -0.274176
     12          6           0        3.967773   -1.169074   -0.928811
     13          6           0        3.791818   -2.682748   -0.803823
     14          1           0        2.766687   -0.661891    0.787464
     15          1           0        1.876571   -0.684378   -0.731849
     16          1           0        4.918182   -0.868209   -0.469659
     17          1           0        4.029370   -0.890311   -1.988582
     18          1           0        2.858573   -3.002595   -1.278536
     19          1           0        3.752434   -2.980367    0.249017
     20          1           0        4.616576   -3.223348   -1.278572
     21          6           0       -2.258683   -0.142727    0.658459
     22          6           0       -1.577357   -1.234488    1.484193
     23          6           0       -0.274790   -0.761111    2.129972
     24          1           0       -1.566485    0.204536   -0.120781
     25          1           0       -2.461903    0.722718    1.304293
     26          1           0       -1.376733   -2.098153    0.837316
     27          1           0       -2.271327   -1.579326    2.261437
     28          1           0       -0.461550    0.086143    2.797716
     29          1           0        0.438127   -0.435631    1.365503
     30          1           0        0.195526   -1.557266    2.715462
     31          6           0       -3.562119   -0.600756    0.006543
     32          6           0       -4.243445    0.491005   -0.819191
     33          6           0       -5.546010    0.017628   -1.464970
     34          1           0       -3.358898   -1.466201   -0.639290
     35          1           0       -4.254317   -0.948017    0.785783
     36          1           0       -3.549476    0.835843   -1.596436
     37          1           0       -4.444069    1.354670   -0.172315
     38          1           0       -6.258929   -0.307851   -0.700501
     39          1           0       -5.359252   -0.829625   -2.132713
     40          1           0       -6.016328    0.813784   -2.050460
 ---------------------------------------------------------------------

 SCF Done:  E(RHF) =  -470.731584368     A.U. after   11 cycles
 E2 =    -0.1584774878D+01 EUMP2 =    -0.47231635924611D+03

 The electronic state is 1-A.
 Alpha  occ. eigenvalues --  -11.21632 -11.21596 -11.21575 -11.21512 -11.21438
 Alpha  occ. eigenvalues --  -11.21380 -11.21378 -11.21320 -11.21095 -11.21067
 Alpha  occ. eigenvalues --  -11.21061 -11.20799  -1.08494  -1.08375  -1.03557
 Alpha  occ. eigenvalues --   -1.03460  -0.96020  -0.95904  -0.87020  -0.86945
 Alpha  occ. eigenvalues --   -0.79693  -0.79533  -0.78420  -0.78062  -0.65115
 Alpha  occ. eigenvalues --   -0.65012  -0.60952  -0.60876  -0.59430  -0.59240
 Alpha  occ. eigenvalues --   -0.57661  -0.57511  -0.55297  -0.55210  -0.52753
 Alpha  occ. eigenvalues --   -0.52613  -0.52427  -0.52315  -0.49946  -0.49895
 Alpha  occ. eigenvalues --   -0.48143  -0.47758  -0.46800  -0.46609  -0.46032
 Alpha  occ. eigenvalues --   -0.45751  -0.45651  -0.45057  -0.43797  -0.43729
 Alpha virt. eigenvalues --    0.21214   0.23206   0.23795   0.24280   0.25270
 Alpha virt. eigenvalues --    0.26046   0.27169   0.27747   0.28284   0.29838
 Alpha virt. eigenvalues --    0.30587   0.31372   0.31636   0.31881   0.31975

 Mulliken charges:
               1
     1  C   -0.296756
     2  C   -0.307170
     3  C   -0.475059
     4  H    0.149802
     5  H    0.149222
     6  H    0.156408
     7  H    0.154578
     8  H    0.154796
     9  H    0.155054
    10  H    0.160537
    11  C   -0.304222
    12  C   -0.298613
    13  C   -0.475681
    14  H    0.153876
    15  H    0.148867
    16  H    0.152183
    17  H    0.151834
    18  H    0.154894
    19  H    0.155517
    20  H    0.160370
    21  C   -0.300527
    22  C   -0.299206
    23  C   -0.486879
    24  H    0.150626
    25  H    0.149603
    26  H    0.151023
    27  H    0.151169
    28  H    0.152946
    29  H    0.173422
    30  H    0.157651
    31  C   -0.298142
    32  C   -0.299543
    33  C   -0.475670
    34  H    0.149247
    35  H    0.149864
    36  H    0.151474
    37  H    0.151969
    38  H    0.155245
    39  H    0.155101
    40  H    0.160187
 Sum of Mulliken charges =  -0.00000

 Dipole moment (field-independent basis, Debye):
    X=              0.0622    Y=              0.0199    Z=             -0.0059  Tot=              0.0656
 Quadrupole moment (field-independent basis, Debye-Ang):
   XX=            -85.1386   YY=            -86.0379   ZZ=            -83.7249
   XY=             -0.3637   XZ=             -0.3892   YZ=              0.2531

 Normal termination of Gaussian 16 at Wed May  5 15:06:42 2021.
