 Gaussian 16, Revision A.03,
 Gaussian 16:  EM64L-G16RevA.03 25-Dec-2016

 -------------
 #p 6-31g* mp2
 -------------

 ------------------------------------------------------
 Input file generated by CHIRIPA (05-May-2021 14:53:17)
 ------------------------------------------------------
 Symbolic Z-matrix:
 Charge =  0 Multiplicity = 1

                         Standard orientation:
 ---------------------------------------------------------------------
 Center     Atomic      Atomic             Coordinates (Angstroms)
 Number     Number       Type             X           Y           Z
 ---------------------------------------------------------------------
      1          6           0        3.218144   -0.333340   -0.251442
      2          6           0        4.474991   -1.196407   -0.367352
      3          6           0        4.174605   -2.616703   -0.847272
      4          1           0        2.513296   -0.814332    0.440498
      5          1           0        2.718081   -0.292966   -1.229042
      6          1           0        4.973281   -1.234007    0.609843
      7          1           0        5.177009   -0.713208   -1.058948
      8          1           0        3.698285   -2.597652   -1.832847
      9          1           0        3.493400   -3.121411   -0.154574
     10          1           0        5.087086   -3.216289   -0.922995
     11          6           0        3.502194    1.089309    0.227218
     12          6           0        2.245347    1.952376    0.343129
     13          6           0        2.545734    3.372672    0.823049
     14          1           0        4.002257    1.048935    1.204819
     15          1           0        4.207042    1.570301   -0.464721
     16          1           0        1.543330    1.469177    1.034725
     17          1           0        1.747058    1.989976   -0.634066
     18          1           0        3.226939    3.877380    0.130351
     19          1           0        3.022053    3.353621    1.808624
     20          1           0        1.633253    3.972258    0.898772
     21          6           0       -1.692133   -2.506757    0.787213
     22          6           0       -0.830680   -1.435299    0.529539
     23          6           0       -1.336539   -0.205426    0.098183
     24          6           0       -2.715331   -0.081505   -0.065728
     25          6           0       -3.599350   -1.130329    0.182806
     26          6           0       -3.071287   -2.351127    0.613331
     27          1           0       -1.290546   -3.458626    1.121978
     28          1           0        0.240824   -1.553283    0.663715
     29          1           0       -0.692335    0.640558   -0.108530
     30          1           0       -4.662891   -0.982371    0.039958
     31          1           0       -3.742683   -3.181507    0.812687
     32          7           0       -3.262614    1.215703   -0.521945
     33          8           0       -4.481205    1.299258   -0.658673
     34          8           0       -2.462622    2.124335   -0.734162
 ---------------------------------------------------------------------

 SCF Done:  E(RHF) =  -669.535552660     A.U. after   15 cycles
 E2 =    -0.2092376605D+01 EUMP2 =    -0.67162792926523D+03

 The electronic state is 1-A.
 Alpha  occ. eigenvalues --  -20.60693 -20.60688 -15.85744 -11.31072 -11.27657
 Alpha  occ. eigenvalues --  -11.27587 -11.27392 -11.26672 -11.26607 -11.22312
 Alpha  occ. eigenvalues --  -11.22250 -11.22154 -11.21968 -11.21779 -11.21275
 Alpha  occ. eigenvalues --   -1.59769  -1.39323  -1.19247  -1.09111  -1.08653
 Alpha  occ. eigenvalues --   -1.04643  -1.04102  -0.96540  -0.95491  -0.87554
 Alpha  occ. eigenvalues --   -0.86047  -0.82329  -0.80198  -0.78990  -0.77350
 Alpha  occ. eigenvalues --   -0.71964  -0.71091  -0.70361  -0.65762  -0.64898
 Alpha  occ. eigenvalues --   -0.64649  -0.61998  -0.61490  -0.59909  -0.58156
 Alpha  occ. eigenvalues --   -0.55838  -0.55161  -0.53186  -0.53053  -0.52978
 Alpha  occ. eigenvalues --   -0.52660  -0.50477  -0.48725  -0.48722  -0.48470
 Alpha  occ. eigenvalues --   -0.47229  -0.46468  -0.46375  -0.44736  -0.44377
 Alpha  occ. eigenvalues --   -0.37238  -0.36244
 Alpha virt. eigenvalues --    0.05141   0.11396   0.16622   0.19533   0.22788
 Alpha virt. eigenvalues --    0.23282   0.24634   0.25646   0.27396   0.28181
 Alpha virt. eigenvalues --    0.29421   0.30608   0.31211   0.31486   0.32031

 Mulliken charges:
               1
     1  C   -0.305312
     2  C   -0.299284
     3  C   -0.475913
     4  H    0.141805
     5  H    0.152448
     6  H    0.153605
     7  H    0.156206
     8  H    0.157301
     9  H    0.149261
    10  H    0.163657
    11  C   -0.297317
    12  C   -0.307299
    13  C   -0.476441
    14  H    0.151223
    15  H    0.154076
    16  H    0.146948
    17  H    0.157350
    18  H    0.157249
    19  H    0.155001
    20  H    0.168998
    21  C   -0.172145
    22  C   -0.226582
    23  C   -0.180430
    24  C    0.158453
    25  C   -0.170668
    26  C   -0.218883
    27  H    0.225570
    28  H    0.232557
    29  H    0.284541
    30  H    0.275104
    31  H    0.222896
    32  N    0.487757
    33  O   -0.460884
    34  O   -0.460847
 Sum of Mulliken charges =  -0.00000

 Dipole moment (field-independent basis, Debye):
    X=              2.1637    Y=             -4.4083    Z=              1.5446  Tot=              5.1478
 Quadrupole moment (field-independent basis, Debye-Ang):
   XX=           -100.2882   YY=            -94.3691   ZZ=            -94.9783
   XY=             14.6090   XZ=             -5.0649   YZ=             -0.5053

 Normal termination of Gaussian 16 at Thu May  6 17:16:57 2021.
