 Gaussian 16, Revision A.03,
 Gaussian 16:  EM64L-G16RevA.03 25-Dec-2016

 -------------
 #p 6-31g* mp2
 -------------

 ------------------------------------------------------
 Input file generated by CHIRIPA (05-May-2021 14:57:25)
 ------------------------------------------------------
 Symbolic Z-matrix:
 Charge =  0 Multiplicity = 1

                         Standard orientation:
 ---------------------------------------------------------------------
 Center     Atomic      Atomic             Coordinates (Angstroms)
 Number     Number       Type             X           Y           Z
 ---------------------------------------------------------------------
      1          6           0       -5.520634   -1.367299   -0.489500
      2          6           0       -4.336178   -1.813918    0.105576
      3          6           0       -3.271776   -0.932583    0.317341
      4          6           0       -3.426752    0.394591   -0.080002
      5          6           0       -4.594237    0.869793   -0.675360
      6          6           0       -5.645663   -0.029228   -0.877384
      7          1           0       -6.342447   -2.058810   -0.650221
      8          1           0       -4.236266   -2.852529    0.407819
      9          1           0       -2.343676   -1.251673    0.775850
     10          1           0       -4.664201    1.910958   -0.966044
     11          1           0       -6.564361    0.320418   -1.339756
     12          7           0       -2.306786    1.336983    0.139029
     13          8           0       -2.468338    2.501305   -0.219985
     14          8           0       -1.288611    0.893463    0.665572
     15          6           0        1.631271   -0.711135    1.606945
     16          6           0        2.031401   -1.654711    0.655063
     17          6           0        3.127046   -1.403908   -0.176326
     18          6           0        3.802761   -0.193656   -0.028029
     19          6           0        3.428438    0.766366    0.910870
     20          6           0        2.329835    0.494268    1.731591
     21          1           0        0.778999   -0.914235    2.248643
     22          1           0        1.490763   -2.591700    0.556031
     23          1           0        3.458287   -2.116822   -0.921611
     24          1           0        3.987139    1.691359    0.986094
     25          1           0        2.021339    1.228903    2.469958
     26          7           0        4.964238    0.083130   -0.902536
     27          8           0        5.542854    1.156999   -0.752049
     28          8           0        5.273992   -0.779035   -1.721902
 ---------------------------------------------------------------------

 SCF Done:  E(RHF) =  -868.338252436     A.U. after   16 cycles
 E2 =    -0.2599615935D+01 EUMP2 =    -0.87093786837162D+03

 The electronic state is 1-A.
 Alpha  occ. eigenvalues --  -20.61516 -20.61474 -20.60048 -20.60034 -15.86541
 Alpha  occ. eigenvalues --  -15.85094 -11.31835 -11.30275 -11.28456 -11.28347
 Alpha  occ. eigenvalues --  -11.28087 -11.27406 -11.27342 -11.26913 -11.26798
 Alpha  occ. eigenvalues --  -11.26538 -11.25903 -11.25706  -1.60562  -1.59123
 Alpha  occ. eigenvalues --   -1.40124  -1.38683  -1.19991  -1.18436  -1.09393
 Alpha  occ. eigenvalues --   -1.07851  -1.05389  -1.03830  -0.96248  -0.94722
 Alpha  occ. eigenvalues --   -0.86788  -0.85237  -0.83091  -0.81574  -0.78155
 Alpha  occ. eigenvalues --   -0.76655  -0.72786  -0.71873  -0.71320  -0.71099
 Alpha  occ. eigenvalues --   -0.70443  -0.69536  -0.65648  -0.65388  -0.64100
 Alpha  occ. eigenvalues --   -0.63854  -0.62749  -0.61206  -0.55873  -0.54320
 Alpha  occ. eigenvalues --   -0.53711  -0.53482  -0.52127  -0.51943  -0.49534
 Alpha  occ. eigenvalues --   -0.49498  -0.48082  -0.48060  -0.45543  -0.44131
 Alpha  occ. eigenvalues --   -0.37950  -0.36986  -0.36322  -0.35416
 Alpha virt. eigenvalues --    0.04386   0.05903   0.10671   0.12237   0.15902
 Alpha virt. eigenvalues --    0.17430   0.20362   0.22107   0.26206   0.27237
 Alpha virt. eigenvalues --    0.28166   0.29017   0.30764   0.31419   0.32936

 Mulliken charges:
               1
     1  C   -0.170233
     2  C   -0.217980
     3  C   -0.169688
     4  C    0.159148
     5  C   -0.170226
     6  C   -0.218106
     7  H    0.227694
     8  H    0.223330
     9  H    0.267163
    10  H    0.277471
    11  H    0.225881
    12  N    0.492215
    13  O   -0.456102
    14  O   -0.470018
    15  C   -0.154361
    16  C   -0.221248
    17  C   -0.171660
    18  C    0.157472
    19  C   -0.171228
    20  C   -0.210554
    21  H    0.223250
    22  H    0.213946
    23  H    0.271333
    24  H    0.274006
    25  H    0.225998
    26  N    0.488314
    27  O   -0.461689
    28  O   -0.464130
 Sum of Mulliken charges =  -0.00000

 Dipole moment (field-independent basis, Debye):
    X=             -8.4402    Y=             -4.0746    Z=              2.3571  Tot=              9.6641
 Quadrupole moment (field-independent basis, Debye-Ang):
   XX=           -108.5397   YY=           -100.9864   ZZ=           -104.3376
   XY=              5.7328   XZ=             17.0767   YZ=              0.0175

 Normal termination of Gaussian 16 at Wed May  5 16:28:34 2021.
