 Gaussian 16, Revision A.03,
 Gaussian 16:  EM64L-G16RevA.03 25-Dec-2016

 -------------
 #p 6-31g* mp2
 -------------

 ------------------------------------------------------
 Input file generated by CHIRIPA (05-May-2021 14:53:18)
 ------------------------------------------------------
 Symbolic Z-matrix:
 Charge =  0 Multiplicity = 1

                         Standard orientation:
 ---------------------------------------------------------------------
 Center     Atomic      Atomic             Coordinates (Angstroms)
 Number     Number       Type             X           Y           Z
 ---------------------------------------------------------------------
      1          6           0        3.303940   -0.566771   -0.048259
      2          6           0        3.609507   -1.785871    0.822608
      3          6           0        2.617812   -2.929572    0.607470
      4          1           0        2.285328   -0.216174    0.167282
      5          1           0        3.313792   -0.867966   -1.104942
      6          1           0        3.600447   -1.482173    1.877265
      7          1           0        4.627579   -2.133490    0.605107
      8          1           0        2.631976   -3.260580   -0.436002
      9          1           0        1.599007   -2.605562    0.843383
     10          1           0        2.854910   -3.790820    1.239842
     11          6           0        4.286656    0.584954    0.155522
     12          6           0        3.981089    1.804054   -0.715345
     13          6           0        4.972784    2.947754   -0.500206
     14          1           0        4.276804    0.886149    1.212205
     15          1           0        5.305268    0.234357   -0.060018
     16          1           0        2.963017    2.151673   -0.497844
     17          1           0        3.990149    1.500355   -1.770002
     18          1           0        5.991589    2.623745   -0.736120
     19          1           0        4.958620    3.278763    0.543266
     20          1           0        4.735686    3.809003   -1.132579
     21          6           0       -4.827063    1.607659    0.497986
     22          6           0       -5.049602    0.556868   -0.398025
     23          6           0       -4.025228   -0.343821   -0.704563
     24          6           0       -2.785067   -0.163212   -0.094094
     25          6           0       -2.532326    0.873712    0.802679
     26          6           0       -3.571349    1.762454    1.094427
     27          1           0       -5.628511    2.302695    0.730368
     28          1           0       -6.023795    0.434212   -0.862729
     29          1           0       -4.170139   -1.166135   -1.394647
     30          1           0       -1.550542    0.970271    1.250111
     31          1           0       -3.395653    2.577586    1.790657
     32          7           0       -1.692853   -1.110406   -0.410783
     33          8           0       -0.609270   -0.929583    0.140385
     34          8           0       -1.941040   -2.015705   -1.204176
 ---------------------------------------------------------------------

 SCF Done:  E(RHF) =  -669.536216121     A.U. after   15 cycles
 E2 =    -0.2091582127D+01 EUMP2 =    -0.67162779824754D+03

 The electronic state is 1-A.
 Alpha  occ. eigenvalues --  -20.61048 -20.61041 -15.86073 -11.31360 -11.27921
 Alpha  occ. eigenvalues --  -11.27912 -11.27648 -11.26917 -11.26907 -11.20933
 Alpha  occ. eigenvalues --  -11.20583 -11.20484 -11.20297 -11.20010 -11.19314
 Alpha  occ. eigenvalues --   -1.60098  -1.39658  -1.19523  -1.08933  -1.07378
 Alpha  occ. eigenvalues --   -1.04915  -1.02465  -0.95782  -0.94893  -0.86317
 Alpha  occ. eigenvalues --   -0.85904  -0.82621  -0.78591  -0.77683  -0.77095
 Alpha  occ. eigenvalues --   -0.72299  -0.71406  -0.70633  -0.65183  -0.64918
 Alpha  occ. eigenvalues --   -0.64017  -0.62263  -0.59868  -0.58338  -0.56489
 Alpha  occ. eigenvalues --   -0.55420  -0.54177  -0.53247  -0.53007  -0.51637
 Alpha  occ. eigenvalues --   -0.51294  -0.49156  -0.49047  -0.48734  -0.46849
 Alpha  occ. eigenvalues --   -0.45641  -0.45072  -0.44650  -0.44468  -0.42715
 Alpha  occ. eigenvalues --   -0.37499  -0.36514
 Alpha virt. eigenvalues --    0.04834   0.11142   0.16326   0.21227   0.23793
 Alpha virt. eigenvalues --    0.25415   0.27109   0.27473   0.28061   0.28791
 Alpha virt. eigenvalues --    0.29151   0.30875   0.32217   0.32491   0.32706

 Mulliken charges:
               1
     1  C   -0.302998
     2  C   -0.298167
     3  C   -0.482808
     4  H    0.166661
     5  H    0.148323
     6  H    0.145666
     7  H    0.145242
     8  H    0.153694
     9  H    0.180618
    10  H    0.150040
    11  C   -0.297534
    12  C   -0.297945
    13  C   -0.474900
    14  H    0.145344
    15  H    0.146641
    16  H    0.149396
    17  H    0.151963
    18  H    0.154629
    19  H    0.152868
    20  H    0.157176
    21  C   -0.170468
    22  C   -0.218573
    23  C   -0.170338
    24  C    0.157279
    25  C   -0.170479
    26  C   -0.218477
    27  H    0.226264
    28  H    0.224077
    29  H    0.276095
    30  H    0.275114
    31  H    0.224044
    32  N    0.494024
    33  O   -0.465099
    34  O   -0.457373
 Sum of Mulliken charges =  -0.00000

 Dipole moment (field-independent basis, Debye):
    X=             -4.3070    Y=              3.2996    Z=              1.0544  Tot=              5.5271
 Quadrupole moment (field-independent basis, Debye-Ang):
   XX=            -73.2985   YY=            -96.4402   ZZ=            -93.1975
   XY=             -7.8569   XZ=             -1.2926   YZ=              1.8516

 Normal termination of Gaussian 16 at Thu May  6 20:34:34 2021.
