 Gaussian 16, Revision A.03,
 Gaussian 16:  EM64L-G16RevA.03 25-Dec-2016

 -------------
 #p 6-31g* mp2
 -------------

 ------------------------------------------------------
 Input file generated by CHIRIPA (05-May-2021 14:51:10)
 ------------------------------------------------------
 Symbolic Z-matrix:
 Charge =  0 Multiplicity = 1

                         Standard orientation:
 ---------------------------------------------------------------------
 Center     Atomic      Atomic             Coordinates (Angstroms)
 Number     Number       Type             X           Y           Z
 ---------------------------------------------------------------------
      1          6           0        3.301541   -0.283834   -0.330616
      2          6           0        2.176958    0.473853    0.375931
      3          6           0        0.809590    0.235294   -0.265310
      4          1           0        3.332185    0.018876   -1.386254
      5          1           0        3.073102   -1.358590   -0.320146
      6          1           0        2.408127    1.546730    0.365348
      7          1           0        2.149111    0.169447    1.430055
      8          1           0        0.553174   -0.828788   -0.241228
      9          1           0        0.813661    0.556320   -1.311984
     10          1           0        0.020300    0.786335    0.255492
     11          6           0        4.674609   -0.055436    0.298867
     12          6           0        5.799192   -0.813123   -0.407679
     13          6           0        7.166559   -0.574564    0.233562
     14          1           0        4.903048    1.019320    0.288398
     15          1           0        4.643965   -0.358146    1.354506
     16          1           0        5.827038   -0.508716   -1.461803
     17          1           0        5.568022   -1.886000   -0.397096
     18          1           0        7.162489   -0.895590    1.280236
     19          1           0        7.422976    0.489519    0.209479
     20          1           0        7.955849   -1.125605   -0.287240
     21          6           0       -3.613812    0.729615    0.376125
     22          6           0       -3.130081    1.836496   -0.561321
     23          6           0       -2.383143    2.949579    0.174152
     24          1           0       -4.267485    1.167103    1.143108
     25          1           0       -2.750448    0.304669    0.906613
     26          1           0       -3.993937    2.258289   -1.090905
     27          1           0       -2.477638    1.396292   -1.326276
     28          1           0       -1.503914    2.548698    0.688792
     29          1           0       -3.028828    3.415592    0.925499
     30          1           0       -2.046272    3.730309   -0.514934
     31          6           0       -4.362338   -0.390346   -0.344377
     32          6           0       -4.846068   -1.497226    0.593070
     33          6           0       -5.593008   -2.610309   -0.142405
     34          1           0       -5.225702    0.034601   -0.874865
     35          1           0       -3.708666   -0.827834   -1.111359
     36          1           0       -5.498511   -1.057023    1.358024
     37          1           0       -3.982212   -1.919020    1.122654
     38          1           0       -4.947321   -3.076324   -0.893751
     39          1           0       -6.472236   -2.209428   -0.657043
     40          1           0       -5.929878   -3.391039    0.546681
 ---------------------------------------------------------------------

 SCF Done:  E(RHF) =  -470.733161497     A.U. after   11 cycles
 E2 =    -0.1582827652D+01 EUMP2 =    -0.47231598914960D+03

 The electronic state is 1-A.
 Alpha  occ. eigenvalues --  -11.21647 -11.21619 -11.21570 -11.21546 -11.21433
 Alpha  occ. eigenvalues --  -11.21373 -11.21360 -11.21301 -11.21122 -11.21084
 Alpha  occ. eigenvalues --  -11.21047 -11.21043  -1.08462  -1.08388  -1.03577
 Alpha  occ. eigenvalues --   -1.03485  -0.96031  -0.95934  -0.87041  -0.86960
 Alpha  occ. eigenvalues --   -0.79629  -0.79555  -0.78271  -0.78202  -0.65089
 Alpha  occ. eigenvalues --   -0.65038  -0.61011  -0.60933  -0.59393  -0.59266
 Alpha  occ. eigenvalues --   -0.57666  -0.57520  -0.55348  -0.55199  -0.52715
 Alpha  occ. eigenvalues --   -0.52640  -0.52471  -0.52324  -0.49966  -0.49876
 Alpha  occ. eigenvalues --   -0.47985  -0.47837  -0.46665  -0.46571  -0.45818
 Alpha  occ. eigenvalues --   -0.45745  -0.45739  -0.45652  -0.43796  -0.43736
 Alpha virt. eigenvalues --    0.20884   0.23004   0.23665   0.25024   0.26322
 Alpha virt. eigenvalues --    0.26576   0.26877   0.27647   0.27950   0.28896
 Alpha virt. eigenvalues --    0.30417   0.31049   0.31687   0.31788   0.32138

 Mulliken charges:
               1
     1  C   -0.298530
     2  C   -0.299555
     3  C   -0.483571
     4  H    0.149752
     5  H    0.149508
     6  H    0.152448
     7  H    0.151915
     8  H    0.154808
     9  H    0.155516
    10  H    0.167902
    11  C   -0.298281
    12  C   -0.299667
    13  C   -0.475725
    14  H    0.149668
    15  H    0.149696
    16  H    0.151981
    17  H    0.151926
    18  H    0.155210
    19  H    0.155245
    20  H    0.160309
    21  C   -0.299870
    22  C   -0.300960
    23  C   -0.478758
    24  H    0.149297
    25  H    0.150791
    26  H    0.151915
    27  H    0.154413
    28  H    0.157203
    29  H    0.155142
    30  H    0.160279
    31  C   -0.298266
    32  C   -0.299651
    33  C   -0.475691
    34  H    0.149304
    35  H    0.150205
    36  H    0.151780
    37  H    0.151918
    38  H    0.155183
    39  H    0.155123
    40  H    0.160089
 Sum of Mulliken charges =  -0.00000

 Dipole moment (field-independent basis, Debye):
    X=              0.0220    Y=              0.0023    Z=             -0.0087  Tot=              0.0238
 Quadrupole moment (field-independent basis, Debye-Ang):
   XX=            -85.4579   YY=            -84.7077   ZZ=            -84.6573
   XY=             -0.8721   XZ=             -0.7781   YZ=             -0.8212

 Normal termination of Gaussian 16 at Thu May  6 06:56:45 2021.
