 Gaussian 16, Revision A.03,
 Gaussian 16:  EM64L-G16RevA.03 25-Dec-2016

 -------------
 #p 6-31g* mp2
 -------------

 ------------------------------------------------------
 Input file generated by CHIRIPA (05-May-2021 14:57:25)
 ------------------------------------------------------
 Symbolic Z-matrix:
 Charge =  0 Multiplicity = 1

                         Standard orientation:
 ---------------------------------------------------------------------
 Center     Atomic      Atomic             Coordinates (Angstroms)
 Number     Number       Type             X           Y           Z
 ---------------------------------------------------------------------
      1          6           0       -3.618321   -2.461772   -0.153537
      2          6           0       -4.832733   -1.959469    0.325437
      3          6           0       -5.050585   -0.580534    0.400445
      4          6           0       -4.027720    0.271203   -0.013779
      5          6           0       -2.806887   -0.198608   -0.495583
      6          6           0       -2.611050   -1.581290   -0.561799
      7          1           0       -3.457640   -3.534417   -0.208390
      8          1           0       -5.616778   -2.640903    0.643189
      9          1           0       -5.981139   -0.164626    0.767200
     10          1           0       -2.044117    0.505540   -0.805061
     11          1           0       -1.666915   -1.968551   -0.934201
     12          7           0       -4.246697    1.733003    0.060974
     13          8           0       -3.329674    2.462395   -0.310097
     14          8           0       -5.331207    2.121691    0.489222
     15          6           0        1.514537   -0.460061   -0.186557
     16          6           0        2.278023   -0.187108   -1.326340
     17          6           0        3.651298    0.052550   -1.220390
     18          6           0        4.231106    0.011270    0.046658
     19          6           0        3.497299   -0.257925    1.200933
     20          6           0        2.125534   -0.494537    1.071225
     21          1           0        0.448329   -0.645050   -0.278089
     22          1           0        1.806191   -0.159692   -2.304435
     23          1           0        4.266076    0.266291   -2.086289
     24          1           0        3.995854   -0.278502    2.162410
     25          1           0        1.535087   -0.706261    1.958124
     26          7           0        5.684132    0.263372    0.171399
     27          8           0        6.171127    0.221301    1.299096
     28          8           0        6.308505    0.498267   -0.860890
 ---------------------------------------------------------------------

 SCF Done:  E(RHF) =  -868.336525837     A.U. after   16 cycles
 E2 =    -0.2600185846D+01 EUMP2 =    -0.87093671168348D+03

 The electronic state is 1-A.
 Alpha  occ. eigenvalues --  -20.61498 -20.61489 -20.60996 -20.60990 -15.86559
 Alpha  occ. eigenvalues --  -15.86051 -11.32091 -11.31525 -11.28779 -11.28633
 Alpha  occ. eigenvalues --  -11.28430 -11.28089 -11.28074 -11.27978 -11.27831
 Alpha  occ. eigenvalues --  -11.27645 -11.27195 -11.27157  -1.60570  -1.60068
 Alpha  occ. eigenvalues --   -1.40119  -1.39618  -1.20286  -1.19711  -1.09633
 Alpha  occ. eigenvalues --   -1.09116  -1.05738  -1.05120  -0.96444  -0.95932
 Alpha  occ. eigenvalues --   -0.87107  -0.86529  -0.83305  -0.82745  -0.78325
 Alpha  occ. eigenvalues --   -0.77752  -0.72771  -0.72270  -0.71898  -0.71397
 Alpha  occ. eigenvalues --   -0.71390  -0.70893  -0.65940  -0.65744  -0.65376
 Alpha  occ. eigenvalues --   -0.65136  -0.63090  -0.62458  -0.56211  -0.55698
 Alpha  occ. eigenvalues --   -0.54011  -0.53830  -0.53443  -0.53223  -0.49543
 Alpha  occ. eigenvalues --   -0.49517  -0.49038  -0.49016  -0.45489  -0.44999
 Alpha  occ. eigenvalues --   -0.38239  -0.37736  -0.37342  -0.36705
 Alpha virt. eigenvalues --    0.04217   0.04753   0.10318   0.10936   0.15537
 Alpha virt. eigenvalues --    0.16164   0.18317   0.21977   0.24895   0.26993
 Alpha virt. eigenvalues --    0.27264   0.29394   0.29942   0.31366   0.32151

 Mulliken charges:
               1
     1  C   -0.170110
     2  C   -0.218246
     3  C   -0.169317
     4  C    0.159231
     5  C   -0.173601
     6  C   -0.222847
     7  H    0.228731
     8  H    0.227116
     9  H    0.278837
    10  H    0.272340
    11  H    0.218241
    12  N    0.488143
    13  O   -0.459759
    14  O   -0.457243
    15  C   -0.175694
    16  C   -0.218873
    17  C   -0.169873
    18  C    0.159441
    19  C   -0.170063
    20  C   -0.218967
    21  H    0.220526
    22  H    0.222513
    23  H    0.277200
    24  H    0.277185
    25  H    0.225533
    26  N    0.487901
    27  O   -0.459131
    28  O   -0.459212
 Sum of Mulliken charges =  -0.00000

 Dipole moment (field-independent basis, Debye):
    X=             -4.4838    Y=             -6.0171    Z=             -0.6042  Tot=              7.5283
 Quadrupole moment (field-independent basis, Debye-Ang):
   XX=           -148.6291   YY=           -108.6568   ZZ=            -99.9361
   XY=             18.4498   XZ=             -3.5027   YZ=             -1.1903

 Normal termination of Gaussian 16 at Wed May  5 16:24:41 2021.
