 Gaussian 16, Revision A.03,
 Gaussian 16:  EM64L-G16RevA.03 25-Dec-2016

 -------------
 #p 6-31g* mp2
 -------------

 ------------------------------------------------------
 Input file generated by CHIRIPA (05-May-2021 14:53:12)
 ------------------------------------------------------
 Symbolic Z-matrix:
 Charge =  0 Multiplicity = 1

                         Standard orientation:
 ---------------------------------------------------------------------
 Center     Atomic      Atomic             Coordinates (Angstroms)
 Number     Number       Type             X           Y           Z
 ---------------------------------------------------------------------
      1          6           0        2.739900    0.519913   -0.219680
      2          6           0        3.110734    1.995878   -0.071372
      3          6           0        1.929154    2.931154   -0.330061
      4          1           0        2.347989    0.346741   -1.231293
      5          1           0        1.923741    0.282346    0.476626
      6          1           0        3.926887    2.230255   -0.766769
      7          1           0        3.501987    2.165518    0.939944
      8          1           0        1.114517    2.725942    0.371976
      9          1           0        1.541832    2.791048   -1.344434
     10          1           0        2.216530    3.981330   -0.218681
     11          6           0        3.910703   -0.427528    0.035864
     12          6           0        3.539869   -1.903492   -0.112443
     13          6           0        4.721449   -2.838769    0.146245
     14          1           0        4.726862   -0.189961   -0.660441
     15          1           0        4.302614   -0.254355    1.047478
     16          1           0        3.148616   -2.073132   -1.123759
     17          1           0        2.723716   -2.137870    0.582954
     18          1           0        5.108771   -2.698662    1.160619
     19          1           0        5.536086   -2.633557   -0.555791
     20          1           0        4.434073   -3.888945    0.034866
     21          6           0       -1.637042    2.268581    0.434006
     22          6           0       -1.766628    1.386837    1.512087
     23          6           0       -2.297663    0.107454    1.323074
     24          6           0       -2.690783   -0.258895    0.036787
     25          6           0       -2.574360    0.596933   -1.057423
     26          6           0       -2.040610    1.871514   -0.845053
     27          1           0       -1.223466    3.260572    0.589908
     28          1           0       -1.454041    1.692499    2.506524
     29          1           0       -2.409179   -0.595170    2.139960
     30          1           0       -2.894699    0.263720   -2.037102
     31          1           0       -1.941145    2.554190   -1.684162
     32          7           0       -3.254404   -1.610779   -0.175677
     33          8           0       -3.593367   -1.909459   -1.318713
     34          8           0       -3.346534   -2.346108    0.804854
 ---------------------------------------------------------------------

 SCF Done:  E(RHF) =  -669.534679274     A.U. after   15 cycles
 E2 =    -0.2092426973D+01 EUMP2 =    -0.67162710624778D+03

 The electronic state is 1-A.
 Alpha  occ. eigenvalues --  -20.60766 -20.60761 -15.85822 -11.31186 -11.27789
 Alpha  occ. eigenvalues --  -11.27770 -11.27493 -11.26791 -11.26754 -11.22107
 Alpha  occ. eigenvalues --  -11.21782 -11.21704 -11.21688 -11.21578 -11.21118
 Alpha  occ. eigenvalues --   -1.59842  -1.39396  -1.19376  -1.08790  -1.08710
 Alpha  occ. eigenvalues --   -1.04779  -1.03860  -0.96341  -0.95597  -0.87362
 Alpha  occ. eigenvalues --   -0.86176  -0.82437  -0.79940  -0.78504  -0.77475
 Alpha  occ. eigenvalues --   -0.72041  -0.71166  -0.70511  -0.65363  -0.65027
 Alpha  occ. eigenvalues --   -0.64781  -0.62127  -0.61271  -0.59708  -0.57938
 Alpha  occ. eigenvalues --   -0.55782  -0.55174  -0.53240  -0.53026  -0.52871
 Alpha  occ. eigenvalues --   -0.52619  -0.50270  -0.48798  -0.48794  -0.48233
 Alpha  occ. eigenvalues --   -0.46956  -0.46054  -0.45960  -0.44802  -0.44099
 Alpha  occ. eigenvalues --   -0.37264  -0.36386
 Alpha virt. eigenvalues --    0.05039   0.11198   0.16464   0.20962   0.22626
 Alpha virt. eigenvalues --    0.24116   0.26185   0.26759   0.27266   0.27394
 Alpha virt. eigenvalues --    0.28846   0.30357   0.31336   0.31506   0.32075

 Mulliken charges:
               1
     1  C   -0.298639
     2  C   -0.299046
     3  C   -0.479504
     4  H    0.150573
     5  H    0.150628
     6  H    0.153636
     7  H    0.151692
     8  H    0.151965
     9  H    0.153860
    10  H    0.158528
    11  C   -0.298680
    12  C   -0.300038
    13  C   -0.476014
    14  H    0.149700
    15  H    0.148950
    16  H    0.153470
    17  H    0.153299
    18  H    0.154645
    19  H    0.154913
    20  H    0.162516
    21  C   -0.168066
    22  C   -0.220903
    23  C   -0.170532
    24  C    0.158567
    25  C   -0.170860
    26  C   -0.218514
    27  H    0.228407
    28  H    0.223374
    29  H    0.275581
    30  H    0.275617
    31  H    0.223828
    32  N    0.488152
    33  O   -0.460470
    34  O   -0.460637
 Sum of Mulliken charges =  -0.00000

 Dipole moment (field-independent basis, Debye):
    X=              2.0013    Y=              4.6985    Z=              0.7213  Tot=              5.1577
 Quadrupole moment (field-independent basis, Debye-Ang):
   XX=           -106.7209   YY=            -98.4612   ZZ=            -89.0363
   XY=            -13.2084   XZ=             -1.6986   YZ=             -1.0532

 Normal termination of Gaussian 16 at Wed May  5 20:07:22 2021.
