 Gaussian 16, Revision A.03,
 Gaussian 16:  EM64L-G16RevA.03 25-Dec-2016

 -------------
 #p 6-31g* mp2
 -------------

 ------------------------------------------------------
 Input file generated by CHIRIPA (05-May-2021 14:53:13)
 ------------------------------------------------------
 Symbolic Z-matrix:
 Charge =  0 Multiplicity = 1

                         Standard orientation:
 ---------------------------------------------------------------------
 Center     Atomic      Atomic             Coordinates (Angstroms)
 Number     Number       Type             X           Y           Z
 ---------------------------------------------------------------------
      1          6           0        3.704685   -0.308237    0.208824
      2          6           0        5.105947   -0.854050    0.485479
      3          6           0        5.105316   -2.348909    0.806712
      4          1           0        3.065611   -0.496753    1.082317
      5          1           0        3.261046   -0.864037   -0.628831
      6          1           0        5.547348   -0.296459    1.321465
      7          1           0        5.741812   -0.664042   -0.388701
      8          1           0        4.689415   -2.922169   -0.028153
      9          1           0        4.493846   -2.552498    1.691730
     10          1           0        6.117094   -2.718186    1.001134
     11          6           0        3.688925    1.184858   -0.113894
     12          6           0        2.287663    1.730670   -0.390549
     13          6           0        2.288294    3.225529   -0.711783
     14          1           0        4.132563    1.740658    0.723761
     15          1           0        4.327999    1.373374   -0.987388
     16          1           0        1.651798    1.540662    0.483630
     17          1           0        1.846262    1.173079   -1.226536
     18          1           0        2.899764    3.429118   -1.596800
     19          1           0        2.704195    3.798790    0.123082
     20          1           0        1.276516    3.594807   -0.906205
     21          6           0       -5.038858    0.687155    0.787686
     22          6           0       -3.823613    1.350347    0.987373
     23          6           0       -2.625797    0.789272    0.534628
     24          6           0       -2.680205   -0.441966   -0.116817
     25          6           0       -3.875154   -1.127212   -0.330885
     26          6           0       -5.060711   -0.547332    0.130354
     27          1           0       -5.964590    1.130316    1.142689
     28          1           0       -3.803623    2.309185    1.497546
     29          1           0       -1.671026    1.281085    0.675884
     30          1           0       -3.863276   -2.081772   -0.842832
     31          1           0       -6.003023   -1.064641   -0.026124
     32          7           0       -1.418619   -1.045905   -0.600614
     33          8           0       -1.493403   -2.131688   -1.171682
     34          8           0       -0.378891   -0.422054   -0.399585
 ---------------------------------------------------------------------

 SCF Done:  E(RHF) =  -669.535520011     A.U. after   15 cycles
 E2 =    -0.2091634555D+01 EUMP2 =    -0.67162715456579D+03

 The electronic state is 1-A.
 Alpha  occ. eigenvalues --  -20.60890 -20.60884 -15.85922 -11.31270 -11.27837
 Alpha  occ. eigenvalues --  -11.27833 -11.27577 -11.26848 -11.26839 -11.20670
 Alpha  occ. eigenvalues --  -11.20366 -11.20333 -11.20279 -11.20215 -11.20149
 Alpha  occ. eigenvalues --   -1.59959  -1.39514  -1.19441  -1.08843  -1.07348
 Alpha  occ. eigenvalues --   -1.04841  -1.02553  -0.95682  -0.95045  -0.86240
 Alpha  occ. eigenvalues --   -0.86060  -0.82524  -0.78593  -0.77593  -0.77060
 Alpha  occ. eigenvalues --   -0.72134  -0.71275  -0.70549  -0.65096  -0.64844
 Alpha  occ. eigenvalues --   -0.63992  -0.62188  -0.59962  -0.58403  -0.56637
 Alpha  occ. eigenvalues --   -0.55344  -0.54349  -0.53172  -0.52932  -0.51777
 Alpha  occ. eigenvalues --   -0.51453  -0.49015  -0.48926  -0.48887  -0.46881
 Alpha  occ. eigenvalues --   -0.45619  -0.44947  -0.44653  -0.44490  -0.42787
 Alpha  occ. eigenvalues --   -0.37422  -0.36443
 Alpha virt. eigenvalues --    0.04950   0.11211   0.16432   0.21066   0.23715
 Alpha virt. eigenvalues --    0.24732   0.26687   0.27579   0.27986   0.28881
 Alpha virt. eigenvalues --    0.29118   0.30707   0.31701   0.32379   0.32705

 Mulliken charges:
               1
     1  C   -0.296848
     2  C   -0.299285
     3  C   -0.474788
     4  H    0.150926
     5  H    0.159967
     6  H    0.147631
     7  H    0.149238
     8  H    0.157570
     9  H    0.154299
    10  H    0.156115
    11  C   -0.299218
    12  C   -0.298112
    13  C   -0.475527
    14  H    0.143031
    15  H    0.145714
    16  H    0.151788
    17  H    0.168501
    18  H    0.153247
    19  H    0.149875
    20  H    0.152907
    21  C   -0.170589
    22  C   -0.218828
    23  C   -0.171371
    24  C    0.157477
    25  C   -0.170689
    26  C   -0.218624
    27  H    0.225909
    28  H    0.223892
    29  H    0.276847
    30  H    0.275754
    31  H    0.223712
    32  N    0.493681
    33  O   -0.459949
    34  O   -0.464252
 Sum of Mulliken charges =  -0.00000

 Dipole moment (field-independent basis, Debye):
    X=             -4.7118    Y=              1.9393    Z=              1.6243  Tot=              5.3479
 Quadrupole moment (field-independent basis, Debye-Ang):
   XX=            -71.2842   YY=            -95.8108   ZZ=            -94.4090
   XY=             -1.7862   XZ=             -3.6147   YZ=              1.2823

 Normal termination of Gaussian 16 at Wed May  5 21:46:59 2021.
