 Gaussian 16, Revision A.03,
 Gaussian 16:  EM64L-G16RevA.03 25-Dec-2016

 -------------
 #p 6-31g* mp2
 -------------

 ------------------------------------------------------
 Input file generated by CHIRIPA (05-May-2021 14:51:13)
 ------------------------------------------------------
 Symbolic Z-matrix:
 Charge =  0 Multiplicity = 1

                         Standard orientation:
 ---------------------------------------------------------------------
 Center     Atomic      Atomic             Coordinates (Angstroms)
 Number     Number       Type             X           Y           Z
 ---------------------------------------------------------------------
      1          6           0       -3.345055   -0.265481    0.160523
      2          6           0       -2.492263    0.986481    0.368662
      3          6           0       -1.004016    0.669738    0.518961
      4          1           0       -3.197685   -0.947075    1.009438
      5          1           0       -2.990466   -0.797811   -0.732946
      6          1           0       -2.849244    1.517026    1.260684
      7          1           0       -2.641828    1.665257   -0.480754
      8          1           0       -0.626377    0.160865   -0.373808
      9          1           0       -0.834972    0.011791    1.377524
     10          1           0       -0.412978    1.578964    0.666751
     11          6           0       -4.835164    0.034893    0.008609
     12          6           0       -5.687956   -1.217069   -0.199531
     13          6           0       -7.176203   -0.900327   -0.349829
     14          1           0       -5.189753    0.567223    0.902078
     15          1           0       -4.982534    0.716486   -0.840306
     16          1           0       -5.538392   -1.895846    0.649886
     17          1           0       -5.330976   -1.747615   -1.091552
     18          1           0       -7.345248   -0.242380   -1.208392
     19          1           0       -7.553842   -0.391453    0.542940
     20          1           0       -7.767242   -1.809553   -0.497619
     21          6           0        4.228922   -0.598048    0.150607
     22          6           0        5.575770   -1.142503   -0.326420
     23          6           0        5.839077   -2.570603    0.152112
     24          1           0        4.195481   -0.630512    1.248229
     25          1           0        3.426952   -1.259039   -0.206226
     26          1           0        6.374854   -0.479920    0.030039
     27          1           0        5.606083   -1.108561   -1.423026
     28          1           0        5.062652   -3.249354   -0.215397
     29          1           0        5.835792   -2.617141    1.245925
     30          1           0        6.807183   -2.940009   -0.200266
     31          6           0        3.951298    0.828636   -0.319738
     32          6           0        2.604450    1.373092    0.157289
     33          6           0        2.341142    2.801192   -0.321244
     34          1           0        4.753267    1.489628    0.037094
     35          1           0        3.984739    0.861100   -1.417361
     36          1           0        2.574137    1.339150    1.253894
     37          1           0        1.805365    0.710509   -0.199171
     38          1           0        2.344427    2.847730   -1.415057
     39          1           0        3.117567    3.479943    0.046265
     40          1           0        1.373037    3.170598    0.031134
 ---------------------------------------------------------------------

 SCF Done:  E(RHF) =  -470.732150656     A.U. after   11 cycles
 E2 =    -0.1583350987D+01 EUMP2 =    -0.47231550164346D+03

 The electronic state is 1-A.
 Alpha  occ. eigenvalues --  -11.21602 -11.21581 -11.21561 -11.21430 -11.21403
 Alpha  occ. eigenvalues --  -11.21344 -11.21337 -11.21271 -11.21072 -11.21041
 Alpha  occ. eigenvalues --  -11.21031 -11.21027  -1.08433  -1.08357  -1.03569
 Alpha  occ. eigenvalues --   -1.03432  -0.96041  -0.95875  -0.87010  -0.86944
 Alpha  occ. eigenvalues --   -0.79719  -0.79426  -0.78268  -0.78131  -0.65078
 Alpha  occ. eigenvalues --   -0.64981  -0.61012  -0.60803  -0.59701  -0.59052
 Alpha  occ. eigenvalues --   -0.57747  -0.57356  -0.55319  -0.55167  -0.52825
 Alpha  occ. eigenvalues --   -0.52506  -0.52500  -0.52182  -0.49981  -0.49821
 Alpha  occ. eigenvalues --   -0.48023  -0.47739  -0.46731  -0.46452  -0.45847
 Alpha  occ. eigenvalues --   -0.45725  -0.45689  -0.45528  -0.43735  -0.43709
 Alpha virt. eigenvalues --    0.21982   0.23046   0.23459   0.25109   0.25939
 Alpha virt. eigenvalues --    0.26751   0.26831   0.27078   0.27837   0.29115
 Alpha virt. eigenvalues --    0.29977   0.31005   0.31523   0.31758   0.32349

 Mulliken charges:
               1
     1  C   -0.298630
     2  C   -0.300161
     3  C   -0.479935
     4  H    0.149619
     5  H    0.149303
     6  H    0.151649
     7  H    0.151803
     8  H    0.153917
     9  H    0.155511
    10  H    0.167561
    11  C   -0.298202
    12  C   -0.299602
    13  C   -0.475696
    14  H    0.149531
    15  H    0.149619
    16  H    0.151932
    17  H    0.151848
    18  H    0.155172
    19  H    0.155191
    20  H    0.160240
    21  C   -0.298052
    22  C   -0.299564
    23  C   -0.475649
    24  H    0.149534
    25  H    0.149305
    26  H    0.151849
    27  H    0.151746
    28  H    0.155085
    29  H    0.155105
    30  H    0.160085
    31  C   -0.297812
    32  C   -0.305193
    33  C   -0.478370
    34  H    0.148795
    35  H    0.148926
    36  H    0.151062
    37  H    0.161755
    38  H    0.154949
    39  H    0.155230
    40  H    0.160544
 Sum of Mulliken charges =  -0.00000

 Dipole moment (field-independent basis, Debye):
    X=             -0.0237    Y=             -0.0062    Z=              0.0079  Tot=              0.0257
 Quadrupole moment (field-independent basis, Debye-Ang):
   XX=            -86.2215   YY=            -85.8047   ZZ=            -83.1055
   XY=              0.5574   XZ=              0.0416   YZ=              0.5176

 Normal termination of Gaussian 16 at Wed May  5 21:34:03 2021.
