 Gaussian 16, Revision A.03,
 Gaussian 16:  EM64L-G16RevA.03 25-Dec-2016

 -------------
 #p 6-31g* mp2
 -------------

 ------------------------------------------------------
 Input file generated by CHIRIPA (05-May-2021 14:55:23)
 ------------------------------------------------------
 Symbolic Z-matrix:
 Charge =  0 Multiplicity = 1

                         Standard orientation:
 ---------------------------------------------------------------------
 Center     Atomic      Atomic             Coordinates (Angstroms)
 Number     Number       Type             X           Y           Z
 ---------------------------------------------------------------------
      1          6           0       -2.999688    2.681335    0.005041
      2          6           0       -3.897395    1.963948   -0.792455
      3          6           0       -3.946841    0.568321   -0.726674
      4          6           0       -3.080349   -0.080603    0.151608
      5          6           0       -2.174853    0.606025    0.959016
      6          6           0       -2.142793    2.001282    0.876695
      7          1           0       -2.968030    3.765348   -0.052484
      8          1           0       -4.564050    2.489438   -1.470303
      9          1           0       -4.632031   -0.011870   -1.332736
     10          1           0       -1.522720    0.054290    1.625147
     11          1           0       -1.444597    2.555813    1.497229
     12          7           0       -3.123492   -1.557896    0.230003
     13          8           0       -2.349624   -2.106043    1.011860
     14          8           0       -3.930359   -2.139678   -0.491892
     15          6           0        3.261491   -0.416295    0.119664
     16          6           0        2.188183   -0.682942   -0.936222
     17          6           0        0.848928   -1.097720   -0.326180
     18          1           0        3.398921   -1.319474    0.729848
     19          1           0        2.908451    0.370357    0.800793
     20          1           0        2.543714   -1.467886   -1.615984
     21          1           0        2.053428    0.220916   -1.544086
     22          1           0        0.468497   -0.314088    0.336988
     23          1           0        0.961570   -2.012485    0.264683
     24          1           0        0.096194   -1.283363   -1.098701
     25          6           0        4.605999   -0.000659   -0.474704
     26          6           0        5.679307    0.265989    0.581181
     27          6           0        7.018562    0.680767   -0.028859
     28          1           0        4.959038   -0.787310   -1.155833
     29          1           0        4.468569    0.902520   -1.084888
     30          1           0        5.814063   -0.637869    1.189046
     31          1           0        5.323776    1.050933    1.260943
     32          1           0        6.905920    1.595532   -0.619722
     33          1           0        7.398993   -0.102865   -0.692029
     34          1           0        7.771296    0.866410    0.743661
 ---------------------------------------------------------------------

 SCF Done:  E(RHF) =  -669.534718566     A.U. after   15 cycles
 E2 =    -0.2092601339D+01 EUMP2 =    -0.67162731990512D+03

 The electronic state is 1-A.
 Alpha  occ. eigenvalues --  -20.60787 -20.60756 -15.85807 -11.31158 -11.27759
 Alpha  occ. eigenvalues --  -11.27730 -11.27505 -11.26761 -11.26751 -11.21629
 Alpha  occ. eigenvalues --  -11.21447 -11.21391 -11.21326 -11.21106 -11.20758
 Alpha  occ. eigenvalues --   -1.59834  -1.39388  -1.19354  -1.08746  -1.08391
 Alpha  occ. eigenvalues --   -1.04767  -1.03452  -0.95908  -0.95574  -0.86927
 Alpha  occ. eigenvalues --   -0.86147  -0.82418  -0.79531  -0.78217  -0.77449
 Alpha  occ. eigenvalues --   -0.72032  -0.71148  -0.70480  -0.65042  -0.65006
 Alpha  occ. eigenvalues --   -0.64766  -0.62149  -0.60842  -0.59270  -0.57508
 Alpha  occ. eigenvalues --   -0.55357  -0.55137  -0.53120  -0.52895  -0.52549
 Alpha  occ. eigenvalues --   -0.52257  -0.49816  -0.48794  -0.48786  -0.47825
 Alpha  occ. eigenvalues --   -0.46557  -0.45754  -0.45681  -0.44787  -0.43680
 Alpha  occ. eigenvalues --   -0.37324  -0.36317
 Alpha virt. eigenvalues --    0.05043   0.11267   0.16493   0.21198   0.22911
 Alpha virt. eigenvalues --    0.24339   0.26268   0.26942   0.27625   0.27789
 Alpha virt. eigenvalues --    0.28926   0.30802   0.31504   0.31833   0.31913

 Mulliken charges:
               1
     1  C   -0.170242
     2  C   -0.218802
     3  C   -0.171235
     4  C    0.158427
     5  C   -0.167294
     6  C   -0.220395
     7  H    0.225488
     8  H    0.223289
     9  H    0.275536
    10  H    0.277144
    11  H    0.223057
    12  N    0.488319
    13  O   -0.458747
    14  O   -0.460667
    15  C   -0.297558
    16  C   -0.301462
    17  C   -0.471189
    18  H    0.151930
    19  H    0.144282
    20  H    0.153544
    21  H    0.148488
    22  H    0.142773
    23  H    0.165914
    24  H    0.160169
    25  C   -0.297953
    26  C   -0.299419
    27  C   -0.475622
    28  H    0.150740
    29  H    0.148128
    30  H    0.152955
    31  H    0.150044
    32  H    0.154352
    33  H    0.155904
    34  H    0.160099
 Sum of Mulliken charges =  -0.00000

 Dipole moment (field-independent basis, Debye):
    X=              0.0985    Y=              5.0864    Z=             -0.2709  Tot=              5.0946
 Quadrupole moment (field-independent basis, Debye-Ang):
   XX=            -94.6285   YY=            -95.1694   ZZ=            -93.0769
   XY=            -16.9432   XZ=              4.0826   YZ=              0.9698

 Normal termination of Gaussian 16 at Thu May  6 04:43:27 2021.
