 Gaussian 16, Revision A.03,
 Gaussian 16:  EM64L-G16RevA.03 25-Dec-2016

 -------------
 #p 6-31g* mp2
 -------------

 ------------------------------------------------------
 Input file generated by CHIRIPA (05-May-2021 14:55:19)
 ------------------------------------------------------
 Symbolic Z-matrix:
 Charge =  0 Multiplicity = 1

                         Standard orientation:
 ---------------------------------------------------------------------
 Center     Atomic      Atomic             Coordinates (Angstroms)
 Number     Number       Type             X           Y           Z
 ---------------------------------------------------------------------
      1          6           0       -5.711020    0.382796   -0.297102
      2          6           0       -5.323009   -0.627196    0.589399
      3          6           0       -3.979623   -0.998611    0.698543
      4          6           0       -3.046504   -0.336088   -0.097474
      5          6           0       -3.401829    0.674057   -0.990022
      6          6           0       -4.750884    1.029060   -1.082598
      7          1           0       -6.756797    0.664946   -0.375453
      8          1           0       -6.066490   -1.130816    1.200665
      9          1           0       -3.651654   -1.777104    1.376631
     10          1           0       -2.637799    1.157929   -1.586296
     11          1           0       -5.049328    1.813791   -1.771927
     12          7           0       -1.621321   -0.720601    0.009303
     13          8           0       -0.818569   -0.121584   -0.703020
     14          8           0       -1.334000   -1.613719    0.803296
     15          6           0        3.813713    0.856867    0.567080
     16          6           0        2.304239    0.819348    0.326116
     17          6           0        1.544818    1.840939    1.173125
     18          1           0        4.013321    0.673455    1.631721
     19          1           0        4.187923    1.866576    0.348327
     20          1           0        1.933210   -0.190361    0.543929
     21          1           0        2.108213    1.002680   -0.738111
     22          1           0        1.886974    2.856721    0.950161
     23          1           0        1.710978    1.656902    2.239485
     24          1           0        0.467526    1.796884    0.985077
     25          6           0        4.586649   -0.158717   -0.272496
     26          6           0        6.096124   -0.121196   -0.031532
     27          6           0        6.855546   -1.142788   -0.878543
     28          1           0        4.212440   -1.168424   -0.053743
     29          1           0        4.387042    0.024696   -1.337137
     30          1           0        6.292152   -0.304529    1.032694
     31          1           0        6.467153    0.888512   -0.249346
     32          1           0        6.689385   -0.958750   -1.944901
     33          1           0        6.513388   -2.158571   -0.655577
     34          1           0        7.932838   -1.098733   -0.690493
 ---------------------------------------------------------------------

 SCF Done:  E(RHF) =  -669.536057699     A.U. after   15 cycles
 E2 =    -0.2092020391D+01 EUMP2 =    -0.67162807809052D+03

 The electronic state is 1-A.
 Alpha  occ. eigenvalues --  -20.61042 -20.61031 -15.86041 -11.31340 -11.27898
 Alpha  occ. eigenvalues --  -11.27894 -11.27629 -11.26898 -11.26888 -11.20728
 Alpha  occ. eigenvalues --  -11.20334 -11.20267 -11.20058 -11.19751 -11.19595
 Alpha  occ. eigenvalues --   -1.60084  -1.39643  -1.19504  -1.08915  -1.07202
 Alpha  occ. eigenvalues --   -1.04895  -1.02274  -0.95764  -0.94795  -0.86297
 Alpha  occ. eigenvalues --   -0.85836  -0.82597  -0.78374  -0.77655  -0.76922
 Alpha  occ. eigenvalues --   -0.72260  -0.71400  -0.70613  -0.65160  -0.64898
 Alpha  occ. eigenvalues --   -0.63848  -0.62242  -0.59685  -0.58188  -0.56358
 Alpha  occ. eigenvalues --   -0.55395  -0.54126  -0.53227  -0.52986  -0.51526
 Alpha  occ. eigenvalues --   -0.51216  -0.49044  -0.49022  -0.48785  -0.46667
 Alpha  occ. eigenvalues --   -0.45418  -0.45009  -0.44476  -0.44344  -0.42544
 Alpha  occ. eigenvalues --   -0.37480  -0.36494
 Alpha virt. eigenvalues --    0.04850   0.11159   0.16333   0.21284   0.23986
 Alpha virt. eigenvalues --    0.25498   0.27216   0.27825   0.28087   0.28788
 Alpha virt. eigenvalues --    0.29147   0.30832   0.32215   0.32530   0.32893

 Mulliken charges:
               1
     1  C   -0.170460
     2  C   -0.218569
     3  C   -0.170529
     4  C    0.158052
     5  C   -0.170891
     6  C   -0.218490
     7  H    0.226192
     8  H    0.223992
     9  H    0.275932
    10  H    0.275903
    11  H    0.224049
    12  N    0.488736
    13  O   -0.457377
    14  O   -0.458957
    15  C   -0.299459
    16  C   -0.292856
    17  C   -0.476628
    18  H    0.145407
    19  H    0.143074
    20  H    0.167981
    21  H    0.153164
    22  H    0.145510
    23  H    0.148823
    24  H    0.162119
    25  C   -0.297173
    26  C   -0.298531
    27  C   -0.474983
    28  H    0.151761
    29  H    0.148402
    30  H    0.150302
    31  H    0.149361
    32  H    0.153978
    33  H    0.155069
    34  H    0.157095
 Sum of Mulliken charges =  -0.00000

 Dipole moment (field-independent basis, Debye):
    X=             -5.4373    Y=              1.1753    Z=             -0.4643  Tot=              5.5822
 Quadrupole moment (field-independent basis, Debye-Ang):
   XX=            -66.3313   YY=            -94.2249   ZZ=            -92.7064
   XY=             -1.4597   XZ=              0.8660   YZ=             -4.0093

 Normal termination of Gaussian 16 at Thu May  6 02:53:07 2021.
