 Gaussian 16, Revision A.03,
 Gaussian 16:  EM64L-G16RevA.03 25-Dec-2016

 -------------
 #p 6-31g* mp2
 -------------

 ------------------------------------------------------
 Input file generated by CHIRIPA (05-May-2021 14:51:12)
 ------------------------------------------------------
 Symbolic Z-matrix:
 Charge =  0 Multiplicity = 1

                         Standard orientation:
 ---------------------------------------------------------------------
 Center     Atomic      Atomic             Coordinates (Angstroms)
 Number     Number       Type             X           Y           Z
 ---------------------------------------------------------------------
      1          6           0        2.859175    0.688607   -0.209049
      2          6           0        2.965076    2.209700   -0.094830
      3          6           0        1.599327    2.894889   -0.039696
      4          1           0        2.283066    0.434096   -1.109197
      5          1           0        2.288477    0.302465    0.646868
      6          1           0        3.536590    2.592720   -0.949981
      7          1           0        3.541163    2.460616    0.805049
      8          1           0        1.025227    2.540826    0.822656
      9          1           0        1.020629    2.673680   -0.942345
     10          1           0        1.698469    3.981802    0.041859
     11          6           0        4.216242   -0.010637   -0.265218
     12          6           0        4.110341   -1.531730   -0.379437
     13          6           0        5.476090   -2.216919   -0.434570
     14          1           0        4.786940    0.375505   -1.121134
     15          1           0        4.792350    0.243874    0.634931
     16          1           0        3.534254   -1.782646   -1.279315
     17          1           0        3.538826   -1.914750    0.475715
     18          1           0        6.054788   -1.995710    0.468079
     19          1           0        6.050189   -1.862856   -1.296922
     20          1           0        5.376948   -3.303832   -0.516125
     21          6           0       -4.105185    0.055035   -0.088674
     22          6           0       -5.324472   -0.803990   -0.425423
     23          6           0       -6.451306   -0.001528   -1.076648
     24          1           0       -4.412212    0.869366    0.581807
     25          1           0       -3.734704    0.529783   -1.007780
     26          1           0       -5.691705   -1.278071    0.493817
     27          1           0       -5.014469   -1.616482   -1.095028
     28          1           0       -6.107556    0.458930   -2.008535
     29          1           0       -6.788641    0.799265   -0.410663
     30          1           0       -7.312970   -0.635103   -1.308982
     31          6           0       -2.970231   -0.733005    0.562940
     32          6           0       -1.750945    0.126020    0.899689
     33          6           0       -0.624111   -0.676441    1.550915
     34          1           0       -3.340713   -1.207752    1.482046
     35          1           0       -2.663204   -1.547336   -0.107542
     36          1           0       -2.060947    0.938512    1.569294
     37          1           0       -1.383711    0.600101   -0.019552
     38          1           0       -0.286776   -1.477235    0.884928
     39          1           0       -0.967860   -1.136900    2.482801
     40          1           0        0.237553   -0.042866    1.783247
 ---------------------------------------------------------------------

 SCF Done:  E(RHF) =  -470.733029996     A.U. after   11 cycles
 E2 =    -0.1583222043D+01 EUMP2 =    -0.47231625203905D+03

 The electronic state is 1-A.
 Alpha  occ. eigenvalues --  -11.21589 -11.21588 -11.21578 -11.21565 -11.21386
 Alpha  occ. eigenvalues --  -11.21367 -11.21326 -11.21298 -11.21071 -11.21061
 Alpha  occ. eigenvalues --  -11.21054 -11.21044  -1.08427  -1.08392  -1.03541
 Alpha  occ. eigenvalues --   -1.03486  -0.95974  -0.95956  -0.87015  -0.86952
 Alpha  occ. eigenvalues --   -0.79577  -0.79575  -0.78224  -0.78218  -0.65068
 Alpha  occ. eigenvalues --   -0.65028  -0.60937  -0.60904  -0.59463  -0.59215
 Alpha  occ. eigenvalues --   -0.57604  -0.57545  -0.55292  -0.55215  -0.52740
 Alpha  occ. eigenvalues --   -0.52640  -0.52408  -0.52357  -0.49933  -0.49877
 Alpha  occ. eigenvalues --   -0.47905  -0.47883  -0.46627  -0.46576  -0.45801
 Alpha  occ. eigenvalues --   -0.45725  -0.45687  -0.45642  -0.43768  -0.43705
 Alpha virt. eigenvalues --    0.20925   0.23114   0.23469   0.24939   0.25774
 Alpha virt. eigenvalues --    0.26444   0.26879   0.27310   0.28312   0.29469
 Alpha virt. eigenvalues --    0.29973   0.31432   0.31695   0.31985   0.32036

 Mulliken charges:
               1
     1  C   -0.304609
     2  C   -0.299706
     3  C   -0.478090
     4  H    0.148867
     5  H    0.157186
     6  H    0.151824
     7  H    0.151589
     8  H    0.157767
     9  H    0.155163
    10  H    0.160246
    11  C   -0.297715
    12  C   -0.299859
    13  C   -0.475665
    14  H    0.149276
    15  H    0.149403
    16  H    0.151547
    17  H    0.152569
    18  H    0.155180
    19  H    0.155081
    20  H    0.160169
    21  C   -0.298218
    22  C   -0.299631
    23  C   -0.475684
    24  H    0.149706
    25  H    0.149510
    26  H    0.151888
    27  H    0.151871
    28  H    0.155155
    29  H    0.155195
    30  H    0.160190
    31  C   -0.298645
    32  C   -0.300321
    33  C   -0.480245
    34  H    0.149391
    35  H    0.149609
    36  H    0.151513
    37  H    0.154164
    38  H    0.155945
    39  H    0.154599
    40  H    0.163785
 Sum of Mulliken charges =  -0.00000

 Dipole moment (field-independent basis, Debye):
    X=             -0.0049    Y=              0.0014    Z=              0.0050  Tot=              0.0071
 Quadrupole moment (field-independent basis, Debye-Ang):
   XX=            -86.4122   YY=            -85.3849   ZZ=            -83.1172
   XY=              0.8711   XZ=             -0.6990   YZ=              0.3046

 Normal termination of Gaussian 16 at Wed May  5 19:54:56 2021.
