 Gaussian 16, Revision A.03,
 Gaussian 16:  EM64L-G16RevA.03 25-Dec-2016

 -------------
 #p 6-31g* mp2
 -------------

 ------------------------------------------------------
 Input file generated by CHIRIPA (05-May-2021 14:53:11)
 ------------------------------------------------------
 Symbolic Z-matrix:
 Charge =  0 Multiplicity = 1

                         Standard orientation:
 ---------------------------------------------------------------------
 Center     Atomic      Atomic             Coordinates (Angstroms)
 Number     Number       Type             X           Y           Z
 ---------------------------------------------------------------------
      1          6           0        2.264232    0.851745   -0.533091
      2          6           0        2.783452    1.954902    0.389643
      3          6           0        2.122721    3.307834    0.123550
      4          1           0        2.435083    1.145706   -1.577764
      5          1           0        1.176383    0.760504   -0.407971
      6          1           0        3.870195    2.043093    0.263833
      7          1           0        2.611519    1.658195    1.432245
      8          1           0        1.039478    3.242632    0.268235
      9          1           0        2.305306    3.629717   -0.906816
     10          1           0        2.508590    4.081893    0.794220
     11          6           0        2.915289   -0.506715   -0.279241
     12          6           0        2.396068   -1.609872   -1.201975
     13          6           0        3.056799   -2.962804   -0.935882
     14          1           0        4.003138   -0.415475   -0.404361
     15          1           0        2.744438   -0.800677    0.765432
     16          1           0        2.568002   -1.313165   -2.244577
     17          1           0        1.309325   -1.698063   -1.076165
     18          1           0        2.874215   -3.284688    0.094484
     19          1           0        4.140043   -2.897603   -1.080567
     20          1           0        2.670930   -3.736863   -1.606552
     21          6           0       -3.568349    0.691617   -1.498080
     22          6           0       -2.636643    1.561550   -0.922181
     23          6           0       -1.775543    1.114550    0.084420
     24          6           0       -1.873876   -0.214670    0.492823
     25          6           0       -2.791583   -1.105650   -0.061487
     26          6           0       -3.642714   -0.636865   -1.066656
     27          1           0       -4.233400    1.047318   -2.279475
     28          1           0       -2.576648    2.593787   -1.255248
     29          1           0       -1.044916    1.766633    0.547444
     30          1           0       -2.827763   -2.129156    0.291422
     31          1           0       -4.365311   -1.314710   -1.512105
     32          7           0       -0.967544   -0.699420    1.557708
     33          8           0       -1.074122   -1.875090    1.899875
     34          8           0       -0.167744    0.105481    2.030033
 ---------------------------------------------------------------------

 SCF Done:  E(RHF) =  -669.535743564     A.U. after   15 cycles
 E2 =    -0.2094524332D+01 EUMP2 =    -0.67163026789625D+03

 The electronic state is 1-A.
 Alpha  occ. eigenvalues --  -20.61037 -20.61027 -15.86048 -11.31332 -11.27883
 Alpha  occ. eigenvalues --  -11.27873 -11.27606 -11.26877 -11.26863 -11.21054
 Alpha  occ. eigenvalues --  -11.21001 -11.20940 -11.20757 -11.20592 -11.20471
 Alpha  occ. eigenvalues --   -1.60087  -1.39645  -1.19494  -1.08903  -1.07807
 Alpha  occ. eigenvalues --   -1.04881  -1.03014  -0.95754  -0.95482  -0.86507
 Alpha  occ. eigenvalues --   -0.86287  -0.82585  -0.79077  -0.77746  -0.77538
 Alpha  occ. eigenvalues --   -0.72281  -0.71422  -0.70605  -0.65162  -0.64915
 Alpha  occ. eigenvalues --   -0.64350  -0.62243  -0.60378  -0.58856  -0.57103
 Alpha  occ. eigenvalues --   -0.55385  -0.54787  -0.53219  -0.52971  -0.52206
 Alpha  occ. eigenvalues --   -0.51934  -0.49484  -0.49030  -0.48997  -0.47411
 Alpha  occ. eigenvalues --   -0.46098  -0.45382  -0.45028  -0.44778  -0.43227
 Alpha  occ. eigenvalues --   -0.37450  -0.36448
 Alpha virt. eigenvalues --    0.04841   0.11057   0.16330   0.20222   0.23300
 Alpha virt. eigenvalues --    0.24076   0.26261   0.27392   0.27914   0.28120
 Alpha virt. eigenvalues --    0.29293   0.30778   0.31377   0.32088   0.32488

 Mulliken charges:
               1
     1  C   -0.297310
     2  C   -0.302080
     3  C   -0.474978
     4  H    0.142405
     5  H    0.147789
     6  H    0.149387
     7  H    0.168784
     8  H    0.143272
     9  H    0.152263
    10  H    0.161523
    11  C   -0.303175
    12  C   -0.297441
    13  C   -0.476251
    14  H    0.146093
    15  H    0.165807
    16  H    0.147537
    17  H    0.147178
    18  H    0.162147
    19  H    0.153181
    20  H    0.156729
    21  C   -0.170199
    22  C   -0.221082
    23  C   -0.176713
    24  C    0.159024
    25  C   -0.170349
    26  C   -0.218496
    27  H    0.226351
    28  H    0.224712
    29  H    0.284426
    30  H    0.275983
    31  H    0.224076
    32  N    0.488638
    33  O   -0.458400
    34  O   -0.460833
 Sum of Mulliken charges =  -0.00000

 Dipole moment (field-independent basis, Debye):
    X=             -3.2912    Y=              1.6018    Z=             -3.5214  Tot=              5.0792
 Quadrupole moment (field-independent basis, Debye-Ang):
   XX=            -81.8876   YY=            -92.9057   ZZ=            -98.7985
   XY=              0.0894   XZ=              5.9832   YZ=              1.7837

 Normal termination of Gaussian 16 at Thu May  6 02:28:59 2021.
