 Gaussian 16, Revision A.03,
 Gaussian 16:  EM64L-G16RevA.03 25-Dec-2016

 -------------
 #p 6-31g* mp2
 -------------

 ------------------------------------------------------
 Input file generated by CHIRIPA (05-May-2021 14:51:11)
 ------------------------------------------------------
 Symbolic Z-matrix:
 Charge =  0 Multiplicity = 1

                         Standard orientation:
 ---------------------------------------------------------------------
 Center     Atomic      Atomic             Coordinates (Angstroms)
 Number     Number       Type             X           Y           Z
 ---------------------------------------------------------------------
      1          6           0       -3.085114    0.635874    0.389830
      2          6           0       -1.957507    0.627889    1.422509
      3          6           0       -1.201503    1.955534    1.482571
      4          1           0       -2.666182    0.865981   -0.599357
      5          1           0       -3.786109    1.447563    0.628913
      6          1           0       -1.259587   -0.184420    1.182349
      7          1           0       -2.379145    0.397585    2.409321
      8          1           0       -1.880045    2.773713    1.744800
      9          1           0       -0.754127    2.188401    0.510856
     10          1           0       -0.399879    1.927724    2.227208
     11          6           0       -3.850186   -0.684443    0.318018
     12          6           0       -4.977792   -0.676458   -0.714661
     13          6           0       -5.733797   -2.004103   -0.774723
     14          1           0       -3.149190   -1.496132    0.078935
     15          1           0       -4.269118   -0.914550    1.307205
     16          1           0       -4.556155   -0.446154   -1.701473
     17          1           0       -5.675713    0.135851   -0.474501
     18          1           0       -6.181173   -2.236970    0.196992
     19          1           0       -5.055254   -2.822282   -1.036952
     20          1           0       -6.535421   -1.976293   -1.519361
     21          6           0        3.642240   -0.707428   -0.221462
     22          6           0        5.069320   -0.907330    0.289877
     23          6           0        5.403632   -2.376425    0.550242
     24          1           0        2.935748   -1.121500    0.510904
     25          1           0        3.507480   -1.284648   -1.146693
     26          1           0        5.201769   -0.328803    1.213122
     27          1           0        5.772489   -0.492563   -0.443702
     28          1           0        5.299309   -2.963799   -0.367751
     29          1           0        4.725348   -2.799108    1.298486
     30          1           0        6.428490   -2.496369    0.915126
     31          6           0        3.293060    0.755998   -0.486386
     32          6           0        1.865980    0.955900   -0.997725
     33          6           0        1.531668    2.424994   -1.258089
     34          1           0        3.427819    1.333216    0.438845
     35          1           0        3.999551    1.170069   -1.218752
     36          1           0        1.162811    0.541132   -0.264147
     37          1           0        1.733530    0.377373   -1.920970
     38          1           0        2.209952    2.847678   -2.006334
     39          1           0        1.635990    3.012368   -0.340098
     40          1           0        0.506810    2.544938   -1.622974
 ---------------------------------------------------------------------

 SCF Done:  E(RHF) =  -470.732786233     A.U. after   11 cycles
 E2 =    -0.1583421569D+01 EUMP2 =    -0.47231620780160D+03

 The electronic state is 1-A.
 Alpha  occ. eigenvalues --  -11.21616 -11.21614 -11.21598 -11.21597 -11.21422
 Alpha  occ. eigenvalues --  -11.21403 -11.21362 -11.21343 -11.21099 -11.21081
 Alpha  occ. eigenvalues --  -11.21068 -11.20976  -1.08462  -1.08413  -1.03601
 Alpha  occ. eigenvalues --   -1.03474  -0.96069  -0.95906  -0.87072  -0.86933
 Alpha  occ. eigenvalues --   -0.79640  -0.79559  -0.78264  -0.78237  -0.65205
 Alpha  occ. eigenvalues --   -0.64959  -0.61262  -0.60668  -0.59399  -0.59311
 Alpha  occ. eigenvalues --   -0.57684  -0.57523  -0.55540  -0.54974  -0.52742
 Alpha  occ. eigenvalues --   -0.52658  -0.52453  -0.52317  -0.50056  -0.49750
 Alpha  occ. eigenvalues --   -0.47936  -0.47884  -0.46697  -0.46544  -0.45840
 Alpha  occ. eigenvalues --   -0.45757  -0.45730  -0.45661  -0.43805  -0.43774
 Alpha virt. eigenvalues --    0.20583   0.23163   0.23592   0.24930   0.26238
 Alpha virt. eigenvalues --    0.26410   0.26825   0.27780   0.28138   0.29226
 Alpha virt. eigenvalues --    0.30581   0.30900   0.31281   0.32009   0.32247

 Mulliken charges:
               1
     1  C   -0.298223
     2  C   -0.301372
     3  C   -0.483792
     4  H    0.149354
     5  H    0.149655
     6  H    0.152303
     7  H    0.151839
     8  H    0.154883
     9  H    0.167038
    10  H    0.158460
    11  C   -0.298346
    12  C   -0.299668
    13  C   -0.475715
    14  H    0.149658
    15  H    0.149648
    16  H    0.151950
    17  H    0.151912
    18  H    0.155162
    19  H    0.155220
    20  H    0.160240
    21  C   -0.298340
    22  C   -0.299675
    23  C   -0.475734
    24  H    0.149485
    25  H    0.149438
    26  H    0.152019
    27  H    0.151998
    28  H    0.155153
    29  H    0.155209
    30  H    0.160321
    31  C   -0.298024
    32  C   -0.305040
    33  C   -0.479256
    34  H    0.149879
    35  H    0.149741
    36  H    0.157503
    37  H    0.151594
    38  H    0.156660
    39  H    0.157733
    40  H    0.159129
 Sum of Mulliken charges =  -0.00000

 Dipole moment (field-independent basis, Debye):
    X=              0.0197    Y=              0.0166    Z=             -0.0128  Tot=              0.0287
 Quadrupole moment (field-independent basis, Debye-Ang):
   XX=            -84.8188   YY=            -86.4665   ZZ=            -83.5012
   XY=             -0.3956   XZ=             -0.9514   YZ=              0.4086

 Normal termination of Gaussian 16 at Thu May  6 07:01:07 2021.
