 Gaussian 16, Revision A.03,
 Gaussian 16:  EM64L-G16RevA.03 25-Dec-2016

 -------------
 #p 6-31g* mp2
 -------------

 ------------------------------------------------------
 Input file generated by CHIRIPA (05-May-2021 14:57:21)
 ------------------------------------------------------
 Symbolic Z-matrix:
 Charge =  0 Multiplicity = 1

                         Standard orientation:
 ---------------------------------------------------------------------
 Center     Atomic      Atomic             Coordinates (Angstroms)
 Number     Number       Type             X           Y           Z
 ---------------------------------------------------------------------
      1          6           0       -3.362540    2.404594    0.221195
      2          6           0       -2.442610    1.499450    0.760608
      3          6           0       -2.661706    0.122050    0.664095
      4          6           0       -3.816481   -0.317387    0.018588
      5          6           0       -4.751750    0.559407   -0.528947
      6          6           0       -4.512147    1.932515   -0.420729
      7          1           0       -3.184376    3.472924    0.300715
      8          1           0       -1.548941    1.863214    1.259684
      9          1           0       -1.966045   -0.600761    1.072774
     10          1           0       -5.633449    0.166669   -1.020660
     11          1           0       -5.228308    2.633147   -0.840578
     12          7           0       -4.059283   -1.773307   -0.089782
     13          8           0       -5.084370   -2.135022   -0.663364
     14          8           0       -3.219907   -2.525174    0.400912
     15          6           0        2.543266    2.278601   -0.033857
     16          6           0        1.861757    1.094065    0.264370
     17          6           0        2.534910   -0.131255    0.265896
     18          6           0        3.895685   -0.135367   -0.036699
     19          6           0        4.602490    1.027810   -0.337921
     20          6           0        3.909050    2.241758   -0.333523
     21          1           0        2.012465    3.226042   -0.032741
     22          1           0        0.801071    1.119663    0.497467
     23          1           0        2.031838   -1.063289    0.493164
     24          1           0        5.659823    0.970527   -0.566355
     25          1           0        4.440890    3.160112   -0.565508
     26          7           0        4.619060   -1.426540   -0.038220
     27          8           0        5.817915   -1.403342   -0.308124
     28          8           0        3.973491   -2.437309    0.230523
 ---------------------------------------------------------------------

 SCF Done:  E(RHF) =  -868.336253365     A.U. after   16 cycles
 E2 =    -0.2600013792D+01 EUMP2 =    -0.87093626715618D+03

 The electronic state is 1-A.
 Alpha  occ. eigenvalues --  -20.61247 -20.61242 -20.60944 -20.60932 -15.86311
 Alpha  occ. eigenvalues --  -15.86001 -11.31870 -11.31517 -11.28554 -11.28439
 Alpha  occ. eigenvalues --  -11.28277 -11.28132 -11.28102 -11.27957 -11.27651
 Alpha  occ. eigenvalues --  -11.27468 -11.27265 -11.27153  -1.60319  -1.60014
 Alpha  occ. eigenvalues --   -1.39868  -1.39563  -1.20080  -1.19724  -1.09434
 Alpha  occ. eigenvalues --   -1.09103  -1.05533  -1.05158  -0.96232  -0.95904
 Alpha  occ. eigenvalues --   -0.86919  -0.86558  -0.83082  -0.82735  -0.78101
 Alpha  occ. eigenvalues --   -0.77739  -0.72523  -0.72216  -0.71646  -0.71340
 Alpha  occ. eigenvalues --   -0.71183  -0.70854  -0.65745  -0.65643  -0.65385
 Alpha  occ. eigenvalues --   -0.65138  -0.62935  -0.62440  -0.56015  -0.55690
 Alpha  occ. eigenvalues --   -0.53836  -0.53682  -0.53468  -0.53201  -0.49298
 Alpha  occ. eigenvalues --   -0.49268  -0.48990  -0.48960  -0.45231  -0.44934
 Alpha  occ. eigenvalues --   -0.38055  -0.37728  -0.37133  -0.36754
 Alpha virt. eigenvalues --    0.04453   0.04805   0.10486   0.10884   0.15724
 Alpha virt. eigenvalues --    0.16245   0.18398   0.21996   0.24719   0.26802
 Alpha virt. eigenvalues --    0.27994   0.29175   0.29556   0.31305   0.32031

 Mulliken charges:
               1
     1  C   -0.170201
     2  C   -0.222223
     3  C   -0.170673
     4  C    0.159439
     5  C   -0.168970
     6  C   -0.218203
     7  H    0.225838
     8  H    0.216686
     9  H    0.274079
    10  H    0.278587
    11  H    0.226084
    12  N    0.488065
    13  O   -0.457866
    14  O   -0.458413
    15  C   -0.171431
    16  C   -0.220609
    17  C   -0.171001
    18  C    0.159131
    19  C   -0.170068
    20  C   -0.218286
    21  H    0.221919
    22  H    0.217070
    23  H    0.278968
    24  H    0.277169
    25  H    0.224200
    26  N    0.487850
    27  O   -0.459744
    28  O   -0.457398
 Sum of Mulliken charges =  -0.00000

 Dipole moment (field-independent basis, Debye):
    X=             -1.8076    Y=              9.5491    Z=              0.2851  Tot=              9.7229
 Quadrupole moment (field-independent basis, Debye-Ang):
   XX=           -122.4448   YY=           -108.9900   ZZ=           -104.8648
   XY=             -0.5087   XZ=              0.0166   YZ=             -1.5281

 Normal termination of Gaussian 16 at Wed May  5 20:54:06 2021.
