 Gaussian 16, Revision A.03,
 Gaussian 16:  EM64L-G16RevA.03 25-Dec-2016

 -------------
 #p 6-31g* mp2
 -------------

 ------------------------------------------------------
 Input file generated by CHIRIPA (05-May-2021 14:53:12)
 ------------------------------------------------------
 Symbolic Z-matrix:
 Charge =  0 Multiplicity = 1

                         Standard orientation:
 ---------------------------------------------------------------------
 Center     Atomic      Atomic             Coordinates (Angstroms)
 Number     Number       Type             X           Y           Z
 ---------------------------------------------------------------------
      1          6           0        3.843942    0.828730   -0.262543
      2          6           0        3.268134    2.075105    0.410494
      3          6           0        3.696073    3.370662   -0.279573
      4          1           0        4.940398    0.897123   -0.269758
      5          1           0        3.525143    0.807865   -1.313889
      6          1           0        3.586784    2.092890    1.460618
      7          1           0        2.172928    2.003647    0.416278
      8          1           0        3.364559    3.379068   -1.322947
      9          1           0        4.786449    3.468818   -0.272673
     10          1           0        3.273211    4.249083    0.217844
     11          6           0        3.425069   -0.474343    0.415891
     12          6           0        4.000877   -1.720719   -0.257146
     13          6           0        3.572938   -3.016276    0.432921
     14          1           0        3.743868   -0.453478    1.467237
     15          1           0        2.328613   -0.542737    0.423106
     16          1           0        5.096083   -1.649260   -0.262930
     17          1           0        3.682227   -1.738503   -1.307270
     18          1           0        2.482562   -3.114432    0.426021
     19          1           0        3.904452   -3.024682    1.476295
     20          1           0        3.995800   -3.894697   -0.064496
     21          6           0       -0.582459   -1.227590   -0.352509
     22          6           0       -1.739939   -2.012393   -0.323460
     23          6           0       -2.995773   -1.419679   -0.161847
     24          6           0       -3.057655   -0.033137   -0.031613
     25          6           0       -1.922642    0.775820   -0.056551
     26          6           0       -0.677338    0.161564   -0.219197
     27          1           0        0.389013   -1.696392   -0.478456
     28          1           0       -1.669275   -3.091460   -0.426752
     29          1           0       -3.907925   -2.003391   -0.135823
     30          1           0       -2.024900    1.849055    0.048939
     31          1           0        0.219892    0.773553   -0.241388
     32          7           0       -4.381577    0.605747    0.140026
     33          8           0       -4.409233    1.829345    0.252632
     34          8           0       -5.366541   -0.129191    0.158701
 ---------------------------------------------------------------------

 SCF Done:  E(RHF) =  -669.534493797     A.U. after   15 cycles
 E2 =    -0.2093248705D+01 EUMP2 =    -0.67162774250142D+03

 The electronic state is 1-A.
 Alpha  occ. eigenvalues --  -20.60741 -20.60736 -15.85794 -11.31162 -11.27730
 Alpha  occ. eigenvalues --  -11.27725 -11.27452 -11.26743 -11.26715 -11.22740
 Alpha  occ. eigenvalues --  -11.22690 -11.22610 -11.22454 -11.22228 -11.21886
 Alpha  occ. eigenvalues --   -1.59817  -1.39370  -1.19333  -1.09584  -1.08727
 Alpha  occ. eigenvalues --   -1.04738  -1.04611  -0.97040  -0.95568  -0.88050
 Alpha  occ. eigenvalues --   -0.86145  -0.82403  -0.80668  -0.79399  -0.77443
 Alpha  occ. eigenvalues --   -0.72014  -0.71140  -0.70495  -0.66343  -0.64983
 Alpha  occ. eigenvalues --   -0.64657  -0.62187  -0.61937  -0.60403  -0.58641
 Alpha  occ. eigenvalues --   -0.56350  -0.55244  -0.53704  -0.53453  -0.53064
 Alpha  occ. eigenvalues --   -0.52847  -0.50997  -0.48973  -0.48770  -0.48766
 Alpha  occ. eigenvalues --   -0.47716  -0.46890  -0.46821  -0.44864  -0.44775
 Alpha  occ. eigenvalues --   -0.37305  -0.36336
 Alpha virt. eigenvalues --    0.05078   0.11254   0.16523   0.18186   0.21446
 Alpha virt. eigenvalues --    0.23328   0.25207   0.25941   0.26497   0.27731
 Alpha virt. eigenvalues --    0.29419   0.30591   0.30817   0.31098   0.32619

 Mulliken charges:
               1
     1  C   -0.299927
     2  C   -0.304594
     3  C   -0.476327
     4  H    0.155178
     5  H    0.149201
     6  H    0.157360
     7  H    0.145378
     8  H    0.156056
     9  H    0.158669
    10  H    0.163924
    11  C   -0.304522
    12  C   -0.302124
    13  C   -0.476942
    14  H    0.155833
    15  H    0.142335
    16  H    0.157854
    17  H    0.150976
    18  H    0.146819
    19  H    0.160670
    20  H    0.164937
    21  C   -0.178794
    22  C   -0.219761
    23  C   -0.170800
    24  C    0.158527
    25  C   -0.173201
    26  C   -0.227543
    27  H    0.233516
    28  H    0.223471
    29  H    0.275538
    30  H    0.275768
    31  H    0.235386
    32  N    0.488056
    33  O   -0.460402
    34  O   -0.460516
 Sum of Mulliken charges =  -0.00000

 Dipole moment (field-independent basis, Debye):
    X=              4.9722    Y=             -2.2047    Z=             -0.5596  Tot=              5.4677
 Quadrupole moment (field-independent basis, Debye-Ang):
   XX=           -120.7126   YY=            -91.2426   ZZ=            -95.3226
   XY=              8.9662   XZ=              2.6097   YZ=              0.7208

 Normal termination of Gaussian 16 at Wed May  5 20:07:37 2021.
