 Gaussian 16, Revision A.03,
 Gaussian 16:  EM64L-G16RevA.03 25-Dec-2016

 -------------
 #p 6-31g* mp2
 -------------

 ------------------------------------------------------
 Input file generated by CHIRIPA (05-May-2021 14:53:15)
 ------------------------------------------------------
 Symbolic Z-matrix:
 Charge =  0 Multiplicity = 1

                         Standard orientation:
 ---------------------------------------------------------------------
 Center     Atomic      Atomic             Coordinates (Angstroms)
 Number     Number       Type             X           Y           Z
 ---------------------------------------------------------------------
      1          6           0        3.682581   -0.471859   -0.289906
      2          6           0        4.954913   -1.312077   -0.175058
      3          6           0        4.734826   -2.774303   -0.563971
      4          1           0        2.903031   -0.909289    0.348765
      5          1           0        3.307991   -0.525473   -1.321509
      6          1           0        5.327759   -1.255776    0.855685
      7          1           0        5.731584   -0.872486   -0.813930
      8          1           0        4.385058   -2.849274   -1.598689
      9          1           0        3.978938   -3.234743    0.080412
     10          1           0        5.657155   -3.356694   -0.474588
     11          6           0        3.886588    0.992224    0.095543
     12          6           0        2.614256    1.832442   -0.019305
     13          6           0        2.834343    3.294667    0.369608
     14          1           0        4.261178    1.045837    1.127145
     15          1           0        4.666138    1.429654   -0.543128
     16          1           0        1.837585    1.392850    0.619567
     17          1           0        2.241410    1.776141   -1.050048
     18          1           0        3.590231    3.755107   -0.274775
     19          1           0        3.184111    3.369639    1.404326
     20          1           0        1.912014    3.877059    0.280225
     21          6           0       -0.567746   -0.399797    0.863429
     22          6           0       -1.616231   -0.785498    1.705115
     23          6           0       -2.943740   -0.680966    1.279275
     24          6           0       -3.187663   -0.184268   -0.000210
     25          6           0       -2.164708    0.208211   -0.862077
     26          6           0       -0.844842    0.094955   -0.415227
     27          1           0        0.460526   -0.484388    1.202393
     28          1           0       -1.404008   -1.170078    2.698647
     29          1           0       -3.774569   -0.972333    1.910343
     30          1           0       -2.407600    0.587909   -1.847090
     31          1           0       -0.032580    0.395253   -1.071043
     32          7           0       -4.588991   -0.068987   -0.462150
     33          8           0       -4.777430    0.371705   -1.593926
     34          8           0       -5.472380   -0.421503    0.316307
 ---------------------------------------------------------------------

 SCF Done:  E(RHF) =  -669.534719256     A.U. after   15 cycles
 E2 =    -0.2092925894D+01 EUMP2 =    -0.67162764514978D+03

 The electronic state is 1-A.
 Alpha  occ. eigenvalues --  -20.60711 -20.60705 -15.85762 -11.31116 -11.27678
 Alpha  occ. eigenvalues --  -11.27656 -11.27378 -11.26698 -11.26623 -11.22826
 Alpha  occ. eigenvalues --  -11.22594 -11.22489 -11.22441 -11.21965 -11.21832
 Alpha  occ. eigenvalues --   -1.59786  -1.39340  -1.19279  -1.09528  -1.08674
 Alpha  occ. eigenvalues --   -1.04682  -1.04509  -0.96931  -0.95521  -0.87947
 Alpha  occ. eigenvalues --   -0.86078  -0.82351  -0.80622  -0.79386  -0.77388
 Alpha  occ. eigenvalues --   -0.71980  -0.71109  -0.70428  -0.66151  -0.64926
 Alpha  occ. eigenvalues --   -0.64679  -0.62035  -0.61914  -0.60291  -0.58560
 Alpha  occ. eigenvalues --   -0.56215  -0.55211  -0.53601  -0.53357  -0.53005
 Alpha  occ. eigenvalues --   -0.52764  -0.50876  -0.48914  -0.48739  -0.48718
 Alpha  occ. eigenvalues --   -0.47650  -0.46844  -0.46791  -0.44789  -0.44748
 Alpha  occ. eigenvalues --   -0.37240  -0.36274
 Alpha virt. eigenvalues --    0.05101   0.11317   0.16541   0.19223   0.22602
 Alpha virt. eigenvalues --    0.23305   0.23942   0.25206   0.27052   0.28067
 Alpha virt. eigenvalues --    0.29734   0.30572   0.30936   0.31392   0.31558

 Mulliken charges:
               1
     1  C   -0.302364
     2  C   -0.300047
     3  C   -0.476335
     4  H    0.142268
     5  H    0.150193
     6  H    0.153560
     7  H    0.155549
     8  H    0.156844
     9  H    0.154389
    10  H    0.163674
    11  C   -0.298369
    12  C   -0.307686
    13  C   -0.475540
    14  H    0.151873
    15  H    0.154615
    16  H    0.148805
    17  H    0.149521
    18  H    0.158667
    19  H    0.157509
    20  H    0.164109
    21  C   -0.176998
    22  C   -0.219475
    23  C   -0.171137
    24  C    0.158657
    25  C   -0.172352
    26  C   -0.220566
    27  H    0.230749
    28  H    0.223097
    29  H    0.275183
    30  H    0.275328
    31  H    0.229503
    32  N    0.488034
    33  O   -0.460599
    34  O   -0.460660
 Sum of Mulliken charges =  -0.00000

 Dipole moment (field-independent basis, Debye):
    X=              5.2132    Y=             -0.3387    Z=              1.5981  Tot=              5.4632
 Quadrupole moment (field-independent basis, Debye-Ang):
   XX=           -125.2566   YY=            -95.3062   ZZ=            -90.1987
   XY=              1.2070   XZ=             -7.1494   YZ=             -2.5829

 Normal termination of Gaussian 16 at Thu May  6 20:24:39 2021.
