 Gaussian 16, Revision A.03,
 Gaussian 16:  EM64L-G16RevA.03 25-Dec-2016

 -------------
 #p 6-31g* mp2
 -------------

 ------------------------------------------------------
 Input file generated by CHIRIPA (05-May-2021 14:51:14)
 ------------------------------------------------------
 Symbolic Z-matrix:
 Charge =  0 Multiplicity = 1

                         Standard orientation:
 ---------------------------------------------------------------------
 Center     Atomic      Atomic             Coordinates (Angstroms)
 Number     Number       Type             X           Y           Z
 ---------------------------------------------------------------------
      1          6           0        2.144454   -1.162176   -0.470769
      2          6           0        1.023325   -1.916497    0.244811
      3          6           0        0.006022   -2.521187   -0.723300
      4          1           0        1.706181   -0.366456   -1.088581
      5          1           0        2.655931   -1.847639   -1.160643
      6          1           0        0.515005   -1.230171    0.934147
      7          1           0        1.464331   -2.710390    0.861140
      8          1           0        0.493738   -3.227133   -1.403281
      9          1           0       -0.460982   -1.738503   -1.329859
     10          1           0       -0.786587   -3.055796   -0.190548
     11          6           0        3.169325   -0.551959    0.483696
     12          6           0        4.290454    0.202361   -0.231884
     13          6           0        5.307758    0.807052    0.736227
     14          1           0        2.657848    0.133504    1.173570
     15          1           0        3.607599   -1.347679    1.101508
     16          1           0        3.849448    0.996255   -0.848213
     17          1           0        4.798775   -0.483964   -0.921220
     18          1           0        5.774762    0.024368    1.342786
     19          1           0        4.820042    1.512998    1.416207
     20          1           0        6.100366    1.341661    0.203475
     21          6           0       -3.306883    0.701969    0.363517
     22          6           0       -3.963053   -0.604268   -0.085003
     23          6           0       -5.262447   -0.900804    0.664287
     24          1           0       -3.106511    0.652594    1.442571
     25          1           0       -4.014215    1.529538    0.214497
     26          1           0       -3.254194   -1.428934    0.063527
     27          1           0       -4.161712   -0.551854   -1.163151
     28          1           0       -5.989833   -0.097878    0.506745
     29          1           0       -5.077159   -0.979942    1.740394
     30          1           0       -5.714652   -1.839037    0.327997
     31          6           0       -2.006896    1.012166   -0.376443
     32          6           0       -1.350726    2.318403    0.072076
     33          6           0       -0.051333    2.614940   -0.677214
     34          1           0       -1.299565    0.184597   -0.227424
     35          1           0       -2.207268    1.061541   -1.455498
     36          1           0       -1.152068    2.265989    1.150224
     37          1           0       -2.059586    3.143069   -0.076455
     38          1           0       -0.236621    2.694077   -1.753321
     39          1           0        0.676054    1.812013   -0.519673
     40          1           0        0.400873    3.553172   -0.340923
 ---------------------------------------------------------------------

 SCF Done:  E(RHF) =  -470.732396718     A.U. after   11 cycles
 E2 =    -0.1585169565D+01 EUMP2 =    -0.47231756628319D+03

 The electronic state is 1-A.
 Alpha  occ. eigenvalues --  -11.21668 -11.21646 -11.21607 -11.21574 -11.21436
 Alpha  occ. eigenvalues --  -11.21401 -11.21377 -11.21340 -11.21138 -11.21076
 Alpha  occ. eigenvalues --  -11.21071 -11.21059  -1.08515  -1.08408  -1.03579
 Alpha  occ. eigenvalues --   -1.03539  -0.96069  -0.95950  -0.87042  -0.87006
 Alpha  occ. eigenvalues --   -0.79629  -0.79616  -0.78323  -0.78234  -0.65452
 Alpha  occ. eigenvalues --   -0.64805  -0.61074  -0.60848  -0.59423  -0.59318
 Alpha  occ. eigenvalues --   -0.57704  -0.57560  -0.55621  -0.55003  -0.52733
 Alpha  occ. eigenvalues --   -0.52668  -0.52529  -0.52314  -0.50031  -0.49868
 Alpha  occ. eigenvalues --   -0.48063  -0.47849  -0.46700  -0.46664  -0.45995
 Alpha  occ. eigenvalues --   -0.45803  -0.45707  -0.45368  -0.43811  -0.43796
 Alpha virt. eigenvalues --    0.19400   0.22246   0.23969   0.24416   0.26022
 Alpha virt. eigenvalues --    0.26470   0.26647   0.27770   0.28505   0.30069
 Alpha virt. eigenvalues --    0.30456   0.31352   0.31746   0.31912   0.32458

 Mulliken charges:
               1
     1  C   -0.303439
     2  C   -0.302885
     3  C   -0.480736
     4  H    0.153846
     5  H    0.150560
     6  H    0.151579
     7  H    0.153177
     8  H    0.155910
     9  H    0.159797
    10  H    0.160620
    11  C   -0.299150
    12  C   -0.300399
    13  C   -0.475718
    14  H    0.149714
    15  H    0.149950
    16  H    0.153057
    17  H    0.152017
    18  H    0.155050
    19  H    0.155356
    20  H    0.160404
    21  C   -0.297461
    22  C   -0.302696
    23  C   -0.475702
    24  H    0.149136
    25  H    0.149498
    26  H    0.155488
    27  H    0.151754
    28  H    0.155114
    29  H    0.155002
    30  H    0.160280
    31  C   -0.309701
    32  C   -0.298689
    33  C   -0.482866
    34  H    0.162535
    35  H    0.148908
    36  H    0.151385
    37  H    0.152310
    38  H    0.155396
    39  H    0.160926
    40  H    0.160672
 Sum of Mulliken charges =  -0.00000

 Dipole moment (field-independent basis, Debye):
    X=              0.0158    Y=             -0.0168    Z=             -0.0198  Tot=              0.0304
 Quadrupole moment (field-independent basis, Debye-Ang):
   XX=            -85.7952   YY=            -84.1820   ZZ=            -84.8014
   XY=             -1.4619   XZ=              0.3176   YZ=             -0.4369

 Normal termination of Gaussian 16 at Wed May  5 23:14:53 2021.
