 Gaussian 16, Revision A.03,
 Gaussian 16:  EM64L-G16RevA.03 25-Dec-2016

 -------------
 #p 6-31g* mp2
 -------------

 ------------------------------------------------------
 Input file generated by CHIRIPA (05-May-2021 14:51:14)
 ------------------------------------------------------
 Symbolic Z-matrix:
 Charge =  0 Multiplicity = 1

                         Standard orientation:
 ---------------------------------------------------------------------
 Center     Atomic      Atomic             Coordinates (Angstroms)
 Number     Number       Type             X           Y           Z
 ---------------------------------------------------------------------
      1          6           0       -4.733319   -0.183071    0.165149
      2          6           0       -4.954460   -1.508528   -0.564401
      3          6           0       -6.434731   -1.860260   -0.715651
      4          1           0       -5.202513   -0.235133    1.157163
      5          1           0       -5.247658    0.618976   -0.382181
      6          1           0       -4.438702   -2.307613   -0.016611
      7          1           0       -4.484520   -1.453373   -1.554719
      8          1           0       -6.959416   -1.083502   -1.281296
      9          1           0       -6.913337   -1.942596    0.265551
     10          1           0       -6.569825   -2.811453   -1.239904
     11          6           0       -3.258529    0.182246    0.324108
     12          6           0       -3.037388    1.507703    1.053658
     13          6           0       -1.557117    1.859435    1.204909
     14          1           0       -2.744190   -0.619801    0.871439
     15          1           0       -2.789335    0.234308   -0.667906
     16          1           0       -3.507328    1.452548    2.043976
     17          1           0       -3.553146    2.306788    0.505869
     18          1           0       -1.078511    1.941771    0.223707
     19          1           0       -1.032432    1.082677    1.770553
     20          1           0       -1.422023    2.810628    1.729162
     21          6           0        4.676630   -0.273203   -0.032013
     22          6           0        4.668401   -1.778678    0.235315
     23          6           0        6.037370   -2.311205    0.659733
     24          1           0        5.416641   -0.049904   -0.812696
     25          1           0        5.010268    0.251228    0.874107
     26          1           0        4.333553   -2.300028   -0.670603
     27          1           0        3.928187   -1.998443    1.015316
     28          1           0        6.375414   -1.817550    1.576593
     29          1           0        6.783083   -2.120849   -0.118905
     30          1           0        6.008698   -3.389375    0.845708
     31          6           0        3.315218    0.274028   -0.457244
     32          6           0        3.323447    1.779503   -0.724572
     33          6           0        1.954478    2.312030   -1.148990
     34          1           0        2.981580   -0.250403   -1.363364
     35          1           0        2.575207    0.050728    0.323439
     36          1           0        4.063661    1.999268   -1.504575
     37          1           0        3.658295    2.300853    0.181345
     38          1           0        1.208765    2.121674   -0.370352
     39          1           0        1.616434    1.818376   -2.065851
     40          1           0        1.983151    3.390200   -1.334965
 ---------------------------------------------------------------------

 SCF Done:  E(RHF) =  -470.733232075     A.U. after   11 cycles
 E2 =    -0.1582299074D+01 EUMP2 =    -0.47231553114860D+03

 The electronic state is 1-A.
 Alpha  occ. eigenvalues --  -11.21603 -11.21596 -11.21581 -11.21552 -11.21399
 Alpha  occ. eigenvalues --  -11.21370 -11.21340 -11.21309 -11.21069 -11.21067
 Alpha  occ. eigenvalues --  -11.21055 -11.20980  -1.08427  -1.08393  -1.03537
 Alpha  occ. eigenvalues --   -1.03485  -0.96006  -0.95921  -0.87047  -0.86918
 Alpha  occ. eigenvalues --   -0.79646  -0.79511  -0.78247  -0.78197  -0.65065
 Alpha  occ. eigenvalues --   -0.65017  -0.60988  -0.60842  -0.59349  -0.59307
 Alpha  occ. eigenvalues --   -0.57669  -0.57494  -0.55403  -0.55119  -0.52699
 Alpha  occ. eigenvalues --   -0.52633  -0.52546  -0.52230  -0.50071  -0.49734
 Alpha  occ. eigenvalues --   -0.48040  -0.47743  -0.46695  -0.46490  -0.45831
 Alpha  occ. eigenvalues --   -0.45722  -0.45693  -0.45608  -0.43783  -0.43748
 Alpha virt. eigenvalues --    0.22544   0.22944   0.23695   0.24615   0.25983
 Alpha virt. eigenvalues --    0.26542   0.27060   0.27629   0.27727   0.28944
 Alpha virt. eigenvalues --    0.30589   0.31378   0.31756   0.31819   0.32099

 Mulliken charges:
               1
     1  C   -0.298307
     2  C   -0.299651
     3  C   -0.475707
     4  H    0.149595
     5  H    0.149569
     6  H    0.151916
     7  H    0.152006
     8  H    0.155192
     9  H    0.155151
    10  H    0.160241
    11  C   -0.298445
    12  C   -0.299645
    13  C   -0.480768
    14  H    0.149414
    15  H    0.150093
    16  H    0.151806
    17  H    0.152154
    18  H    0.160983
    19  H    0.154269
    20  H    0.160422
    21  C   -0.298285
    22  C   -0.299599
    23  C   -0.475683
    24  H    0.149558
    25  H    0.149491
    26  H    0.151881
    27  H    0.151850
    28  H    0.155151
    29  H    0.155149
    30  H    0.160149
    31  C   -0.298378
    32  C   -0.299109
    33  C   -0.483452
    34  H    0.149301
    35  H    0.149992
    36  H    0.151552
    37  H    0.151888
    38  H    0.164340
    39  H    0.154056
    40  H    0.159860
 Sum of Mulliken charges =  -0.00000

 Dipole moment (field-independent basis, Debye):
    X=             -0.0215    Y=              0.0065    Z=              0.0053  Tot=              0.0231
 Quadrupole moment (field-independent basis, Debye-Ang):
   XX=            -86.7506   YY=            -84.9737   ZZ=            -83.1832
   XY=              0.0082   XZ=             -0.6394   YZ=             -0.1573

 Normal termination of Gaussian 16 at Wed May  5 23:15:07 2021.
