 Gaussian 16, Revision A.03,
 Gaussian 16:  EM64L-G16RevA.03 25-Dec-2016

 -------------
 #p 6-31g* mp2
 -------------

 ------------------------------------------------------
 Input file generated by CHIRIPA (05-May-2021 14:55:24)
 ------------------------------------------------------
 Symbolic Z-matrix:
 Charge =  0 Multiplicity = 1

                         Standard orientation:
 ---------------------------------------------------------------------
 Center     Atomic      Atomic             Coordinates (Angstroms)
 Number     Number       Type             X           Y           Z
 ---------------------------------------------------------------------
      1          6           0        3.665299   -0.810431   -1.604282
      2          6           0        2.552336   -1.566547   -1.222021
      3          6           0        1.731656   -1.141658   -0.172972
      4          6           0        2.054802    0.049628    0.474873
      5          6           0        3.156713    0.825028    0.117330
      6          6           0        3.963410    0.380842   -0.934568
      7          1           0        4.297391   -1.147990   -2.420315
      8          1           0        2.318402   -2.492112   -1.740335
      9          1           0        0.863895   -1.707550    0.143532
     10          1           0        3.364444    1.743397    0.652925
     11          1           0        4.827108    0.970092   -1.229280
     12          7           0        1.193387    0.509653    1.586961
     13          8           0        1.499578    1.562791    2.141745
     14          8           0        0.228329   -0.191628    1.882776
     15          6           0       -3.010195   -0.527428    0.105761
     16          6           0       -2.670781   -1.922392   -0.420412
     17          6           0       -3.073596   -3.034037    0.549010
     18          1           0       -2.507878   -0.374222    1.070722
     19          1           0       -4.089689   -0.470083    0.302735
     20          1           0       -1.592461   -1.976646   -0.617644
     21          1           0       -3.173810   -2.072223   -1.384325
     22          1           0       -4.151687   -3.008541    0.737877
     23          1           0       -2.561353   -2.912421    1.508915
     24          1           0       -2.821836   -4.022799    0.152995
     25          6           0       -2.613545    0.594473   -0.852224
     26          6           0       -2.952960    1.989436   -0.326050
     27          6           0       -2.550144    3.101082   -1.295472
     28          1           0       -1.534051    0.537127   -1.049198
     29          1           0       -3.115862    0.441267   -1.817185
     30          1           0       -2.449929    2.139268    0.637862
     31          1           0       -4.031279    2.043691   -0.128819
     32          1           0       -3.062387    2.979466   -2.255377
     33          1           0       -1.472053    3.075584   -1.484340
     34          1           0       -2.801903    4.089844   -0.899458
 ---------------------------------------------------------------------

 SCF Done:  E(RHF) =  -669.536338112     A.U. after   15 cycles
 E2 =    -0.2092831284D+01 EUMP2 =    -0.67162916939545D+03

 The electronic state is 1-A.
 Alpha  occ. eigenvalues --  -20.61027 -20.61020 -15.86052 -11.31336 -11.27886
 Alpha  occ. eigenvalues --  -11.27880 -11.27613 -11.26889 -11.26877 -11.21256
 Alpha  occ. eigenvalues --  -11.20893 -11.20770 -11.20672 -11.20557 -11.20501
 Alpha  occ. eigenvalues --   -1.60082  -1.39639  -1.19496  -1.08907  -1.07793
 Alpha  occ. eigenvalues --   -1.04884  -1.02998  -0.95757  -0.95426  -0.86455
 Alpha  occ. eigenvalues --   -0.86287  -0.82593  -0.79065  -0.77653  -0.77598
 Alpha  occ. eigenvalues --   -0.72285  -0.71399  -0.70604  -0.65161  -0.64905
 Alpha  occ. eigenvalues --   -0.64372  -0.62237  -0.60384  -0.58813  -0.57050
 Alpha  occ. eigenvalues --   -0.55389  -0.54698  -0.53218  -0.52979  -0.52175
 Alpha  occ. eigenvalues --   -0.51865  -0.49372  -0.49037  -0.49026  -0.47388
 Alpha  occ. eigenvalues --   -0.46088  -0.45303  -0.45114  -0.44766  -0.43208
 Alpha  occ. eigenvalues --   -0.37466  -0.36475
 Alpha virt. eigenvalues --    0.04829   0.11089   0.16325   0.20362   0.23136
 Alpha virt. eigenvalues --    0.24408   0.26245   0.27491   0.28147   0.28609
 Alpha virt. eigenvalues --    0.28905   0.30923   0.31453   0.32159   0.32346

 Mulliken charges:
               1
     1  C   -0.170362
     2  C   -0.219665
     3  C   -0.175090
     4  C    0.157243
     5  C   -0.170538
     6  C   -0.218468
     7  H    0.226312
     8  H    0.224508
     9  H    0.282736
    10  H    0.275903
    11  H    0.224069
    12  N    0.489912
    13  O   -0.458414
    14  O   -0.463252
    15  C   -0.306949
    16  C   -0.297268
    17  C   -0.477984
    18  H    0.177330
    19  H    0.145718
    20  H    0.139970
    21  H    0.148460
    22  H    0.155717
    23  H    0.163189
    24  H    0.154099
    25  C   -0.295720
    26  C   -0.302844
    27  C   -0.474620
    28  H    0.143295
    29  H    0.144492
    30  H    0.163628
    31  H    0.150131
    32  H    0.151812
    33  H    0.152514
    34  H    0.160139
 Sum of Mulliken charges =  -0.00000

 Dipole moment (field-independent basis, Debye):
    X=              3.1765    Y=             -1.5428    Z=             -3.6721  Tot=              5.0946
 Quadrupole moment (field-independent basis, Debye-Ang):
   XX=            -80.2339   YY=            -93.2170   ZZ=            -99.3429
   XY=             -0.8188   XZ=             -6.5679   YZ=              0.2878

 Normal termination of Gaussian 16 at Thu May  6 19:21:28 2021.
