 Gaussian 16, Revision A.03,
 Gaussian 16:  EM64L-G16RevA.03 25-Dec-2016

 -------------
 #p 6-31g* mp2
 -------------

 ------------------------------------------------------
 Input file generated by CHIRIPA (05-May-2021 14:55:22)
 ------------------------------------------------------
 Symbolic Z-matrix:
 Charge =  0 Multiplicity = 1

                         Standard orientation:
 ---------------------------------------------------------------------
 Center     Atomic      Atomic             Coordinates (Angstroms)
 Number     Number       Type             X           Y           Z
 ---------------------------------------------------------------------
      1          6           0       -4.789360    0.035996   -0.425630
      2          6           0       -4.218699    0.587796    0.726057
      3          6           0       -2.889791    0.312463    1.061829
      4          6           0       -2.157244   -0.522554    0.219562
      5          6           0       -2.697473   -1.087479   -0.934691
      6          6           0       -4.028268   -0.798409   -1.250873
      7          1           0       -5.822421    0.255217   -0.678857
      8          1           0       -4.807392    1.236147    1.368807
      9          1           0       -2.423002    0.726276    1.947427
     10          1           0       -2.085542   -1.730204   -1.555870
     11          1           0       -4.468831   -1.228346   -2.145917
     12          7           0       -0.749390   -0.821308    0.564660
     13          8           0       -0.125200   -1.559984   -0.193880
     14          8           0       -0.296761   -0.311139    1.587153
     15          6           0        3.364950   -0.031990   -0.495553
     16          6           0        4.369222   -0.698935    0.444985
     17          6           0        4.974129   -1.973748   -0.143853
     18          1           0        2.563157   -0.745191   -0.730957
     19          1           0        3.863494    0.202796   -1.446197
     20          1           0        3.869294   -0.931138    1.394074
     21          1           0        5.168616    0.016001    0.678331
     22          1           0        5.497614   -1.754913   -1.080162
     23          1           0        4.190909   -2.707434   -0.360351
     24          1           0        5.689209   -2.434141    0.545031
     25          6           0        2.751594    1.243676    0.079076
     26          6           0        1.747323    1.910621   -0.861461
     27          6           0        1.142415    3.185436   -0.272625
     28          1           0        2.253051    1.008892    1.029721
     29          1           0        3.553388    1.956878    0.314481
     30          1           0        0.947927    1.195686   -1.094808
     31          1           0        2.247250    2.142825   -1.810551
     32          1           0        1.925636    3.919121   -0.056124
     33          1           0        0.618930    2.966600    0.663686
     34          1           0        0.427335    3.645828   -0.961507
 ---------------------------------------------------------------------

 SCF Done:  E(RHF) =  -669.536995974     A.U. after   15 cycles
 E2 =    -0.2093549393D+01 EUMP2 =    -0.67163054536611D+03

 The electronic state is 1-A.
 Alpha  occ. eigenvalues --  -20.61248 -20.61242 -15.86222 -11.31432 -11.27977
 Alpha  occ. eigenvalues --  -11.27973 -11.27695 -11.26956 -11.26946 -11.20525
 Alpha  occ. eigenvalues --  -11.20261 -11.20138 -11.19825 -11.19790 -11.19625
 Alpha  occ. eigenvalues --   -1.60274  -1.39835  -1.19585  -1.09014  -1.06975
 Alpha  occ. eigenvalues --   -1.04961  -1.02297  -0.95876  -0.94726  -0.86369
 Alpha  occ. eigenvalues --   -0.85767  -0.82715  -0.78368  -0.77782  -0.76760
 Alpha  occ. eigenvalues --   -0.72445  -0.71603  -0.70694  -0.65243  -0.64970
 Alpha  occ. eigenvalues --   -0.63548  -0.62310  -0.59688  -0.58137  -0.56355
 Alpha  occ. eigenvalues --   -0.55476  -0.54010  -0.53291  -0.53053  -0.51529
 Alpha  occ. eigenvalues --   -0.51188  -0.49270  -0.49189  -0.48637  -0.46696
 Alpha  occ. eigenvalues --   -0.45595  -0.45208  -0.44286  -0.43920  -0.42459
 Alpha  occ. eigenvalues --   -0.37554  -0.36553
 Alpha virt. eigenvalues --    0.04685   0.11096   0.16154   0.21193   0.24255
 Alpha virt. eigenvalues --    0.25372   0.27141   0.27725   0.28542   0.28835
 Alpha virt. eigenvalues --    0.29272   0.30853   0.32056   0.32564   0.32847

 Mulliken charges:
               1
     1  C   -0.170068
     2  C   -0.218561
     3  C   -0.169956
     4  C    0.157334
     5  C   -0.170470
     6  C   -0.218604
     7  H    0.226606
     8  H    0.224452
     9  H    0.276027
    10  H    0.276205
    11  H    0.224395
    12  N    0.489494
    13  O   -0.458090
    14  O   -0.458034
    15  C   -0.307214
    16  C   -0.298830
    17  C   -0.475769
    18  H    0.174715
    19  H    0.138965
    20  H    0.158024
    21  H    0.144795
    22  H    0.150180
    23  H    0.159023
    24  H    0.155094
    25  C   -0.303696
    26  C   -0.297930
    27  C   -0.476951
    28  H    0.170036
    29  H    0.140681
    30  H    0.148237
    31  H    0.147169
    32  H    0.153271
    33  H    0.156771
    34  H    0.152701
 Sum of Mulliken charges =  -0.00000

 Dipole moment (field-independent basis, Debye):
    X=             -5.3737    Y=              0.8112    Z=             -1.0593  Tot=              5.5368
 Quadrupole moment (field-independent basis, Debye-Ang):
   XX=            -74.8662   YY=            -96.0788   ZZ=            -92.2088
   XY=              0.6644   XZ=              1.4532   YZ=              3.4024

 Normal termination of Gaussian 16 at Wed May  5 15:58:49 2021.
