 Gaussian 16, Revision A.03,
 Gaussian 16:  EM64L-G16RevA.03 25-Dec-2016

 -------------
 #p 6-31g* mp2
 -------------

 ------------------------------------------------------
 Input file generated by CHIRIPA (05-May-2021 14:51:14)
 ------------------------------------------------------
 Symbolic Z-matrix:
 Charge =  0 Multiplicity = 1

                         Standard orientation:
 ---------------------------------------------------------------------
 Center     Atomic      Atomic             Coordinates (Angstroms)
 Number     Number       Type             X           Y           Z
 ---------------------------------------------------------------------
      1          6           0        2.761233   -0.353463   -0.236196
      2          6           0        3.467604   -1.674378   -0.543132
      3          6           0        2.492403   -2.837767   -0.725627
      4          1           0        2.155067   -0.471638    0.672398
      5          1           0        2.061285   -0.122030   -1.051000
      6          1           0        4.167022   -1.902554    0.271341
      7          1           0        4.072310   -1.552989   -1.450993
      8          1           0        1.802092   -2.635935   -1.551057
      9          1           0        1.897342   -2.987486    0.181063
     10          1           0        3.018624   -3.772203   -0.944217
     11          6           0        3.722857    0.819034   -0.051106
     12          6           0        3.016487    2.139949    0.255831
     13          6           0        3.991687    3.303337    0.438326
     14          1           0        4.422805    0.587600    0.763699
     15          1           0        4.329024    0.937208   -0.959699
     16          1           0        2.411780    2.018560    1.163691
     17          1           0        2.317069    2.368125   -0.558642
     18          1           0        4.586749    3.453057   -0.468364
     19          1           0        4.681999    3.101506    1.263756
     20          1           0        3.465467    4.237773    0.656916
     21          6           0       -3.970583   -0.003322    0.147030
     22          6           0       -4.184775    1.345200   -0.541153
     23          6           0       -5.647316    1.790785   -0.526263
     24          1           0       -4.591805   -0.762775   -0.347196
     25          1           0       -4.324258    0.062472    1.185290
     26          1           0       -3.829528    1.277291   -1.577398
     27          1           0       -3.562825    2.101492   -0.045352
     28          1           0       -6.010420    1.886509    0.502131
     29          1           0       -6.278638    1.057625   -1.038619
     30          1           0       -5.777687    2.757073   -1.023405
     31          6           0       -2.513508   -0.462249    0.140271
     32          6           0       -2.299316   -1.810771    0.828454
     33          6           0       -0.836775   -2.256356    0.813564
     34          1           0       -2.159833   -0.528044   -0.897987
     35          1           0       -1.892286    0.297203    0.634497
     36          1           0       -2.921266   -2.567063    0.332654
     37          1           0       -2.654563   -1.742861    1.864699
     38          1           0       -0.205453   -1.523196    1.325921
     39          1           0       -0.473671   -2.352080   -0.214830
     40          1           0       -0.706404   -3.222644    1.310708
 ---------------------------------------------------------------------

 SCF Done:  E(RHF) =  -470.732157419     A.U. after   11 cycles
 E2 =    -0.1583606168D+01 EUMP2 =    -0.47231576358699D+03

 The electronic state is 1-A.
 Alpha  occ. eigenvalues --  -11.21586 -11.21586 -11.21541 -11.21529 -11.21377
 Alpha  occ. eigenvalues --  -11.21358 -11.21317 -11.21292 -11.21060 -11.21060
 Alpha  occ. eigenvalues --  -11.20969 -11.20915  -1.08412  -1.08372  -1.03541
 Alpha  occ. eigenvalues --   -1.03439  -0.96015  -0.95869  -0.87073  -0.86857
 Alpha  occ. eigenvalues --   -0.79729  -0.79410  -0.78284  -0.78107  -0.65056
 Alpha  occ. eigenvalues --   -0.64996  -0.60930  -0.60858  -0.59337  -0.59298
 Alpha  occ. eigenvalues --   -0.57665  -0.57460  -0.55269  -0.55197  -0.52783
 Alpha  occ. eigenvalues --   -0.52629  -0.52476  -0.52159  -0.49910  -0.49823
 Alpha  occ. eigenvalues --   -0.48170  -0.47601  -0.46629  -0.46527  -0.45940
 Alpha  occ. eigenvalues --   -0.45728  -0.45600  -0.45416  -0.43743  -0.43730
 Alpha virt. eigenvalues --    0.21900   0.23087   0.23626   0.24788   0.25073
 Alpha virt. eigenvalues --    0.26607   0.26975   0.27459   0.28043   0.29546
 Alpha virt. eigenvalues --    0.29853   0.31089   0.31619   0.31948   0.32453

 Mulliken charges:
               1
     1  C   -0.300682
     2  C   -0.299499
     3  C   -0.480412
     4  H    0.152471
     5  H    0.149337
     6  H    0.151352
     7  H    0.151249
     8  H    0.153214
     9  H    0.165878
    10  H    0.158950
    11  C   -0.298114
    12  C   -0.299460
    13  C   -0.475652
    14  H    0.149285
    15  H    0.149560
    16  H    0.151202
    17  H    0.152109
    18  H    0.155218
    19  H    0.155119
    20  H    0.160094
    21  C   -0.298236
    22  C   -0.299584
    23  C   -0.475680
    24  H    0.149565
    25  H    0.149449
    26  H    0.151752
    27  H    0.151986
    28  H    0.155159
    29  H    0.155143
    30  H    0.160171
    31  C   -0.298044
    32  C   -0.301054
    33  C   -0.480301
    34  H    0.149098
    35  H    0.149814
    36  H    0.151686
    37  H    0.151165
    38  H    0.156421
    39  H    0.161446
    40  H    0.158827
 Sum of Mulliken charges =  -0.00000

 Dipole moment (field-independent basis, Debye):
    X=              0.0002    Y=             -0.0196    Z=              0.0030  Tot=              0.0199
 Quadrupole moment (field-independent basis, Debye-Ang):
   XX=            -86.3692   YY=            -85.6318   ZZ=            -83.0438
   XY=             -0.0227   XZ=              0.1165   YZ=              0.0863

 Normal termination of Gaussian 16 at Wed May  5 16:54:02 2021.
