 Gaussian 16, Revision A.03,
 Gaussian 16:  EM64L-G16RevA.03 25-Dec-2016

 -------------
 #p 6-31g* mp2
 -------------

 ------------------------------------------------------
 Input file generated by CHIRIPA (05-May-2021 14:57:24)
 ------------------------------------------------------
 Symbolic Z-matrix:
 Charge =  0 Multiplicity = 1

                         Standard orientation:
 ---------------------------------------------------------------------
 Center     Atomic      Atomic             Coordinates (Angstroms)
 Number     Number       Type             X           Y           Z
 ---------------------------------------------------------------------
      1          6           0        1.553487    1.685756    1.080354
      2          6           0        1.289757    0.409565    0.572119
      3          6           0        2.317251   -0.361050    0.019891
      4          6           0        3.602501    0.178061   -0.008080
      5          6           0        3.896937    1.446228    0.490269
      6          6           0        2.853943    2.199109    1.037882
      7          1           0        0.749284    2.277500    1.507546
      8          1           0        0.280770    0.008331    0.603777
      9          1           0        2.141029   -1.351977   -0.380644
     10          1           0        4.912907    1.819256    0.444730
     11          1           0        3.061689    3.189908    1.431843
     12          7           0        4.698468   -0.628367   -0.590256
     13          8           0        5.822195   -0.130664   -0.603094
     14          8           0        4.413007   -1.742880   -1.022704
     15          6           0       -2.003226   -2.137247    0.921130
     16          6           0       -3.066319   -1.593495    1.649614
     17          6           0       -3.859004   -0.581214    1.100534
     18          6           0       -3.559022   -0.134413   -0.185416
     19          6           0       -2.506725   -0.656094   -0.936289
     20          6           0       -1.727309   -1.667640   -0.367225
     21          1           0       -1.392604   -2.923326    1.355431
     22          1           0       -3.282920   -1.956248    2.650382
     23          1           0       -4.688094   -0.142548    1.642382
     24          1           0       -2.315247   -0.273939   -1.931635
     25          1           0       -0.902334   -2.088069   -0.935292
     26          7           0       -4.391178    0.936854   -0.777280
     27          8           0       -4.106259    1.313142   -1.912123
     28          8           0       -5.312585    1.379940   -0.095136
 ---------------------------------------------------------------------

 SCF Done:  E(RHF) =  -868.337373403     A.U. after   16 cycles
 E2 =    -0.2601206950D+01 EUMP2 =    -0.87093858035315D+03

 The electronic state is 1-A.
 Alpha  occ. eigenvalues --  -20.61544 -20.61539 -20.61094 -20.61077 -15.86605
 Alpha  occ. eigenvalues --  -15.86139 -11.32151 -11.31492 -11.28756 -11.28720
 Alpha  occ. eigenvalues --  -11.28508 -11.28091 -11.28001 -11.27800 -11.27732
 Alpha  occ. eigenvalues --  -11.27695 -11.27005 -11.26900  -1.60619  -1.60162
 Alpha  occ. eigenvalues --   -1.40166  -1.39718  -1.20370  -1.19630  -1.09720
 Alpha  occ. eigenvalues --   -1.09013  -1.05788  -1.05030  -0.96506  -0.95867
 Alpha  occ. eigenvalues --   -0.87160  -0.86419  -0.83326  -0.82704  -0.78350
 Alpha  occ. eigenvalues --   -0.77769  -0.72812  -0.72356  -0.71953  -0.71485
 Alpha  occ. eigenvalues --   -0.71405  -0.70736  -0.65989  -0.65761  -0.65270
 Alpha  occ. eigenvalues --   -0.65039  -0.63101  -0.62400  -0.56227  -0.55521
 Alpha  occ. eigenvalues --   -0.54257  -0.53828  -0.53358  -0.52934  -0.49589
 Alpha  occ. eigenvalues --   -0.49559  -0.49122  -0.49103  -0.45529  -0.45128
 Alpha  occ. eigenvalues --   -0.38355  -0.37601  -0.37385  -0.36623
 Alpha virt. eigenvalues --    0.04166   0.04768   0.10142   0.11013   0.15565
 Alpha virt. eigenvalues --    0.16328   0.19653   0.21727   0.25039   0.27441
 Alpha virt. eigenvalues --    0.27830   0.28515   0.30259   0.31209   0.31504

 Mulliken charges:
               1
     1  C   -0.172894
     2  C   -0.226874
     3  C   -0.177336
     4  C    0.159881
     5  C   -0.171390
     6  C   -0.217701
     7  H    0.228443
     8  H    0.235148
     9  H    0.266655
    10  H    0.276385
    11  H    0.225024
    12  N    0.488272
    13  O   -0.458673
    14  O   -0.462975
    15  C   -0.173311
    16  C   -0.218618
    17  C   -0.170898
    18  C    0.157940
    19  C   -0.170635
    20  C   -0.235017
    21  H    0.231170
    22  H    0.227685
    23  H    0.278687
    24  H    0.280516
    25  H    0.228577
    26  N    0.487767
    27  O   -0.457555
    28  O   -0.458271
 Sum of Mulliken charges =  -0.00000

 Dipole moment (field-independent basis, Debye):
    X=             -1.2225    Y=             -0.8691    Z=              4.1800  Tot=              4.4410
 Quadrupole moment (field-independent basis, Debye-Ang):
   XX=           -149.9529   YY=           -100.7147   ZZ=           -102.7310
   XY=             25.7548   XZ=             -2.4904   YZ=              1.6752

 Normal termination of Gaussian 16 at Thu May  6 03:26:24 2021.
