 Gaussian 16, Revision A.03,
 Gaussian 16:  EM64L-G16RevA.03 25-Dec-2016

 -------------
 #p 6-31g* mp2
 -------------

 ------------------------------------------------------
 Input file generated by CHIRIPA (05-May-2021 14:55:19)
 ------------------------------------------------------
 Symbolic Z-matrix:
 Charge =  0 Multiplicity = 1

                         Standard orientation:
 ---------------------------------------------------------------------
 Center     Atomic      Atomic             Coordinates (Angstroms)
 Number     Number       Type             X           Y           Z
 ---------------------------------------------------------------------
      1          6           0        1.301518   -2.191161    0.770414
      2          6           0        0.817846   -1.103477    0.035889
      3          6           0        1.691123   -0.114782   -0.427163
      4          6           0        3.048108   -0.245962   -0.136179
      5          6           0        3.560519   -1.317754    0.593195
      6          6           0        2.668900   -2.294646    1.046236
      7          1           0        0.616011   -2.954618    1.126235
      8          1           0       -0.243584   -1.020512   -0.179814
      9          1           0        1.343608    0.737762   -0.997971
     10          1           0        4.623840   -1.373096    0.792453
     11          1           0        3.047348   -3.138256    1.616450
     12          7           0        3.982317    0.794478   -0.621092
     13          8           0        5.173403    0.655808   -0.351424
     14          8           0        3.505773    1.728942   -1.261654
     15          6           0       -3.546117    1.110657    0.547600
     16          6           0       -2.195680    1.772018    0.270275
     17          6           0       -1.893061    2.923229    1.229925
     18          1           0       -4.339338    1.867410    0.476391
     19          1           0       -3.559544    0.740146    1.581977
     20          1           0       -2.184294    2.139945   -0.763706
     21          1           0       -1.405602    1.013563    0.341964
     22          1           0       -1.877198    2.567656    2.265259
     23          1           0       -2.660314    3.700437    1.153308
     24          1           0       -0.923017    3.381642    1.013751
     25          6           0       -3.862881   -0.042015   -0.403577
     26          6           0       -5.213317   -0.703375   -0.126252
     27          6           0       -5.515937   -1.854586   -1.085902
     28          1           0       -3.849453    0.328497   -1.437954
     29          1           0       -3.069660   -0.798768   -0.332368
     30          1           0       -6.003396    0.055079   -0.197941
     31          1           0       -5.224704   -1.071302    0.907728
     32          1           0       -4.748683   -2.631795   -1.009285
     33          1           0       -5.531799   -1.499014   -2.121236
     34          1           0       -6.485981   -2.313001   -0.869728
 ---------------------------------------------------------------------

 SCF Done:  E(RHF) =  -669.535373260     A.U. after   15 cycles
 E2 =    -0.2091949188D+01 EUMP2 =    -0.67162732244729D+03

 The electronic state is 1-A.
 Alpha  occ. eigenvalues --  -20.60754 -20.60749 -15.85808 -11.31175 -11.27756
 Alpha  occ. eigenvalues --  -11.27737 -11.27496 -11.26769 -11.26731 -11.22316
 Alpha  occ. eigenvalues --  -11.22275 -11.22208 -11.22056 -11.21675 -11.21498
 Alpha  occ. eigenvalues --   -1.59829  -1.39382  -1.19353  -1.09148  -1.08747
 Alpha  occ. eigenvalues --   -1.04759  -1.04161  -0.96591  -0.95581  -0.87602
 Alpha  occ. eigenvalues --   -0.86155  -0.82421  -0.80246  -0.78997  -0.77450
 Alpha  occ. eigenvalues --   -0.72026  -0.71152  -0.70461  -0.65832  -0.65005
 Alpha  occ. eigenvalues --   -0.64736  -0.62153  -0.61515  -0.59953  -0.58211
 Alpha  occ. eigenvalues --   -0.55878  -0.55262  -0.53264  -0.53087  -0.53009
 Alpha  occ. eigenvalues --   -0.52853  -0.50531  -0.48790  -0.48780  -0.48544
 Alpha  occ. eigenvalues --   -0.47284  -0.46502  -0.46422  -0.44787  -0.44433
 Alpha  occ. eigenvalues --   -0.37335  -0.36341
 Alpha virt. eigenvalues --    0.05053   0.11268   0.16422   0.19362   0.22688
 Alpha virt. eigenvalues --    0.23663   0.24434   0.26315   0.26754   0.28364
 Alpha virt. eigenvalues --    0.29204   0.30661   0.31242   0.31370   0.32138

 Mulliken charges:
               1
     1  C   -0.172270
     2  C   -0.224060
     3  C   -0.172126
     4  C    0.158456
     5  C   -0.170837
     6  C   -0.218576
     7  H    0.225525
     8  H    0.230997
     9  H    0.277124
    10  H    0.275627
    11  H    0.223379
    12  N    0.488141
    13  O   -0.460550
    14  O   -0.460359
    15  C   -0.298498
    16  C   -0.306316
    17  C   -0.476027
    18  H    0.153857
    19  H    0.150114
    20  H    0.154375
    21  H    0.145743
    22  H    0.156012
    23  H    0.157741
    24  H    0.165539
    25  C   -0.300082
    26  C   -0.300062
    27  C   -0.475821
    28  H    0.152609
    29  H    0.140581
    30  H    0.155304
    31  H    0.152193
    32  H    0.152564
    33  H    0.157050
    34  H    0.162652
 Sum of Mulliken charges =  -0.00000

 Dipole moment (field-independent basis, Debye):
    X=             -3.4350    Y=             -3.5630    Z=              1.7287  Tot=              5.2424
 Quadrupole moment (field-independent basis, Debye-Ang):
   XX=           -111.2905   YY=            -92.2161   ZZ=            -94.9739
   XY=            -13.4570   XZ=              7.6448   YZ=             -2.0551

 Normal termination of Gaussian 16 at Thu May  6 14:02:24 2021.
