 Gaussian 16, Revision A.03,
 Gaussian 16:  EM64L-G16RevA.03 25-Dec-2016

 -------------
 #p 6-31g* mp2
 -------------

 ------------------------------------------------------
 Input file generated by CHIRIPA (05-May-2021 14:57:21)
 ------------------------------------------------------
 Symbolic Z-matrix:
 Charge =  0 Multiplicity = 1

                         Standard orientation:
 ---------------------------------------------------------------------
 Center     Atomic      Atomic             Coordinates (Angstroms)
 Number     Number       Type             X           Y           Z
 ---------------------------------------------------------------------
      1          6           0       -6.227486    1.015498    0.415405
      2          6           0       -5.836691   -0.141366    1.097656
      3          6           0       -4.587155   -0.720100    0.856254
      4          6           0       -3.749706   -0.112874   -0.078222
      5          6           0       -4.110402    1.039982   -0.774002
      6          6           0       -5.364616    1.601447   -0.516603
      7          1           0       -7.199973    1.458364    0.609146
      8          1           0       -6.504750   -0.598589    1.822011
      9          1           0       -4.259324   -1.615489    1.370280
     10          1           0       -3.422765    1.472930   -1.490332
     11          1           0       -5.665462    2.499905   -1.047931
     12          7           0       -2.424402   -0.716413   -0.342252
     13          8           0       -1.704915   -0.162168   -1.170375
     14          8           0       -2.130211   -1.732283    0.283925
     15          6           0        6.069830    1.353818    0.424683
     16          6           0        6.143952   -0.033980    0.266427
     17          6           0        4.985945   -0.786750    0.049851
     18          6           0        3.764948   -0.116182   -0.002994
     19          6           0        3.658489    1.265213    0.150966
     20          6           0        4.829521    1.997849    0.366550
     21          1           0        6.974457    1.930767    0.592540
     22          1           0        7.105828   -0.536817    0.311104
     23          1           0        5.014557   -1.862285   -0.075942
     24          1           0        2.685268    1.738298    0.101485
     25          1           0        4.768940    3.075510    0.489110
     26          7           0        2.532123   -0.902448   -0.231748
     27          8           0        1.468560   -0.287897   -0.274130
     28          8           0        2.652742   -2.118389   -0.364332
 ---------------------------------------------------------------------

 SCF Done:  E(RHF) =  -868.333999989     A.U. after   16 cycles
 E2 =    -0.2600786713D+01 EUMP2 =    -0.87093478670200D+03

 The electronic state is 1-A.
 Alpha  occ. eigenvalues --  -20.59464 -20.59456 -20.59428 -20.59378 -15.84534
 Alpha  occ. eigenvalues --  -15.84493 -11.30382 -11.30330 -11.27014 -11.27001
 Alpha  occ. eigenvalues --  -11.26960 -11.26954 -11.26842 -11.26796 -11.26138
 Alpha  occ. eigenvalues --  -11.26123 -11.26086 -11.26075  -1.58509  -1.58490
 Alpha  occ. eigenvalues --   -1.38065  -1.38031  -1.18600  -1.18551  -1.07904
 Alpha  occ. eigenvalues --   -1.07855  -1.04075  -1.04024  -0.94670  -0.94589
 Alpha  occ. eigenvalues --   -0.85451  -0.85401  -0.81509  -0.81423  -0.76455
 Alpha  occ. eigenvalues --   -0.76409  -0.70851  -0.70571  -0.69864  -0.69850
 Alpha  occ. eigenvalues --   -0.69705  -0.69655  -0.64244  -0.64187  -0.64081
 Alpha  occ. eigenvalues --   -0.64032  -0.61419  -0.61368  -0.54563  -0.54513
 Alpha  occ. eigenvalues --   -0.52379  -0.52329  -0.52175  -0.52125  -0.47772
 Alpha  occ. eigenvalues --   -0.47461  -0.47446  -0.47093  -0.43385  -0.43317
 Alpha  occ. eigenvalues --   -0.36608  -0.36561  -0.35703  -0.35651
 Alpha virt. eigenvalues --    0.06086   0.06134   0.11944   0.11997   0.17491
 Alpha virt. eigenvalues --    0.17548   0.22016   0.22068   0.27893   0.27941
 Alpha virt. eigenvalues --    0.28946   0.29006   0.31529   0.31582   0.33208

 Mulliken charges:
               1
     1  C   -0.172511
     2  C   -0.218516
     3  C   -0.171820
     4  C    0.159719
     5  C   -0.172061
     6  C   -0.218569
     7  H    0.222439
     8  H    0.220936
     9  H    0.275503
    10  H    0.274535
    11  H    0.220327
    12  N    0.487119
    13  O   -0.450133
    14  O   -0.456471
    15  C   -0.172406
    16  C   -0.218528
    17  C   -0.171725
    18  C    0.159463
    19  C   -0.171773
    20  C   -0.218575
    21  H    0.222304
    22  H    0.220749
    23  H    0.274989
    24  H    0.275806
    25  H    0.220188
    26  N    0.486509
    27  O   -0.445212
    28  O   -0.462287
 Sum of Mulliken charges =  -0.00000

 Dipole moment (field-independent basis, Debye):
    X=             -0.3584    Y=              4.7635    Z=              1.6473  Tot=              5.0530
 Quadrupole moment (field-independent basis, Debye-Ang):
   XX=            -40.0381   YY=           -100.7079   ZZ=           -104.1826
   XY=              0.7179   XZ=             -1.0408   YZ=             -2.9789

 Normal termination of Gaussian 16 at Thu May  6 14:27:04 2021.
