 Gaussian 16, Revision A.03,
 Gaussian 16:  EM64L-G16RevA.03 25-Dec-2016

 -------------
 #p 6-31g* mp2
 -------------

 ------------------------------------------------------
 Input file generated by CHIRIPA (05-May-2021 14:55:25)
 ------------------------------------------------------
 Symbolic Z-matrix:
 Charge =  0 Multiplicity = 1

                         Standard orientation:
 ---------------------------------------------------------------------
 Center     Atomic      Atomic             Coordinates (Angstroms)
 Number     Number       Type             X           Y           Z
 ---------------------------------------------------------------------
      1          6           0       -1.891749    2.429017   -0.809327
      2          6           0       -2.641522    2.065075    0.314019
      3          6           0       -2.956154    0.724134    0.553665
      4          6           0       -2.502813   -0.231111   -0.354785
      5          6           0       -1.753988    0.099966   -1.483031
      6          6           0       -1.451152    1.447032   -1.702692
      7          1           0       -1.651917    3.473072   -0.987728
      8          1           0       -2.985025    2.825558    1.009517
      9          1           0       -3.535009    0.414563    1.415356
     10          1           0       -1.425566   -0.680664   -2.158437
     11          1           0       -0.868701    1.726758   -2.575933
     12          7           0       -2.829656   -1.653948   -0.111661
     13          8           0       -2.418443   -2.476487   -0.927118
     14          8           0       -3.490858   -1.919686    0.889753
     15          6           0        3.753745    0.257571    0.142707
     16          6           0        4.707488   -0.850079   -0.306152
     17          6           0        5.941249   -0.310363   -1.030262
     18          1           0        3.440274    0.840424   -0.734199
     19          1           0        4.293119    0.951196    0.802521
     20          1           0        4.166104   -1.542175   -0.963815
     21          1           0        5.018575   -1.430481    0.571899
     22          1           0        6.506085    0.364102   -0.378605
     23          1           0        5.648771    0.251773   -1.923045
     24          1           0        6.609403   -1.119092   -1.342333
     25          6           0        2.515554   -0.266249    0.868120
     26          6           0        1.561812    0.841400    1.316979
     27          6           0        0.328051    0.301684    2.041090
     28          1           0        1.976180   -0.959875    0.208306
     29          1           0        2.829025   -0.849102    1.745025
     30          1           0        1.250726    1.421803    0.438929
     31          1           0        2.103196    1.533497    1.974643
     32          1           0        0.620528   -0.260451    2.933872
     33          1           0       -0.236785   -0.372780    1.389432
     34          1           0       -0.340103    1.110413    2.353161
 ---------------------------------------------------------------------

 SCF Done:  E(RHF) =  -669.533982686     A.U. after   15 cycles
 E2 =    -0.2094493647D+01 EUMP2 =    -0.67162847633339D+03

 The electronic state is 1-A.
 Alpha  occ. eigenvalues --  -20.60824 -20.60813 -15.85873 -11.31204 -11.27850
 Alpha  occ. eigenvalues --  -11.27796 -11.27607 -11.26874 -11.26831 -11.21671
 Alpha  occ. eigenvalues --  -11.21643 -11.21506 -11.21392 -11.21174 -11.20969
 Alpha  occ. eigenvalues --   -1.59899  -1.39451  -1.19447  -1.08838  -1.08495
 Alpha  occ. eigenvalues --   -1.04850  -1.03578  -0.96033  -0.95660  -0.87050
 Alpha  occ. eigenvalues --   -0.86244  -0.82495  -0.79653  -0.78311  -0.77535
 Alpha  occ. eigenvalues --   -0.72093  -0.71242  -0.70550  -0.65141  -0.65095
 Alpha  occ. eigenvalues --   -0.64851  -0.62192  -0.61025  -0.59421  -0.57650
 Alpha  occ. eigenvalues --   -0.55502  -0.55348  -0.53221  -0.52940  -0.52526
 Alpha  occ. eigenvalues --   -0.52421  -0.49917  -0.48852  -0.48847  -0.47964
 Alpha  occ. eigenvalues --   -0.46710  -0.45845  -0.45793  -0.44850  -0.43856
 Alpha  occ. eigenvalues --   -0.37343  -0.36377
 Alpha virt. eigenvalues --    0.04973   0.11132   0.16423   0.21262   0.22747
 Alpha virt. eigenvalues --    0.24164   0.26452   0.27036   0.27323   0.28029
 Alpha virt. eigenvalues --    0.28254   0.30601   0.31301   0.31780   0.32049

 Mulliken charges:
               1
     1  C   -0.170184
     2  C   -0.217004
     3  C   -0.166441
     4  C    0.157230
     5  C   -0.172655
     6  C   -0.217740
     7  H    0.226328
     8  H    0.223763
     9  H    0.276013
    10  H    0.275757
    11  H    0.223822
    12  N    0.489024
    13  O   -0.460944
    14  O   -0.459785
    15  C   -0.297464
    16  C   -0.299884
    17  C   -0.475542
    18  H    0.145265
    19  H    0.149080
    20  H    0.152945
    21  H    0.153504
    22  H    0.154970
    23  H    0.153353
    24  H    0.161216
    25  C   -0.298982
    26  C   -0.300483
    27  C   -0.473344
    28  H    0.151302
    29  H    0.151676
    30  H    0.148612
    31  H    0.149434
    32  H    0.156014
    33  H    0.156635
    34  H    0.154508
 Sum of Mulliken charges =  -0.00000

 Dipole moment (field-independent basis, Debye):
    X=              1.0503    Y=              4.9910    Z=             -0.8605  Tot=              5.1724
 Quadrupole moment (field-independent basis, Debye-Ang):
   XX=           -100.5626   YY=            -97.3996   ZZ=            -90.4995
   XY=            -14.1252   XZ=              0.3047   YZ=             -0.3001

 Normal termination of Gaussian 16 at Thu May  6 19:23:31 2021.
