 Gaussian 16, Revision A.03,
 Gaussian 16:  EM64L-G16RevA.03 25-Dec-2016

 -------------
 #p 6-31g* mp2
 -------------

 ------------------------------------------------------
 Input file generated by CHIRIPA (05-May-2021 14:57:27)
 ------------------------------------------------------
 Symbolic Z-matrix:
 Charge =  0 Multiplicity = 1

                         Standard orientation:
 ---------------------------------------------------------------------
 Center     Atomic      Atomic             Coordinates (Angstroms)
 Number     Number       Type             X           Y           Z
 ---------------------------------------------------------------------
      1          6           0        2.387333   -2.349187   -0.385257
      2          6           0        1.740953   -1.418095   -1.204880
      3          6           0        2.076142   -0.062335   -1.140771
      4          6           0        3.066806    0.329239   -0.241580
      5          6           0        3.728907   -0.574357    0.588135
      6          6           0        3.377501   -1.925093    0.507062
      7          1           0        2.120651   -3.400423   -0.441647
      8          1           0        0.971593   -1.744588   -1.898806
      9          1           0        1.591704    0.679727   -1.763734
     10          1           0        4.491813   -0.218719    1.269981
     11          1           0        3.881162   -2.645965    1.144805
     12          7           0        3.430240    1.761862   -0.164731
     13          8           0        4.306418    2.081365    0.635810
     14          8           0        2.832038    2.538123   -0.906494
     15          6           0       -5.046999    1.189045   -0.494082
     16          6           0       -4.730441   -0.034531   -1.093394
     17          6           0       -3.602529   -0.753561   -0.686753
     18          6           0       -2.809679   -0.217081    0.326591
     19          6           0       -3.098699    0.999341    0.943094
     20          6           0       -4.231555    1.701172    0.520461
     21          1           0       -5.925108    1.740924   -0.816181
     22          1           0       -5.361914   -0.434683   -1.881535
     23          1           0       -3.334189   -1.703157   -1.133609
     24          1           0       -2.450118    1.372665    1.726287
     25          1           0       -4.474958    2.651172    0.987688
     26          7           0       -1.612993   -0.969182    0.765549
     27          8           0       -0.930615   -0.474955    1.660389
     28          8           0       -1.380066   -2.038665    0.206454
 ---------------------------------------------------------------------

 SCF Done:  E(RHF) =  -868.339107989     A.U. after   16 cycles
 E2 =    -0.2599940240D+01 EUMP2 =    -0.87093904822929D+03

 The electronic state is 1-A.
 Alpha  occ. eigenvalues --  -20.61332 -20.61266 -20.59925 -20.59914 -15.86322
 Alpha  occ. eigenvalues --  -15.84965 -11.31545 -11.30034 -11.28132 -11.28049
 Alpha  occ. eigenvalues --  -11.27792 -11.27091 -11.27030 -11.26585 -11.26581
 Alpha  occ. eigenvalues --  -11.26194 -11.25533 -11.25479  -1.60355  -1.59001
 Alpha  occ. eigenvalues --   -1.39920  -1.38565  -1.19699  -1.18158  -1.09120
 Alpha  occ. eigenvalues --   -1.07592  -1.05076  -1.03550  -0.95982  -0.94493
 Alpha  occ. eigenvalues --   -0.86482  -0.84953  -0.82821  -0.81364  -0.77888
 Alpha  occ. eigenvalues --   -0.76461  -0.72566  -0.71677  -0.71200  -0.70801
 Alpha  occ. eigenvalues --   -0.70311  -0.69275  -0.65354  -0.65073  -0.63831
 Alpha  occ. eigenvalues --   -0.63564  -0.62426  -0.60938  -0.55577  -0.54021
 Alpha  occ. eigenvalues --   -0.53420  -0.53163  -0.51851  -0.51667  -0.49324
 Alpha  occ. eigenvalues --   -0.49269  -0.47967  -0.47925  -0.45354  -0.44042
 Alpha  occ. eigenvalues --   -0.37673  -0.36673  -0.36016  -0.35105
 Alpha virt. eigenvalues --    0.04613   0.06085   0.10982   0.12564   0.16154
 Alpha virt. eigenvalues --    0.17681   0.21144   0.22584   0.27059   0.27931
 Alpha virt. eigenvalues --    0.28466   0.29459   0.30718   0.31970   0.32424

 Mulliken charges:
               1
     1  C   -0.159766
     2  C   -0.206770
     3  C   -0.175585
     4  C    0.160995
     5  C   -0.170199
     6  C   -0.217079
     7  H    0.226062
     8  H    0.221884
     9  H    0.268268
    10  H    0.271517
    11  H    0.219874
    12  N    0.488334
    13  O   -0.463286
    14  O   -0.466050
    15  C   -0.170120
    16  C   -0.218336
    17  C   -0.172521
    18  C    0.157482
    19  C   -0.169714
    20  C   -0.218069
    21  H    0.227328
    22  H    0.223786
    23  H    0.272054
    24  H    0.278482
    25  H    0.226348
    26  N    0.488771
    27  O   -0.454189
    28  O   -0.469502
 Sum of Mulliken charges =  -0.00000

 Dipole moment (field-independent basis, Debye):
    X=             -5.7896    Y=             -2.4993    Z=             -1.6662  Tot=              6.5224
 Quadrupole moment (field-independent basis, Debye-Ang):
   XX=            -87.8976   YY=           -107.4353   ZZ=           -101.9129
   XY=            -23.6037   XZ=              6.1943   YZ=              4.4051

 Normal termination of Gaussian 16 at Thu May  6 11:32:29 2021.
