 Gaussian 16, Revision A.03,
 Gaussian 16:  EM64L-G16RevA.03 25-Dec-2016

 -------------
 #p 6-31g* mp2
 -------------

 ------------------------------------------------------
 Input file generated by CHIRIPA (05-May-2021 14:57:23)
 ------------------------------------------------------
 Symbolic Z-matrix:
 Charge =  0 Multiplicity = 1

                         Standard orientation:
 ---------------------------------------------------------------------
 Center     Atomic      Atomic             Coordinates (Angstroms)
 Number     Number       Type             X           Y           Z
 ---------------------------------------------------------------------
      1          6           0       -1.715117    0.033453    0.748458
      2          6           0       -2.529450    1.166988    0.840544
      3          6           0       -3.886018    1.095403    0.510169
      4          6           0       -4.397449   -0.131281    0.089486
      5          6           0       -3.611822   -1.278308   -0.012546
      6          6           0       -2.257944   -1.183432    0.322957
      7          1           0       -0.662347    0.098108    1.007094
      8          1           0       -2.110602    2.113356    1.170693
      9          1           0       -4.539137    1.957368    0.572383
     10          1           0       -4.058004   -2.207785   -0.344827
     11          1           0       -1.627900   -2.065383    0.250491
     12          7           0       -5.832163   -0.219394   -0.262982
     13          8           0       -6.258543   -1.311847   -0.630926
     14          8           0       -6.503144    0.805666   -0.164628
     15          6           0        2.450092    1.924411   -0.561274
     16          6           0        2.082096    0.578056   -0.653083
     17          6           0        3.021730   -0.431908   -0.425908
     18          6           0        4.326395   -0.057998   -0.107583
     19          6           0        4.723761    1.274519   -0.008642
     20          6           0        3.767428    2.267740   -0.239913
     21          1           0        1.713675    2.702472   -0.739339
     22          1           0        1.059760    0.308477   -0.902485
     23          1           0        2.763949   -1.482056   -0.490395
     24          1           0        5.750507    1.512216    0.241780
     25          1           0        4.056059    3.312514   -0.167921
     26          7           0        5.329982   -1.118339    0.135085
     27          8           0        6.472951   -0.762723    0.414004
     28          8           0        4.954622   -2.284973    0.041774
 ---------------------------------------------------------------------

 SCF Done:  E(RHF) =  -868.337195513     A.U. after   16 cycles
 E2 =    -0.2599971807D+01 EUMP2 =    -0.87093716732019D+03

 The electronic state is 1-A.
 Alpha  occ. eigenvalues --  -20.61428 -20.61418 -20.61271 -20.61265 -15.86486
 Alpha  occ. eigenvalues --  -15.86329 -11.31990 -11.31842 -11.28637 -11.28555
 Alpha  occ. eigenvalues --  -11.28416 -11.28397 -11.28374 -11.28214 -11.27670
 Alpha  occ. eigenvalues --  -11.27573 -11.27507 -11.27483  -1.60499  -1.60343
 Alpha  occ. eigenvalues --   -1.40049  -1.39892  -1.20190  -1.20030  -1.09559
 Alpha  occ. eigenvalues --   -1.09414  -1.05620  -1.05446  -0.96365  -0.96221
 Alpha  occ. eigenvalues --   -0.87009  -0.86847  -0.83208  -0.83031  -0.78223
 Alpha  occ. eigenvalues --   -0.78051  -0.72700  -0.72543  -0.71825  -0.71668
 Alpha  occ. eigenvalues --   -0.71301  -0.71170  -0.65841  -0.65688  -0.65647
 Alpha  occ. eigenvalues --   -0.65426  -0.62961  -0.62780  -0.56173  -0.55941
 Alpha  occ. eigenvalues --   -0.53923  -0.53843  -0.53608  -0.53539  -0.49469
 Alpha  occ. eigenvalues --   -0.49447  -0.49315  -0.49289  -0.45423  -0.45264
 Alpha  occ. eigenvalues --   -0.38192  -0.38040  -0.37224  -0.37047
 Alpha virt. eigenvalues --    0.04323   0.04431   0.10302   0.10578   0.15651
 Alpha virt. eigenvalues --    0.15814   0.19686   0.21667   0.25813   0.26542
 Alpha virt. eigenvalues --    0.27729   0.28563   0.29838   0.30698   0.31825

 Mulliken charges:
               1
     1  C   -0.179893
     2  C   -0.220110
     3  C   -0.170267
     4  C    0.159509
     5  C   -0.169751
     6  C   -0.220343
     7  H    0.227099
     8  H    0.222428
     9  H    0.277177
    10  H    0.278277
    11  H    0.224916
    12  N    0.487914
    13  O   -0.458219
    14  O   -0.459035
    15  C   -0.172624
    16  C   -0.227300
    17  C   -0.171772
    18  C    0.159352
    19  C   -0.169351
    20  C   -0.218125
    21  H    0.226162
    22  H    0.223786
    23  H    0.275038
    24  H    0.278410
    25  H    0.226206
    26  N    0.488072
    27  O   -0.457812
    28  O   -0.459745
 Sum of Mulliken charges =  -0.00000

 Dipole moment (field-independent basis, Debye):
    X=              1.5519    Y=              4.0584    Z=              0.3817  Tot=              4.3617
 Quadrupole moment (field-independent basis, Debye-Ang):
   XX=           -176.4273   YY=            -98.2063   ZZ=           -105.7063
   XY=             16.9216   XZ=             -7.8244   YZ=              1.3892

 Normal termination of Gaussian 16 at Thu May  6 09:44:59 2021.
