 Gaussian 16, Revision A.03,
 Gaussian 16:  EM64L-G16RevA.03 25-Dec-2016

 -------------
 #p 6-31g* mp2
 -------------

 ------------------------------------------------------
 Input file generated by CHIRIPA (05-May-2021 14:55:21)
 ------------------------------------------------------
 Symbolic Z-matrix:
 Charge =  0 Multiplicity = 1

                         Standard orientation:
 ---------------------------------------------------------------------
 Center     Atomic      Atomic             Coordinates (Angstroms)
 Number     Number       Type             X           Y           Z
 ---------------------------------------------------------------------
      1          6           0       -2.697692    1.402850    0.603558
      2          6           0       -2.028853    0.687949    1.602603
      3          6           0       -1.433457   -0.544177    1.316390
      4          6           0       -1.526559   -1.033911    0.014552
      5          6           0       -2.185969   -0.345335   -1.002469
      6          6           0       -2.773980    0.884840   -0.693502
      7          1           0       -3.157341    2.359237    0.834733
      8          1           0       -1.968025    1.087803    2.610801
      9          1           0       -0.909514   -1.118540    2.070716
     10          1           0       -2.229947   -0.769630   -1.998188
     11          1           0       -3.292765    1.437850   -1.471376
     12          7           0       -0.900148   -2.337275   -0.300493
     13          8           0       -0.996235   -2.747033   -1.455267
     14          8           0       -0.324943   -2.924414    0.613314
     15          6           0        2.751775    0.686547   -0.181997
     16          6           0        2.759029   -0.732424    0.387611
     17          6           0        4.097506   -1.443510    0.186032
     18          1           0        2.989160    0.645765   -1.253878
     19          1           0        3.552851    1.269190    0.293610
     20          1           0        1.957291   -1.311818   -0.087925
     21          1           0        2.521411   -0.688276    1.458219
     22          1           0        4.905369   -0.889943    0.675441
     23          1           0        4.338045   -1.517028   -0.879490
     24          1           0        4.080519   -2.456256    0.600658
     25          6           0        1.420509    1.410353    0.011821
     26          6           0        1.413255    2.829324   -0.557786
     27          6           0        0.074779    3.540409   -0.356208
     28          1           0        0.619433    0.827710   -0.463785
     29          1           0        1.183124    1.451135    1.083702
     30          1           0        1.650873    2.785176   -1.628395
     31          1           0        2.214993    3.408717   -0.082250
     32          1           0       -0.165761    3.613926    0.709314
     33          1           0       -0.733085    2.986843   -0.845616
     34          1           0        0.091765    4.553156   -0.770834
 ---------------------------------------------------------------------

 SCF Done:  E(RHF) =  -669.532719028     A.U. after   15 cycles
 E2 =    -0.2098116514D+01 EUMP2 =    -0.67163083554182D+03

 The electronic state is 1-A.
 Alpha  occ. eigenvalues --  -20.60910 -20.60892 -15.85926 -11.31229 -11.27875
 Alpha  occ. eigenvalues --  -11.27832 -11.27588 -11.26846 -11.26805 -11.21675
 Alpha  occ. eigenvalues --  -11.21301 -11.21218 -11.21106 -11.21047 -11.20498
 Alpha  occ. eigenvalues --   -1.59975  -1.39526  -1.19473  -1.08865  -1.08250
 Alpha  occ. eigenvalues --   -1.04864  -1.03335  -0.95864  -0.95645  -0.86846
 Alpha  occ. eigenvalues --   -0.86258  -0.82528  -0.79451  -0.78072  -0.77574
 Alpha  occ. eigenvalues --   -0.72159  -0.71311  -0.70562  -0.65113  -0.64922
 Alpha  occ. eigenvalues --   -0.64841  -0.62206  -0.60759  -0.59224  -0.57423
 Alpha  occ. eigenvalues --   -0.55355  -0.55138  -0.53397  -0.52948  -0.52485
 Alpha  occ. eigenvalues --   -0.52279  -0.49806  -0.48924  -0.48919  -0.47660
 Alpha  occ. eigenvalues --   -0.46494  -0.45559  -0.45497  -0.44703  -0.43573
 Alpha  occ. eigenvalues --   -0.37309  -0.36406
 Alpha virt. eigenvalues --    0.04935   0.11004   0.16347   0.20973   0.23099
 Alpha virt. eigenvalues --    0.24398   0.26120   0.27047   0.27532   0.27941
 Alpha virt. eigenvalues --    0.28845   0.30658   0.31008   0.31995   0.32379

 Mulliken charges:
               1
     1  C   -0.164150
     2  C   -0.216331
     3  C   -0.166734
     4  C    0.156986
     5  C   -0.174134
     6  C   -0.220384
     7  H    0.227533
     8  H    0.223443
     9  H    0.276155
    10  H    0.275945
    11  H    0.224435
    12  N    0.486917
    13  O   -0.459871
    14  O   -0.457320
    15  C   -0.298473
    16  C   -0.301348
    17  C   -0.475684
    18  H    0.149711
    19  H    0.147008
    20  H    0.160671
    21  H    0.147213
    22  H    0.150929
    23  H    0.155303
    24  H    0.166010
    25  C   -0.300906
    26  C   -0.298190
    27  C   -0.477428
    28  H    0.154607
    29  H    0.143525
    30  H    0.152023
    31  H    0.151408
    32  H    0.147474
    33  H    0.156240
    34  H    0.157415
 Sum of Mulliken charges =  -0.00000

 Dipole moment (field-independent basis, Debye):
    X=             -2.3414    Y=              4.3807    Z=              1.1303  Tot=              5.0941
 Quadrupole moment (field-independent basis, Debye-Ang):
   XX=            -88.9424   YY=           -105.7179   ZZ=            -89.5102
   XY=             -4.7167   XZ=              0.1506   YZ=             -1.2269

 Normal termination of Gaussian 16 at Thu May  6 19:11:36 2021.
