 Gaussian 16, Revision A.03,
 Gaussian 16:  EM64L-G16RevA.03 25-Dec-2016

 -------------
 #p 6-31g* mp2
 -------------

 ------------------------------------------------------
 Input file generated by CHIRIPA (05-May-2021 14:51:10)
 ------------------------------------------------------
 Symbolic Z-matrix:
 Charge =  0 Multiplicity = 1

                         Standard orientation:
 ---------------------------------------------------------------------
 Center     Atomic      Atomic             Coordinates (Angstroms)
 Number     Number       Type             X           Y           Z
 ---------------------------------------------------------------------
      1          6           0       -2.125638    1.451120    0.398087
      2          6           0       -1.143566    2.468306   -0.184023
      3          6           0       -0.689442    3.506138    0.842851
      4          1           0       -3.000918    1.982410    0.796284
      5          1           0       -1.654018    0.942868    1.250525
      6          1           0       -1.616398    2.973508   -1.035971
      7          1           0       -0.270610    1.934517   -0.581052
      8          1           0       -0.193811    3.019502    1.689099
      9          1           0       -1.547245    4.064397    1.231595
     10          1           0        0.012113    4.223355    0.405494
     11          6           0       -2.588773    0.407047   -0.616382
     12          6           0       -3.570845   -0.610139   -0.034272
     13          6           0       -4.024969   -1.647972   -1.061145
     14          1           0       -3.060393    0.915298   -1.468819
     15          1           0       -1.713493   -0.124244   -1.014578
     16          1           0       -4.443801   -0.076350    0.362758
     17          1           0       -3.098013   -1.115342    0.817677
     18          1           0       -3.167166   -2.206230   -1.449889
     19          1           0       -4.520600   -1.161335   -1.907393
     20          1           0       -4.726524   -2.365189   -0.623788
     21          6           0        1.722745   -1.319948   -0.058534
     22          6           0        1.011968   -1.879925    1.174026
     23          6           0       -0.255548   -2.659354    0.822332
     24          1           0        1.030418   -0.667960   -0.608570
     25          1           0        1.976204   -2.148050   -0.734848
     26          1           0        0.761157   -1.051159    1.848457
     27          1           0        1.706129   -2.530504    1.721296
     28          1           0       -0.018869   -3.504851    0.168330
     29          1           0       -0.969210   -2.017102    0.296214
     30          1           0       -0.747712   -3.050737    1.718129
     31          6           0        2.991666   -0.538218    0.276828
     32          6           0        3.702443    0.021758   -0.955732
     33          6           0        4.969959    0.801187   -0.604037
     34          1           0        2.738207    0.289883    0.953143
     35          1           0        3.683993   -1.190206    0.826865
     36          1           0        3.008283    0.672337   -1.503001
     37          1           0        3.953254   -0.807007   -1.630163
     38          1           0        5.683621    0.158934   -0.077920
     39          1           0        4.733281    1.646684    0.049964
     40          1           0        5.462123    1.192571   -1.499835
 ---------------------------------------------------------------------

 SCF Done:  E(RHF) =  -470.732440625     A.U. after   11 cycles
 E2 =    -0.1585218433D+01 EUMP2 =    -0.47231765905777D+03

 The electronic state is 1-A.
 Alpha  occ. eigenvalues --  -11.21678 -11.21670 -11.21640 -11.21576 -11.21470
 Alpha  occ. eigenvalues --  -11.21461 -11.21406 -11.21399 -11.21138 -11.21093
 Alpha  occ. eigenvalues --  -11.21079 -11.21051  -1.08542  -1.08438  -1.03623
 Alpha  occ. eigenvalues --   -1.03529  -0.96032  -0.96016  -0.87087  -0.86998
 Alpha  occ. eigenvalues --   -0.79675  -0.79604  -0.78370  -0.78237  -0.65554
 Alpha  occ. eigenvalues --   -0.64788  -0.61244  -0.60738  -0.59423  -0.59359
 Alpha  occ. eigenvalues --   -0.57633  -0.57617  -0.55319  -0.55286  -0.52723
 Alpha  occ. eigenvalues --   -0.52700  -0.52455  -0.52425  -0.50182  -0.49759
 Alpha  occ. eigenvalues --   -0.48036  -0.47867  -0.46807  -0.46574  -0.46162
 Alpha  occ. eigenvalues --   -0.45850  -0.45716  -0.45352  -0.43835  -0.43821
 Alpha virt. eigenvalues --    0.18662   0.22204   0.24207   0.24508   0.24848
 Alpha virt. eigenvalues --    0.26183   0.27601   0.27984   0.28463   0.29823
 Alpha virt. eigenvalues --    0.31272   0.31524   0.31671   0.31817   0.32036

 Mulliken charges:
               1
     1  C   -0.299061
     2  C   -0.302215
     3  C   -0.475655
     4  H    0.150420
     5  H    0.150444
     6  H    0.152463
     7  H    0.153128
     8  H    0.154782
     9  H    0.155655
    10  H    0.160441
    11  C   -0.304538
    12  C   -0.304922
    13  C   -0.476454
    14  H    0.150826
    15  H    0.152203
    16  H    0.153162
    17  H    0.155669
    18  H    0.156351
    19  H    0.155080
    20  H    0.160591
    21  C   -0.303776
    22  C   -0.299731
    23  C   -0.486129
    24  H    0.153407
    25  H    0.149986
    26  H    0.151620
    27  H    0.152476
    28  H    0.155254
    29  H    0.167595
    30  H    0.160063
    31  C   -0.298240
    32  C   -0.299963
    33  C   -0.475789
    34  H    0.149650
    35  H    0.150038
    36  H    0.151939
    37  H    0.152098
    38  H    0.155244
    39  H    0.155461
    40  H    0.160425
 Sum of Mulliken charges =  -0.00000

 Dipole moment (field-independent basis, Debye):
    X=             -0.0101    Y=             -0.0017    Z=             -0.0023  Tot=              0.0105
 Quadrupole moment (field-independent basis, Debye-Ang):
   XX=            -84.8232   YY=            -84.6499   ZZ=            -85.1307
   XY=             -1.8533   XZ=             -0.2079   YZ=             -0.6506

 Normal termination of Gaussian 16 at Wed May  5 21:26:31 2021.
