 Gaussian 16, Revision A.03,
 Gaussian 16:  EM64L-G16RevA.03 25-Dec-2016

 -------------
 #p 6-31g* mp2
 -------------

 ------------------------------------------------------
 Input file generated by CHIRIPA (05-May-2021 14:51:09)
 ------------------------------------------------------
 Symbolic Z-matrix:
 Charge =  0 Multiplicity = 1

                         Standard orientation:
 ---------------------------------------------------------------------
 Center     Atomic      Atomic             Coordinates (Angstroms)
 Number     Number       Type             X           Y           Z
 ---------------------------------------------------------------------
      1          6           0       -3.343116    0.591389    0.013790
      2          6           0       -3.208637    1.878334   -0.800871
      3          6           0       -2.050747    2.758373   -0.329048
      4          1           0       -3.483751    0.848250    1.072652
      5          1           0       -2.402816    0.026282   -0.048539
      6          1           0       -4.149389    2.440178   -0.738155
      7          1           0       -3.068497    1.618383   -1.857943
      8          1           0       -1.100729    2.219997   -0.407901
      9          1           0       -2.187762    3.046462    0.718249
     10          1           0       -1.972873    3.672986   -0.925100
     11          6           0       -4.496269   -0.298905   -0.445933
     12          6           0       -4.630748   -1.585850    0.368728
     13          6           0       -5.788638   -2.465889   -0.103095
     14          1           0       -5.436569    0.266202   -0.383604
     15          1           0       -4.355634   -0.555766   -1.504796
     16          1           0       -4.770888   -1.325898    1.425800
     17          1           0       -3.689996   -2.147694    0.306012
     18          1           0       -5.651624   -2.753977   -1.150393
     19          1           0       -6.738656   -1.927513   -0.024242
     20          1           0       -5.866512   -3.380502    0.492957
     21          6           0        3.436547    0.376544    0.493014
     22          6           0        2.040436   -0.178416    0.777404
     23          6           0        1.085268    0.879413    1.330979
     24          1           0        3.851637    0.799217    1.418213
     25          1           0        3.354688    1.207649   -0.221101
     26          1           0        2.125047   -1.009126    1.489709
     27          1           0        1.628700   -0.599989   -0.148536
     28          1           0        0.971255    1.704877    0.620901
     29          1           0        1.470422    1.293415    2.268455
     30          1           0        0.093080    0.461145    1.527129
     31          6           0        4.402838   -0.669029   -0.060870
     32          6           0        5.798949   -0.114068   -0.345261
     33          6           0        6.754117   -1.171897   -0.898835
     34          1           0        4.484697   -1.500134    0.653244
     35          1           0        3.987749   -1.091701   -0.986069
     36          1           0        6.210686    0.307505    0.580679
     37          1           0        5.714338    0.716642   -1.057566
     38          1           0        6.368964   -1.585899   -1.836311
     39          1           0        6.868131   -1.997361   -0.188758
     40          1           0        7.746305   -0.753629   -1.094985
 ---------------------------------------------------------------------

 SCF Done:  E(RHF) =  -470.732929784     A.U. after   11 cycles
 E2 =    -0.1582764900D+01 EUMP2 =    -0.47231569468384D+03

 The electronic state is 1-A.
 Alpha  occ. eigenvalues --  -11.21606 -11.21605 -11.21597 -11.21561 -11.21410
 Alpha  occ. eigenvalues --  -11.21393 -11.21351 -11.21334 -11.21075 -11.21067
 Alpha  occ. eigenvalues --  -11.21024 -11.20950  -1.08438  -1.08408  -1.03549
 Alpha  occ. eigenvalues --   -1.03483  -0.96013  -0.95917  -0.87052  -0.86913
 Alpha  occ. eigenvalues --   -0.79666  -0.79498  -0.78259  -0.78213  -0.65098
 Alpha  occ. eigenvalues --   -0.65017  -0.61046  -0.60808  -0.59413  -0.59251
 Alpha  occ. eigenvalues --   -0.57624  -0.57539  -0.55451  -0.55080  -0.52714
 Alpha  occ. eigenvalues --   -0.52645  -0.52489  -0.52249  -0.50116  -0.49703
 Alpha  occ. eigenvalues --   -0.47944  -0.47825  -0.46731  -0.46468  -0.45806
 Alpha  occ. eigenvalues --   -0.45761  -0.45716  -0.45633  -0.43777  -0.43744
 Alpha virt. eigenvalues --    0.21592   0.23085   0.23559   0.24937   0.26336
 Alpha virt. eigenvalues --    0.26582   0.26992   0.27015   0.27894   0.29212
 Alpha virt. eigenvalues --    0.29994   0.31285   0.31678   0.31803   0.32148

 Mulliken charges:
               1
     1  C   -0.300077
     2  C   -0.299406
     3  C   -0.480844
     4  H    0.149639
     5  H    0.150970
     6  H    0.151639
     7  H    0.151339
     8  H    0.162301
     9  H    0.155225
    10  H    0.159057
    11  C   -0.298221
    12  C   -0.299687
    13  C   -0.475682
    14  H    0.149638
    15  H    0.149553
    16  H    0.151917
    17  H    0.151818
    18  H    0.155157
    19  H    0.155204
    20  H    0.160233
    21  C   -0.298398
    22  C   -0.300133
    23  C   -0.481111
    24  H    0.149843
    25  H    0.149644
    26  H    0.152040
    27  H    0.151036
    28  H    0.158672
    29  H    0.155287
    30  H    0.163372
    31  C   -0.298249
    32  C   -0.299664
    33  C   -0.475706
    34  H    0.149551
    35  H    0.149487
    36  H    0.151999
    37  H    0.151949
    38  H    0.155133
    39  H    0.155188
    40  H    0.160284
 Sum of Mulliken charges =  -0.00000

 Dipole moment (field-independent basis, Debye):
    X=              0.0164    Y=              0.0044    Z=              0.0153  Tot=              0.0229
 Quadrupole moment (field-independent basis, Debye-Ang):
   XX=            -85.6878   YY=            -85.5436   ZZ=            -83.6463
   XY=             -0.3829   XZ=             -0.0032   YZ=             -0.3086

 Normal termination of Gaussian 16 at Wed May  5 18:10:45 2021.
