 Gaussian 16, Revision A.03,
 Gaussian 16:  EM64L-G16RevA.03 25-Dec-2016

 -------------
 #p 6-31g* mp2
 -------------

 ------------------------------------------------------
 Input file generated by CHIRIPA (05-May-2021 14:51:12)
 ------------------------------------------------------
 Symbolic Z-matrix:
 Charge =  0 Multiplicity = 1

                         Standard orientation:
 ---------------------------------------------------------------------
 Center     Atomic      Atomic             Coordinates (Angstroms)
 Number     Number       Type             X           Y           Z
 ---------------------------------------------------------------------
      1          6           0        2.232709   -1.093766    0.714300
      2          6           0        0.899024   -1.029671    1.459393
      3          6           0        0.584784   -2.317776    2.220859
      4          1           0        2.213932   -1.940069    0.014040
      5          1           0        3.037043   -1.301073    1.433651
      6          1           0        0.097621   -0.821174    0.739047
      7          1           0        0.920907   -0.183306    2.157823
      8          1           0        1.363749   -2.527548    2.961002
      9          1           0        0.535785   -3.169040    1.534165
     10          1           0       -0.372972   -2.250109    2.746202
     11          6           0        2.560834    0.186569   -0.051730
     12          6           0        3.894519    0.122474   -0.796823
     13          6           0        4.208759    1.410580   -1.558289
     14          1           0        1.756500    0.393876   -0.771081
     15          1           0        2.579611    1.032872    0.648530
     16          1           0        3.872636   -0.723890   -1.495252
     17          1           0        4.695922   -0.086022   -0.076476
     18          1           0        4.257758    2.261844   -0.871594
     19          1           0        3.429794    1.620352   -2.298432
     20          1           0        5.166515    1.342912   -2.083632
     21          6           0       -2.439541    0.912134    0.278098
     22          6           0       -1.945723    2.332985    0.003668
     23          6           0       -2.037538    3.238374    1.232340
     24          1           0       -3.480167    0.953589    0.627845
     25          1           0       -1.851011    0.478970    1.098706
     26          1           0       -2.534089    2.762840   -0.817104
     27          1           0       -0.906213    2.288128   -0.345649
     28          1           0       -1.436057    2.835440    2.053599
     29          1           0       -3.073183    3.312849    1.579466
     30          1           0       -1.679457    4.249251    1.013790
     31          6           0       -2.354002   -0.004937   -0.940668
     32          6           0       -2.847820   -1.425788   -0.666239
     33          6           0       -2.756005   -2.331177   -1.894910
     34          1           0       -2.942531    0.428226   -1.761276
     35          1           0       -1.313375   -0.046393   -1.290416
     36          1           0       -3.887330   -1.380932   -0.316921
     37          1           0       -2.259454   -1.855644    0.154534
     38          1           0       -1.720361   -2.405652   -2.242036
     39          1           0       -3.357486   -1.928244   -2.716168
     40          1           0       -3.114085   -3.342056   -1.676361
 ---------------------------------------------------------------------

 SCF Done:  E(RHF) =  -470.732703170     A.U. after   11 cycles
 E2 =    -0.1584919494D+01 EUMP2 =    -0.47231762266385D+03

 The electronic state is 1-A.
 Alpha  occ. eigenvalues --  -11.21659 -11.21651 -11.21617 -11.21560 -11.21485
 Alpha  occ. eigenvalues --  -11.21424 -11.21409 -11.21296 -11.21154 -11.21110
 Alpha  occ. eigenvalues --  -11.21102 -11.21041  -1.08543  -1.08398  -1.03604
 Alpha  occ. eigenvalues --   -1.03521  -0.96052  -0.95976  -0.87064  -0.86992
 Alpha  occ. eigenvalues --   -0.79700  -0.79572  -0.78356  -0.78216  -0.65464
 Alpha  occ. eigenvalues --   -0.64816  -0.61104  -0.60799  -0.59419  -0.59336
 Alpha  occ. eigenvalues --   -0.57686  -0.57565  -0.55342  -0.55276  -0.52738
 Alpha  occ. eigenvalues --   -0.52668  -0.52477  -0.52395  -0.49986  -0.49926
 Alpha  occ. eigenvalues --   -0.48020  -0.47901  -0.46738  -0.46602  -0.46131
 Alpha  occ. eigenvalues --   -0.45844  -0.45646  -0.45363  -0.43852  -0.43772
 Alpha virt. eigenvalues --    0.19562   0.22665   0.23454   0.24074   0.25251
 Alpha virt. eigenvalues --    0.26292   0.26927   0.27782   0.29147   0.30460
 Alpha virt. eigenvalues --    0.30907   0.31303   0.31629   0.31741   0.32074

 Mulliken charges:
               1
     1  C   -0.297391
     2  C   -0.310615
     3  C   -0.476480
     4  H    0.149551
     5  H    0.149898
     6  H    0.163754
     7  H    0.151403
     8  H    0.155776
     9  H    0.155524
    10  H    0.160649
    11  C   -0.300773
    12  C   -0.299673
    13  C   -0.475844
    14  H    0.150319
    15  H    0.150040
    16  H    0.152105
    17  H    0.152318
    18  H    0.155333
    19  H    0.155316
    20  H    0.160522
    21  C   -0.303143
    22  C   -0.300455
    23  C   -0.475726
    24  H    0.149610
    25  H    0.155413
    26  H    0.151617
    27  H    0.153248
    28  H    0.155230
    29  H    0.154982
    30  H    0.160108
    31  C   -0.302090
    32  C   -0.303525
    33  C   -0.475396
    34  H    0.150901
    35  H    0.149424
    36  H    0.152497
    37  H    0.155366
    38  H    0.154340
    39  H    0.155392
    40  H    0.160476
 Sum of Mulliken charges =  -0.00000

 Dipole moment (field-independent basis, Debye):
    X=              0.0178    Y=             -0.0131    Z=              0.0163  Tot=              0.0275
 Quadrupole moment (field-independent basis, Debye-Ang):
   XX=            -83.7424   YY=            -85.9388   ZZ=            -85.0329
   XY=             -0.3552   XZ=              0.8682   YZ=              0.1115

 Normal termination of Gaussian 16 at Wed May  5 23:09:07 2021.
