 Gaussian 16, Revision A.03,
 Gaussian 16:  EM64L-G16RevA.03 25-Dec-2016

 -------------
 #p 6-31g* mp2
 -------------

 ------------------------------------------------------
 Input file generated by CHIRIPA (05-May-2021 14:55:25)
 ------------------------------------------------------
 Symbolic Z-matrix:
 Charge =  0 Multiplicity = 1

                         Standard orientation:
 ---------------------------------------------------------------------
 Center     Atomic      Atomic             Coordinates (Angstroms)
 Number     Number       Type             X           Y           Z
 ---------------------------------------------------------------------
      1          6           0        3.244281   -1.999876    1.399426
      2          6           0        4.035752   -1.660659    0.297143
      3          6           0        3.690151   -0.579698   -0.519331
      4          6           0        2.541236    0.143606   -0.202918
      5          6           0        1.732284   -0.169584    0.888319
      6          6           0        2.097096   -1.254569    1.690982
      7          1           0        3.520214   -2.841155    2.028318
      8          1           0        4.927221   -2.237693    0.068319
      9          1           0        4.284889   -0.295224   -1.378854
     10          1           0        0.849417    0.424404    1.091153
     11          1           0        1.480543   -1.515717    2.546382
     12          7           0        2.165195    1.290101   -1.059972
     13          8           0        1.148109    1.911483   -0.759877
     14          8           0        2.894661    1.545633   -2.015598
     15          6           0       -3.404881    0.620245    0.590861
     16          6           0       -2.334372    1.703882    0.457720
     17          6           0       -2.493295    2.821692    1.488757
     18          1           0       -4.397401    1.079412    0.485925
     19          1           0       -3.362558    0.195245    1.603274
     20          1           0       -2.377786    2.125752   -0.554583
     21          1           0       -1.344277    1.242050    0.562795
     22          1           0       -2.428406    2.420275    2.505249
     23          1           0       -3.467787    3.308997    1.381522
     24          1           0       -1.717706    3.585562    1.375504
     25          6           0       -3.259344   -0.504147   -0.433000
     26          6           0       -4.329852   -1.587784   -0.299858
     27          6           0       -4.170930   -2.705594   -1.330895
     28          1           0       -3.301666   -0.079147   -1.445411
     29          1           0       -2.266823   -0.963315   -0.328063
     30          1           0       -5.319947   -1.125953   -0.404933
     31          1           0       -4.286438   -2.009654    0.712445
     32          1           0       -3.196437   -3.192899   -1.223661
     33          1           0       -4.235818   -2.304178   -2.347387
     34          1           0       -4.946519   -3.469463   -1.217643
 ---------------------------------------------------------------------

 SCF Done:  E(RHF) =  -669.535294045     A.U. after   15 cycles
 E2 =    -0.2092073426D+01 EUMP2 =    -0.67162736747072D+03

 The electronic state is 1-A.
 Alpha  occ. eigenvalues --  -20.60835 -20.60829 -15.85877 -11.31248 -11.27814
 Alpha  occ. eigenvalues --  -11.27810 -11.27558 -11.26836 -11.26826 -11.21498
 Alpha  occ. eigenvalues --  -11.21190 -11.21100 -11.21018 -11.21001 -11.20604
 Alpha  occ. eigenvalues --   -1.59906  -1.39460  -1.19421  -1.08815  -1.08171
 Alpha  occ. eigenvalues --   -1.04826  -1.03237  -0.95717  -0.95645  -0.86731
 Alpha  occ. eigenvalues --   -0.86225  -0.82485  -0.79303  -0.77998  -0.77480
 Alpha  occ. eigenvalues --   -0.72100  -0.71223  -0.70536  -0.65078  -0.64935
 Alpha  occ. eigenvalues --   -0.64733  -0.62199  -0.60639  -0.59062  -0.57281
 Alpha  occ. eigenvalues --   -0.55330  -0.55028  -0.53152  -0.52930  -0.52383
 Alpha  occ. eigenvalues --   -0.52125  -0.49686  -0.48892  -0.48858  -0.47581
 Alpha  occ. eigenvalues --   -0.46338  -0.45508  -0.45424  -0.44811  -0.43496
 Alpha  occ. eigenvalues --   -0.37400  -0.36427
 Alpha virt. eigenvalues --    0.04987   0.11193   0.16492   0.20549   0.22997
 Alpha virt. eigenvalues --    0.24193   0.25964   0.27341   0.27637   0.28257
 Alpha virt. eigenvalues --    0.29174   0.30529   0.31525   0.31907   0.32349

 Mulliken charges:
               1
     1  C   -0.170382
     2  C   -0.218825
     3  C   -0.169976
     4  C    0.154810
     5  C   -0.174039
     6  C   -0.222110
     7  H    0.225872
     8  H    0.223712
     9  H    0.275860
    10  H    0.286997
    11  H    0.224081
    12  N    0.488823
    13  O   -0.463088
    14  O   -0.459946
    15  C   -0.298819
    16  C   -0.304026
    17  C   -0.477344
    18  H    0.149603
    19  H    0.142955
    20  H    0.161652
    21  H    0.156526
    22  H    0.147309
    23  H    0.153983
    24  H    0.168079
    25  C   -0.296817
    26  C   -0.299146
    27  C   -0.475340
    28  H    0.153680
    29  H    0.145031
    30  H    0.152585
    31  H    0.148870
    32  H    0.153349
    33  H    0.156849
    34  H    0.159232
 Sum of Mulliken charges =  -0.00000

 Dipole moment (field-independent basis, Debye):
    X=              1.4227    Y=             -3.9241    Z=              2.8820  Tot=              5.0723
 Quadrupole moment (field-independent basis, Debye-Ang):
   XX=            -84.9400   YY=            -96.8253   ZZ=            -95.0511
   XY=            -11.6727   XZ=              5.6210   YZ=              0.5847

 Normal termination of Gaussian 16 at Thu May  6 00:04:34 2021.
