 Gaussian 16, Revision A.03,
 Gaussian 16:  EM64L-G16RevA.03 25-Dec-2016

 -------------
 #p 6-31g* mp2
 -------------

 ------------------------------------------------------
 Input file generated by CHIRIPA (05-May-2021 14:51:11)
 ------------------------------------------------------
 Symbolic Z-matrix:
 Charge =  0 Multiplicity = 1

                         Standard orientation:
 ---------------------------------------------------------------------
 Center     Atomic      Atomic             Coordinates (Angstroms)
 Number     Number       Type             X           Y           Z
 ---------------------------------------------------------------------
      1          6           0        4.424173   -0.223046    0.322080
      2          6           0        5.144541   -0.542755   -0.988203
      3          6           0        6.646597   -0.757560   -0.799840
      4          1           0        4.871276    0.675376    0.769163
      5          1           0        4.591805   -1.043004    1.034093
      6          1           0        4.974453    0.276919   -1.698005
      7          1           0        4.695544   -1.440410   -1.432315
      8          1           0        6.833649   -1.588511   -0.111993
      9          1           0        7.114142    0.138576   -0.379194
     10          1           0        7.141791   -0.984836   -1.749044
     11          6           0        2.921878   -0.005673    0.150068
     12          6           0        2.201511    0.314037    1.460350
     13          6           0        0.699455    0.528841    1.271987
     14          1           0        2.754247    0.814286   -0.561945
     15          1           0        2.474775   -0.904094   -0.297015
     16          1           0        2.650507    1.211691    1.904462
     17          1           0        2.371599   -0.505638    2.170153
     18          1           0        0.231909   -0.367294    0.851341
     19          1           0        0.512402    1.359792    0.584141
     20          1           0        0.204261    0.756118    2.221191
     21          6           0       -3.715516    0.840632   -0.468785
     22          6           0       -2.486980    1.670277   -0.094125
     23          6           0       -2.586875    3.121026   -0.566504
     24          1           0       -3.847531    0.864439   -1.559176
     25          1           0       -4.610754    1.307556   -0.035280
     26          1           0       -1.594163    1.201161   -0.527051
     27          1           0       -2.357764    1.644335    0.995484
     28          1           0       -3.460315    3.610934   -0.124132
     29          1           0       -2.692376    3.165243   -1.655318
     30          1           0       -1.698163    3.695974   -0.288140
     31          6           0       -3.630534   -0.611913   -0.003362
     32          6           0       -4.859072   -1.441558   -0.378023
     33          6           0       -4.759177   -2.892307    0.094356
     34          1           0       -2.735297   -1.078837   -0.436869
     35          1           0       -3.498520   -0.635720    1.087028
     36          1           0       -4.988288   -1.415616   -1.467631
     37          1           0       -5.751888   -0.972442    0.054904
     38          1           0       -4.653675   -2.936524    1.183170
     39          1           0       -3.885737   -3.382216   -0.348015
     40          1           0       -5.647888   -3.467255   -0.184007
 ---------------------------------------------------------------------

 SCF Done:  E(RHF) =  -470.732360934     A.U. after   11 cycles
 E2 =    -0.1583222064D+01 EUMP2 =    -0.47231558299764D+03

 The electronic state is 1-A.
 Alpha  occ. eigenvalues --  -11.21601 -11.21568 -11.21548 -11.21420 -11.21399
 Alpha  occ. eigenvalues --  -11.21342 -11.21339 -11.21270 -11.21071 -11.21053
 Alpha  occ. eigenvalues --  -11.21011 -11.20985  -1.08424  -1.08356  -1.03544
 Alpha  occ. eigenvalues --   -1.03435  -0.95983  -0.95907  -0.87032  -0.86899
 Alpha  occ. eigenvalues --   -0.79758  -0.79381  -0.78292  -0.78082  -0.65050
 Alpha  occ. eigenvalues --   -0.64998  -0.60939  -0.60854  -0.59352  -0.59288
 Alpha  occ. eigenvalues --   -0.57648  -0.57477  -0.55263  -0.55189  -0.52724
 Alpha  occ. eigenvalues --   -0.52598  -0.52432  -0.52299  -0.49931  -0.49844
 Alpha  occ. eigenvalues --   -0.48143  -0.47647  -0.46634  -0.46496  -0.45926
 Alpha  occ. eigenvalues --   -0.45702  -0.45665  -0.45399  -0.43769  -0.43693
 Alpha virt. eigenvalues --    0.22007   0.23047   0.23684   0.24719   0.25806
 Alpha virt. eigenvalues --    0.26348   0.26534   0.27548   0.27683   0.29480
 Alpha virt. eigenvalues --    0.30586   0.30878   0.31622   0.31823   0.32452

 Mulliken charges:
               1
     1  C   -0.298160
     2  C   -0.299622
     3  C   -0.475695
     4  H    0.149655
     5  H    0.149576
     6  H    0.151848
     7  H    0.151831
     8  H    0.155197
     9  H    0.155190
    10  H    0.160217
    11  C   -0.298265
    12  C   -0.301052
    13  C   -0.475382
    14  H    0.149097
    15  H    0.149219
    16  H    0.151506
    17  H    0.151455
    18  H    0.155651
    19  H    0.158507
    20  H    0.159494
    21  C   -0.298002
    22  C   -0.302509
    23  C   -0.476690
    24  H    0.148902
    25  H    0.148774
    26  H    0.157133
    27  H    0.153844
    28  H    0.154920
    29  H    0.154663
    30  H    0.159436
    31  C   -0.298490
    32  C   -0.299551
    33  C   -0.475624
    34  H    0.149274
    35  H    0.149768
    36  H    0.151822
    37  H    0.151922
    38  H    0.155119
    39  H    0.154875
    40  H    0.160148
 Sum of Mulliken charges =  -0.00000

 Dipole moment (field-independent basis, Debye):
    X=              0.0076    Y=              0.0009    Z=              0.0119  Tot=              0.0141
 Quadrupole moment (field-independent basis, Debye-Ang):
   XX=            -86.0297   YY=            -85.0103   ZZ=            -84.0784
   XY=              0.2030   XZ=             -0.4449   YZ=              0.3987

 Normal termination of Gaussian 16 at Thu May  6 05:25:58 2021.
