 Gaussian 16, Revision A.03,
 Gaussian 16:  EM64L-G16RevA.03 25-Dec-2016

 -------------
 #p 6-31g* mp2
 -------------

 ------------------------------------------------------
 Input file generated by CHIRIPA (05-May-2021 14:57:21)
 ------------------------------------------------------
 Symbolic Z-matrix:
 Charge =  0 Multiplicity = 1

                         Standard orientation:
 ---------------------------------------------------------------------
 Center     Atomic      Atomic             Coordinates (Angstroms)
 Number     Number       Type             X           Y           Z
 ---------------------------------------------------------------------
      1          6           0        1.740156   -1.379256   -0.399799
      2          6           0        1.808801    0.010893   -0.260894
      3          6           0        3.042019    0.647580   -0.092518
      4          6           0        4.191829   -0.140207   -0.067615
      5          6           0        4.156117   -1.527144   -0.203342
      6          6           0        2.911967   -2.142492   -0.370631
      7          1           0        0.777916   -1.865561   -0.530175
      8          1           0        0.900394    0.606162   -0.283162
      9          1           0        3.123998    1.722113    0.017371
     10          1           0        5.078907   -2.093877   -0.177092
     11          1           0        2.861679   -3.222275   -0.478259
     12          7           0        5.503168    0.522530    0.110062
     13          8           0        6.501592   -0.194020    0.128580
     14          8           0        5.507741    1.745983    0.227443
     15          6           0       -5.395269   -1.836281    0.073440
     16          6           0       -4.164222   -1.834832    0.737548
     17          6           0       -3.369366   -0.684887    0.757063
     18          6           0       -3.838466    0.451074    0.099166
     19          6           0       -5.060367    0.480970   -0.571171
     20          6           0       -5.838631   -0.680414   -0.577653
     21          1           0       -6.006288   -2.734028    0.063342
     22          1           0       -3.817371   -2.731045    1.244046
     23          1           0       -2.412253   -0.656111    1.263545
     24          1           0       -5.379456    1.389621   -1.067109
     25          1           0       -6.794252   -0.678641   -1.094211
     26          7           0       -3.005770    1.674522    0.112927
     27          8           0       -3.441565    2.662422   -0.474249
     28          8           0       -1.933076    1.622397    0.710628
 ---------------------------------------------------------------------

 SCF Done:  E(RHF) =  -868.339151956     A.U. after   16 cycles
 E2 =    -0.2598768173D+01 EUMP2 =    -0.87093792012858D+03

 The electronic state is 1-A.
 Alpha  occ. eigenvalues --  -20.61802 -20.61730 -20.60354 -20.60340 -15.86797
 Alpha  occ. eigenvalues --  -15.85397 -11.32032 -11.30717 -11.28618 -11.28542
 Alpha  occ. eigenvalues --  -11.28270 -11.27578 -11.27522 -11.27306 -11.27169
 Alpha  occ. eigenvalues --  -11.27040 -11.26374 -11.26101  -1.60826  -1.59425
 Alpha  occ. eigenvalues --   -1.40386  -1.38979  -1.20186  -1.18872  -1.09598
 Alpha  occ. eigenvalues --   -1.08293  -1.05569  -1.04241  -0.96457  -0.95139
 Alpha  occ. eigenvalues --   -0.86970  -0.85651  -0.83294  -0.81949  -0.78366
 Alpha  occ. eigenvalues --   -0.76989  -0.73016  -0.72136  -0.71617  -0.71281
 Alpha  occ. eigenvalues --   -0.70747  -0.70027  -0.65838  -0.65561  -0.64521
 Alpha  occ. eigenvalues --   -0.64212  -0.62918  -0.61563  -0.56054  -0.54813
 Alpha  occ. eigenvalues --   -0.53904  -0.53653  -0.52610  -0.52305  -0.49785
 Alpha  occ. eigenvalues --   -0.49753  -0.48376  -0.48369  -0.45809  -0.44394
 Alpha  occ. eigenvalues --   -0.38147  -0.37171  -0.36894  -0.35839
 Alpha virt. eigenvalues --    0.04121   0.05501   0.10479   0.11797   0.15620
 Alpha virt. eigenvalues --    0.17006   0.20432   0.21952   0.26320   0.27120
 Alpha virt. eigenvalues --    0.28249   0.28781   0.30427   0.31477   0.31837

 Mulliken charges:
               1
     1  C   -0.173536
     2  C   -0.225366
     3  C   -0.172213
     4  C    0.158719
     5  C   -0.172668
     6  C   -0.218278
     7  H    0.218893
     8  H    0.243432
     9  H    0.278804
    10  H    0.273545
    11  H    0.219495
    12  N    0.487946
    13  O   -0.462552
    14  O   -0.459353
    15  C   -0.170132
    16  C   -0.218641
    17  C   -0.174370
    18  C    0.158455
    19  C   -0.170246
    20  C   -0.218184
    21  H    0.228221
    22  H    0.224299
    23  H    0.272696
    24  H    0.277719
    25  H    0.226403
    26  N    0.489189
    27  O   -0.454073
    28  O   -0.468202
 Sum of Mulliken charges =  -0.00000

 Dipole moment (field-independent basis, Debye):
    X=             -7.9782    Y=             -6.4768    Z=             -0.7096  Tot=             10.3007
 Quadrupole moment (field-independent basis, Debye-Ang):
   XX=           -117.6059   YY=           -103.5164   ZZ=           -104.7779
   XY=              2.4714   XZ=             -0.1004   YZ=             -1.6055

 Normal termination of Gaussian 16 at Thu May  6 21:02:28 2021.
