 Gaussian 16, Revision A.03,
 Gaussian 16:  EM64L-G16RevA.03 25-Dec-2016

 -------------
 #p 6-31g* mp2
 -------------

 ------------------------------------------------------
 Input file generated by CHIRIPA (05-May-2021 14:57:25)
 ------------------------------------------------------
 Symbolic Z-matrix:
 Charge =  0 Multiplicity = 1

                         Standard orientation:
 ---------------------------------------------------------------------
 Center     Atomic      Atomic             Coordinates (Angstroms)
 Number     Number       Type             X           Y           Z
 ---------------------------------------------------------------------
      1          6           0        2.152597    1.380279   -0.336253
      2          6           0        2.188490   -0.012407   -0.211119
      3          6           0        3.408158   -0.681685   -0.073183
      4          6           0        4.577961    0.076453   -0.064347
      5          6           0        4.574964    1.465063   -0.186993
      6          6           0        3.343848    2.113277   -0.323812
      7          1           0        1.200683    1.892008   -0.442971
      8          1           0        1.264927   -0.584237   -0.220451
      9          1           0        3.464856   -1.758935    0.025481
     10          1           0        5.512254    2.007966   -0.174221
     11          1           0        3.319003    3.194951   -0.420805
     12          7           0        5.875229   -0.620932    0.081089
     13          8           0        6.891782    0.069889    0.085945
     14          8           0        5.850910   -1.845158    0.187472
     15          6           0       -2.030804   -1.094879    0.412509
     16          6           0       -2.330358    0.219801    0.784537
     17          6           0       -3.619787    0.730955    0.609484
     18          6           0       -4.589735   -0.104044    0.056974
     19          6           0       -4.322297   -1.418167   -0.323614
     20          6           0       -3.025975   -1.908233   -0.139405
     21          1           0       -1.026467   -1.483764    0.552052
     22          1           0       -1.559490    0.853741    1.213404
     23          1           0       -3.879058    1.744965    0.888735
     24          1           0       -5.111754   -2.026103   -0.748573
     25          1           0       -2.796206   -2.929627   -0.429244
     26          7           0       -5.958445    0.425929   -0.133193
     27          8           0       -6.795228   -0.329974   -0.622111
     28          8           0       -6.168540    1.587190    0.210275
 ---------------------------------------------------------------------

 SCF Done:  E(RHF) =  -868.336573920     A.U. after   16 cycles
 E2 =    -0.2599835387D+01 EUMP2 =    -0.87093640930702D+03

 The electronic state is 1-A.
 Alpha  occ. eigenvalues --  -20.61379 -20.61371 -20.61345 -20.61336 -15.86437
 Alpha  occ. eigenvalues --  -15.86404 -11.31965 -11.31900 -11.28566 -11.28544
 Alpha  occ. eigenvalues --  -11.28512 -11.28459 -11.28429 -11.28310 -11.27692
 Alpha  occ. eigenvalues --  -11.27664 -11.27589 -11.27490  -1.60449  -1.60416
 Alpha  occ. eigenvalues --   -1.39998  -1.39966  -1.20162  -1.20102  -1.09554
 Alpha  occ. eigenvalues --   -1.09477  -1.05583  -1.05535  -0.96356  -0.96284
 Alpha  occ. eigenvalues --   -0.86997  -0.86925  -0.83190  -0.83108  -0.78179
 Alpha  occ. eigenvalues --   -0.78136  -0.72653  -0.72619  -0.71774  -0.71741
 Alpha  occ. eigenvalues --   -0.71351  -0.71214  -0.65836  -0.65765  -0.65682
 Alpha  occ. eigenvalues --   -0.65475  -0.62930  -0.62874  -0.56249  -0.55977
 Alpha  occ. eigenvalues --   -0.53915  -0.53845  -0.53681  -0.53617  -0.49426
 Alpha  occ. eigenvalues --   -0.49397  -0.49387  -0.49365  -0.45367  -0.45342
 Alpha  occ. eigenvalues --   -0.38186  -0.38096  -0.37176  -0.37134
 Alpha virt. eigenvalues --    0.04333   0.04412   0.10415   0.10493   0.15676
 Alpha virt. eigenvalues --    0.15852   0.17774   0.22125   0.24304   0.25421
 Alpha virt. eigenvalues --    0.27811   0.28684   0.29938   0.31404   0.32548

 Mulliken charges:
               1
     1  C   -0.173129
     2  C   -0.221999
     3  C   -0.170775
     4  C    0.159324
     5  C   -0.169595
     6  C   -0.217966
     7  H    0.225018
     8  H    0.217426
     9  H    0.275848
    10  H    0.278232
    11  H    0.226321
    12  N    0.488054
    13  O   -0.458094
    14  O   -0.459680
    15  C   -0.175422
    16  C   -0.221653
    17  C   -0.169991
    18  C    0.159670
    19  C   -0.169760
    20  C   -0.217500
    21  H    0.222231
    22  H    0.220349
    23  H    0.277089
    24  H    0.278527
    25  H    0.226483
    26  N    0.487910
    27  O   -0.457872
    28  O   -0.459044
 Sum of Mulliken charges =  -0.00000

 Dipole moment (field-independent basis, Debye):
    X=              0.2082    Y=              0.6326    Z=              0.1145  Tot=              0.6758
 Quadrupole moment (field-independent basis, Debye-Ang):
   XX=           -188.2639   YY=            -96.2477   ZZ=           -105.5849
   XY=             23.3498   XZ=             -4.3403   YZ=              1.3494

 Normal termination of Gaussian 16 at Wed May  5 17:58:24 2021.
