 Gaussian 16, Revision A.03,
 Gaussian 16:  EM64L-G16RevA.03 25-Dec-2016

 -------------
 #p 6-31g* mp2
 -------------

 ------------------------------------------------------
 Input file generated by CHIRIPA (05-May-2021 14:55:20)
 ------------------------------------------------------
 Symbolic Z-matrix:
 Charge =  0 Multiplicity = 1

                         Standard orientation:
 ---------------------------------------------------------------------
 Center     Atomic      Atomic             Coordinates (Angstroms)
 Number     Number       Type             X           Y           Z
 ---------------------------------------------------------------------
      1          6           0       -2.217271   -2.069333   -1.269057
      2          6           0       -1.109654   -1.261770   -1.547530
      3          6           0       -1.049644    0.050598   -1.069369
      4          6           0       -2.119736    0.525214   -0.312446
      5          6           0       -3.236992   -0.254779   -0.018098
      6          6           0       -3.275539   -1.564151   -0.506573
      7          1           0       -2.255551   -3.087648   -1.644510
      8          1           0       -0.286335   -1.651445   -2.139429
      9          1           0       -0.204261    0.697494   -1.270044
     10          1           0       -4.042403    0.161648    0.574624
     11          1           0       -4.136997   -2.189039   -0.288744
     12          7           0       -2.067568    1.912973    0.199221
     13          8           0       -3.023249    2.307488    0.863803
     14          8           0       -1.071985    2.579906   -0.074004
     15          6           0        2.272781   -0.974483    0.667879
     16          6           0        1.190122   -0.654078    1.698983
     17          6           0        0.294932   -1.854306    2.008625
     18          1           0        1.796348   -1.326721   -0.257261
     19          1           0        2.888007   -1.805937    1.038792
     20          1           0        0.577981    0.177438    1.326854
     21          1           0        1.669182   -0.302379    2.621711
     22          1           0        0.887959   -2.685419    2.403809
     23          1           0       -0.209442   -2.202877    1.101594
     24          1           0       -0.471927   -1.603031    2.747983
     25          6           0        3.175755    0.215457    0.347866
     26          6           0        4.258413   -0.104949   -0.683239
     27          6           0        5.153604    1.095280   -0.992882
     28          1           0        2.560529    1.046910   -0.023048
     29          1           0        3.652188    0.567695    1.273005
     30          1           0        3.779355   -0.456648   -1.605967
     31          1           0        4.870556   -0.936464   -0.311109
     32          1           0        5.657978    1.443850   -0.085850
     33          1           0        4.560578    1.926394   -1.388065
     34          1           0        5.920462    0.844005   -1.732239
 ---------------------------------------------------------------------

 SCF Done:  E(RHF) =  -669.534303729     A.U. after   15 cycles
 E2 =    -0.2096239700D+01 EUMP2 =    -0.67163054342934D+03

 The electronic state is 1-A.
 Alpha  occ. eigenvalues --  -20.60932 -20.60917 -15.85958 -11.31305 -11.27886
 Alpha  occ. eigenvalues --  -11.27876 -11.27623 -11.26886 -11.26876 -11.21774
 Alpha  occ. eigenvalues --  -11.21589 -11.21499 -11.21443 -11.21120 -11.20966
 Alpha  occ. eigenvalues --   -1.59987  -1.39542  -1.19504  -1.08895  -1.08538
 Alpha  occ. eigenvalues --   -1.04909  -1.03569  -0.96033  -0.95727  -0.87051
 Alpha  occ. eigenvalues --   -0.86300  -0.82560  -0.79644  -0.78347  -0.77610
 Alpha  occ. eigenvalues --   -0.72180  -0.71312  -0.70611  -0.65268  -0.65134
 Alpha  occ. eigenvalues --   -0.64883  -0.62236  -0.61048  -0.59397  -0.57644
 Alpha  occ. eigenvalues --   -0.55474  -0.55371  -0.53092  -0.52995  -0.52699
 Alpha  occ. eigenvalues --   -0.52401  -0.49972  -0.48948  -0.48934  -0.47939
 Alpha  occ. eigenvalues --   -0.46723  -0.45894  -0.45855  -0.44878  -0.43852
 Alpha  occ. eigenvalues --   -0.37410  -0.36423
 Alpha virt. eigenvalues --    0.04894   0.11052   0.16278   0.19883   0.23016
 Alpha virt. eigenvalues --    0.24354   0.25448   0.26098   0.27486   0.28256
 Alpha virt. eigenvalues --    0.30036   0.30686   0.31382   0.31899   0.31943

 Mulliken charges:
               1
     1  C   -0.171433
     2  C   -0.219961
     3  C   -0.170666
     4  C    0.160783
     5  C   -0.170298
     6  C   -0.217036
     7  H    0.226782
     8  H    0.224696
     9  H    0.277974
    10  H    0.276168
    11  H    0.224298
    12  N    0.488568
    13  O   -0.458939
    14  O   -0.460696
    15  C   -0.299482
    16  C   -0.301936
    17  C   -0.481149
    18  H    0.138217
    19  H    0.150082
    20  H    0.155854
    21  H    0.154882
    22  H    0.152111
    23  H    0.157842
    24  H    0.160237
    25  C   -0.302179
    26  C   -0.298427
    27  C   -0.475960
    28  H    0.154654
    29  H    0.153625
    30  H    0.145135
    31  H    0.151993
    32  H    0.157144
    33  H    0.157539
    34  H    0.159579
 Sum of Mulliken charges =  -0.00000

 Dipole moment (field-independent basis, Debye):
    X=             -0.2992    Y=             -4.7753    Z=             -1.7951  Tot=              5.1103
 Quadrupole moment (field-independent basis, Debye-Ang):
   XX=            -89.8764   YY=           -101.0882   ZZ=            -92.9734
   XY=             10.6692   XZ=              2.6265   YZ=              0.5572

 Normal termination of Gaussian 16 at Thu May  6 17:26:43 2021.
