 Gaussian 16, Revision A.03,
 Gaussian 16:  EM64L-G16RevA.03 25-Dec-2016

 -------------
 #p 6-31g* mp2
 -------------

 ------------------------------------------------------
 Input file generated by CHIRIPA (05-May-2021 14:51:11)
 ------------------------------------------------------
 Symbolic Z-matrix:
 Charge =  0 Multiplicity = 1

                         Standard orientation:
 ---------------------------------------------------------------------
 Center     Atomic      Atomic             Coordinates (Angstroms)
 Number     Number       Type             X           Y           Z
 ---------------------------------------------------------------------
      1          6           0        2.369648   -0.596098    1.086468
      2          6           0        0.953547   -0.304777    1.584236
      3          6           0        0.650591   -0.969622    2.927364
      4          1           0        2.503999   -1.682856    0.997854
      5          1           0        3.093180   -0.251991    1.838456
      6          1           0        0.232943   -0.648078    0.830916
      7          1           0        0.822488    0.781421    1.671493
      8          1           0        1.346661   -0.619256    3.696344
      9          1           0        0.753767   -2.056877    2.850991
     10          1           0       -0.366861   -0.748237    3.264471
     11          6           0        2.687515    0.061716   -0.255161
     12          6           0        4.103616   -0.229605   -0.752929
     13          6           0        4.406572    0.435240   -2.096057
     14          1           0        1.963983   -0.282391   -1.007149
     15          1           0        2.553163    1.148474   -0.166547
     16          1           0        4.234674   -1.315803   -0.840186
     17          1           0        4.824220    0.113696    0.000391
     18          1           0        4.303396    1.522495   -2.019684
     19          1           0        3.710501    0.084874   -2.865037
     20          1           0        5.424024    0.213856   -2.433164
     21          6           0       -2.989767   -0.282884   -0.676725
     22          6           0       -2.368009   -1.678180   -0.609259
     23          6           0       -3.302745   -2.767949   -1.135057
     24          1           0       -3.924241   -0.276494   -0.099090
     25          1           0       -3.264070   -0.061231   -1.717409
     26          1           0       -2.093695   -1.896580    0.430775
     27          1           0       -1.434809   -1.681197   -1.186964
     28          1           0       -3.567186   -2.577357   -2.180211
     29          1           0       -4.229816   -2.793964   -0.553281
     30          1           0       -2.838291   -3.757315   -1.077614
     31          6           0       -2.067396    0.817265   -0.154582
     32          6           0       -2.689153    2.212561   -0.222048
     33          6           0       -1.754417    3.302332    0.303751
     34          1           0       -1.793093    0.595612    0.886102
     35          1           0       -1.132923    0.810876   -0.732217
     36          1           0       -3.622355    2.215579    0.355656
     37          1           0       -2.963467    2.430963   -1.262081
     38          1           0       -0.827346    3.328347   -0.278026
     39          1           0       -1.489977    3.111739    1.348903
     40          1           0       -2.218872    4.291697    0.246306
 ---------------------------------------------------------------------

 SCF Done:  E(RHF) =  -470.731544978     A.U. after   11 cycles
 E2 =    -0.1585164250D+01 EUMP2 =    -0.47231670922814D+03

 The electronic state is 1-A.
 Alpha  occ. eigenvalues --  -11.21670 -11.21590 -11.21571 -11.21393 -11.21385
 Alpha  occ. eigenvalues --  -11.21366 -11.21275 -11.21269 -11.21119 -11.21073
 Alpha  occ. eigenvalues --  -11.21071 -11.21042  -1.08490  -1.08334  -1.03550
 Alpha  occ. eigenvalues --   -1.03483  -0.96007  -0.95938  -0.87019  -0.86956
 Alpha  occ. eigenvalues --   -0.79702  -0.79584  -0.78564  -0.77816  -0.65074
 Alpha  occ. eigenvalues --   -0.65012  -0.60973  -0.60869  -0.59377  -0.59319
 Alpha  occ. eigenvalues --   -0.57712  -0.57469  -0.55277  -0.55234  -0.52719
 Alpha  occ. eigenvalues --   -0.52638  -0.52438  -0.52355  -0.49939  -0.49884
 Alpha  occ. eigenvalues --   -0.48095  -0.47879  -0.46728  -0.46627  -0.46238
 Alpha  occ. eigenvalues --   -0.45732  -0.45630  -0.44865  -0.43788  -0.43709
 Alpha virt. eigenvalues --    0.21020   0.22775   0.23294   0.23775   0.24657
 Alpha virt. eigenvalues --    0.26186   0.26705   0.28258   0.29175   0.30175
 Alpha virt. eigenvalues --    0.30462   0.30991   0.31680   0.31823   0.32056

 Mulliken charges:
               1
     1  C   -0.297524
     2  C   -0.308961
     3  C   -0.477204
     4  H    0.148958
     5  H    0.148668
     6  H    0.165560
     7  H    0.152040
     8  H    0.155155
     9  H    0.154986
    10  H    0.158583
    11  C   -0.298892
    12  C   -0.299525
    13  C   -0.475683
    14  H    0.148643
    15  H    0.149577
    16  H    0.151937
    17  H    0.152159
    18  H    0.155109
    19  H    0.154799
    20  H    0.160294
    21  C   -0.297193
    22  C   -0.303304
    23  C   -0.475293
    24  H    0.149402
    25  H    0.149252
    26  H    0.153983
    27  H    0.151204
    28  H    0.155392
    29  H    0.155534
    30  H    0.160250
    31  C   -0.304249
    32  C   -0.298990
    33  C   -0.476209
    34  H    0.156649
    35  H    0.151375
    36  H    0.151434
    37  H    0.151492
    38  H    0.155331
    39  H    0.155067
    40  H    0.160198
 Sum of Mulliken charges =  -0.00000

 Dipole moment (field-independent basis, Debye):
    X=             -0.0362    Y=             -0.0027    Z=             -0.0138  Tot=              0.0388
 Quadrupole moment (field-independent basis, Debye-Ang):
   XX=            -85.0710   YY=            -85.1063   ZZ=            -84.8559
   XY=             -0.2587   XZ=             -0.0776   YZ=              0.4134

 Normal termination of Gaussian 16 at Thu May  6 07:00:55 2021.
