 Gaussian 16, Revision A.03,
 Gaussian 16:  EM64L-G16RevA.03 25-Dec-2016

 -------------
 #p 6-31g* mp2
 -------------

 ------------------------------------------------------
 Input file generated by CHIRIPA (05-May-2021 14:53:11)
 ------------------------------------------------------
 Symbolic Z-matrix:
 Charge =  0 Multiplicity = 1

                         Standard orientation:
 ---------------------------------------------------------------------
 Center     Atomic      Atomic             Coordinates (Angstroms)
 Number     Number       Type             X           Y           Z
 ---------------------------------------------------------------------
      1          6           0        3.308305   -0.627021   -0.362445
      2          6           0        4.181234   -1.843394   -0.051936
      3          6           0        3.564285   -3.154107   -0.541018
      4          1           0        2.321270   -0.764365    0.099987
      5          1           0        3.140460   -0.572137   -1.446977
      6          1           0        4.348529   -1.895179    1.031552
      7          1           0        5.166370   -1.703051   -0.515000
      8          1           0        3.412830   -3.127736   -1.624977
      9          1           0        2.590343   -3.320955   -0.069638
     10          1           0        4.204818   -4.010614   -0.308698
     11          6           0        3.911683    0.690774    0.120340
     12          6           0        3.038754    1.907147   -0.190168
     13          6           0        3.655704    3.217860    0.298913
     14          1           0        4.079528    0.635890    1.204872
     15          1           0        4.898718    0.828118   -0.342092
     16          1           0        2.053619    1.766804    0.272895
     17          1           0        2.871460    1.958932   -1.273657
     18          1           0        4.629646    3.384708   -0.172467
     19          1           0        3.807158    3.191489    1.382872
     20          1           0        3.015170    4.074367    0.066593
     21          6           0       -5.255749    0.046622   -0.560741
     22          6           0       -4.885944   -0.403648    0.710882
     23          6           0       -3.539533   -0.447544    1.084780
     24          6           0       -2.584859   -0.031818    0.157925
     25          6           0       -2.921710    0.421837   -1.116444
     26          6           0       -4.274182    0.457203   -1.468744
     27          1           0       -6.304028    0.077408   -0.842804
     28          1           0       -5.646087   -0.723126    1.418101
     29          1           0       -3.225363   -0.791679    2.062679
     30          1           0       -2.141268    0.733825   -1.799812
     31          1           0       -4.558457    0.807354   -2.456989
     32          7           0       -1.156265   -0.073774    0.542321
     33          8           0       -0.334354    0.297955   -0.292494
     34          8           0       -0.885495   -0.477593    1.671149
 ---------------------------------------------------------------------

 SCF Done:  E(RHF) =  -669.536529527     A.U. after   15 cycles
 E2 =    -0.2092094244D+01 EUMP2 =    -0.67162862377120D+03

 The electronic state is 1-A.
 Alpha  occ. eigenvalues --  -20.61172 -20.61146 -15.86153 -11.31408 -11.27959
 Alpha  occ. eigenvalues --  -11.27954 -11.27684 -11.26948 -11.26938 -11.20277
 Alpha  occ. eigenvalues --  -11.19971 -11.19907 -11.19853 -11.19819 -11.19553
 Alpha  occ. eigenvalues --   -1.60204  -1.39761  -1.19566  -1.08987  -1.06874
 Alpha  occ. eigenvalues --   -1.04950  -1.02142  -0.95839  -0.94620  -0.86354
 Alpha  occ. eigenvalues --   -0.85647  -0.82675  -0.78176  -0.77737  -0.76642
 Alpha  occ. eigenvalues --   -0.72359  -0.71504  -0.70674  -0.65222  -0.64954
 Alpha  occ. eigenvalues --   -0.63504  -0.62296  -0.59548  -0.57996  -0.56225
 Alpha  occ. eigenvalues --   -0.55460  -0.53921  -0.53286  -0.53040  -0.51383
 Alpha  occ. eigenvalues --   -0.51051  -0.49220  -0.49138  -0.48574  -0.46529
 Alpha  occ. eigenvalues --   -0.45341  -0.44989  -0.44226  -0.43905  -0.42340
 Alpha  occ. eigenvalues --   -0.37541  -0.36546
 Alpha virt. eigenvalues --    0.04762   0.11110   0.16271   0.21247   0.24382
 Alpha virt. eigenvalues --    0.25568   0.27178   0.28060   0.28229   0.29049
 Alpha virt. eigenvalues --    0.29533   0.30889   0.32370   0.32655   0.33042

 Mulliken charges:
               1
     1  C   -0.304834
     2  C   -0.298412
     3  C   -0.474623
     4  H    0.176864
     5  H    0.143066
     6  H    0.149957
     7  H    0.145792
     8  H    0.151602
     9  H    0.157257
    10  H    0.154744
    11  C   -0.297007
    12  C   -0.304083
    13  C   -0.475007
    14  H    0.146657
    15  H    0.141290
    16  H    0.175083
    17  H    0.145821
    18  H    0.149646
    19  H    0.152621
    20  H    0.154733
    21  C   -0.170272
    22  C   -0.218634
    23  C   -0.170421
    24  C    0.157653
    25  C   -0.170554
    26  C   -0.218583
    27  H    0.226447
    28  H    0.224206
    29  H    0.276005
    30  H    0.276394
    31  H    0.224302
    32  N    0.488901
    33  O   -0.457321
    34  O   -0.459292
 Sum of Mulliken charges =  -0.00000

 Dipole moment (field-independent basis, Debye):
    X=             -5.6016    Y=              0.1139    Z=             -1.2787  Tot=              5.7469
 Quadrupole moment (field-independent basis, Debye-Ang):
   XX=            -70.7503   YY=            -97.0734   ZZ=            -90.6290
   XY=             -0.1201   XZ=              1.2656   YZ=             -2.3576

 Normal termination of Gaussian 16 at Wed May  5 18:28:25 2021.
