 Gaussian 16, Revision A.03,
 Gaussian 16:  EM64L-G16RevA.03 25-Dec-2016

 -------------
 #p 6-31g* mp2
 -------------

 ------------------------------------------------------
 Input file generated by CHIRIPA (05-May-2021 14:55:19)
 ------------------------------------------------------
 Symbolic Z-matrix:
 Charge =  0 Multiplicity = 1

                         Standard orientation:
 ---------------------------------------------------------------------
 Center     Atomic      Atomic             Coordinates (Angstroms)
 Number     Number       Type             X           Y           Z
 ---------------------------------------------------------------------
      1          6           0       -3.079299    2.721643    0.387433
      2          6           0       -4.091357    1.812691    0.713109
      3          6           0       -3.946512    0.453548    0.419345
      4          6           0       -2.771235    0.036053   -0.203320
      5          6           0       -1.744925    0.917191   -0.540323
      6          6           0       -1.911372    2.271785   -0.237143
      7          1           0       -3.200209    3.775691    0.619293
      8          1           0       -4.999462    2.159217    1.198198
      9          1           0       -4.714156   -0.271726    0.660422
     10          1           0       -0.851027    0.541829   -1.023509
     11          1           0       -1.123732    2.975426   -0.491226
     12          7           0       -2.606460   -1.400403   -0.519300
     13          8           0       -1.561461   -1.742950   -1.068185
     14          8           0       -3.525428   -2.156552   -0.212095
     15          6           0        3.942500    0.128679   -0.280834
     16          6           0        5.130575    0.842515    0.364844
     17          6           0        5.841672    1.795079   -0.596799
     18          1           0        4.291965   -0.429256   -1.160338
     19          1           0        3.229279    0.878802   -0.649650
     20          1           0        5.840686    0.091247    0.733566
     21          1           0        4.778274    1.398660    1.243024
     22          1           0        5.152031    2.565897   -0.955734
     23          1           0        6.220479    1.251056   -1.468088
     24          1           0        6.687703    2.294680   -0.114626
     25          6           0        3.221384   -0.827043    0.668017
     26          6           0        2.033309   -1.540878    0.022338
     27          6           0        1.322213   -2.493442    0.983981
     28          1           0        3.934606   -1.577165    1.036832
     29          1           0        2.871919   -0.269107    1.547521
     30          1           0        2.385610   -2.097024   -0.855842
     31          1           0        1.323198   -0.789610   -0.346383
     32          1           0        0.943406   -1.949418    1.855271
     33          1           0        2.011854   -3.264261    1.342916
     34          1           0        0.476181   -2.993043    0.501809
 ---------------------------------------------------------------------

 SCF Done:  E(RHF) =  -669.535949115     A.U. after   15 cycles
 E2 =    -0.2092136241D+01 EUMP2 =    -0.67162808535587D+03

 The electronic state is 1-A.
 Alpha  occ. eigenvalues --  -20.60944 -20.60932 -15.85960 -11.31284 -11.27845
 Alpha  occ. eigenvalues --  -11.27842 -11.27584 -11.26857 -11.26847 -11.21561
 Alpha  occ. eigenvalues --  -11.21277 -11.21099 -11.21051 -11.20973 -11.20084
 Alpha  occ. eigenvalues --   -1.59995  -1.39552  -1.19452  -1.08857  -1.08165
 Alpha  occ. eigenvalues --   -1.04850  -1.03155  -0.95718  -0.95578  -0.86622
 Alpha  occ. eigenvalues --   -0.86250  -0.82533  -0.79261  -0.77967  -0.77568
 Alpha  occ. eigenvalues --   -0.72193  -0.71307  -0.70564  -0.65111  -0.64902
 Alpha  occ. eigenvalues --   -0.64773  -0.62209  -0.60568  -0.58987  -0.57155
 Alpha  occ. eigenvalues --   -0.55356  -0.54924  -0.53182  -0.52947  -0.52235
 Alpha  occ. eigenvalues --   -0.52017  -0.49591  -0.48970  -0.48936  -0.47538
 Alpha  occ. eigenvalues --   -0.46334  -0.45480  -0.45429  -0.44918  -0.43386
 Alpha  occ. eigenvalues --   -0.37428  -0.36448
 Alpha virt. eigenvalues --    0.04898   0.11164   0.16390   0.20650   0.23009
 Alpha virt. eigenvalues --    0.24315   0.25720   0.27260   0.27625   0.28452
 Alpha virt. eigenvalues --    0.29053   0.30318   0.31483   0.31915   0.32793

 Mulliken charges:
               1
     1  C   -0.170417
     2  C   -0.218633
     3  C   -0.170416
     4  C    0.157130
     5  C   -0.173301
     6  C   -0.219912
     7  H    0.225989
     8  H    0.223815
     9  H    0.275843
    10  H    0.281668
    11  H    0.223907
    12  N    0.488512
    13  O   -0.460443
    14  O   -0.458919
    15  C   -0.296036
    16  C   -0.299189
    17  C   -0.475154
    18  H    0.151164
    19  H    0.141769
    20  H    0.153137
    21  H    0.150188
    22  H    0.152276
    23  H    0.156048
    24  H    0.159881
    25  C   -0.298407
    26  C   -0.297373
    27  C   -0.482663
    28  H    0.149844
    29  H    0.146112
    30  H    0.153972
    31  H    0.147792
    32  H    0.146882
    33  H    0.150054
    34  H    0.184877
 Sum of Mulliken charges =  -0.00000

 Dipole moment (field-independent basis, Debye):
    X=             -0.7851    Y=              4.9284    Z=              1.0497  Tot=              5.0998
 Quadrupole moment (field-independent basis, Debye-Ang):
   XX=            -87.8361   YY=            -94.4053   ZZ=            -95.6379
   XY=            -14.3189   XZ=             -5.0952   YZ=             -0.5497

 Normal termination of Gaussian 16 at Thu May  6 12:23:11 2021.
