 Gaussian 16, Revision A.03,
 Gaussian 16:  EM64L-G16RevA.03 25-Dec-2016

 -------------
 #p 6-31g* mp2
 -------------

 ------------------------------------------------------
 Input file generated by CHIRIPA (05-May-2021 14:57:23)
 ------------------------------------------------------
 Symbolic Z-matrix:
 Charge =  0 Multiplicity = 1

                         Standard orientation:
 ---------------------------------------------------------------------
 Center     Atomic      Atomic             Coordinates (Angstroms)
 Number     Number       Type             X           Y           Z
 ---------------------------------------------------------------------
      1          6           0       -0.678075   -0.832766    1.139518
      2          6           0       -1.154209    0.443074    1.458970
      3          6           0       -2.396960    0.875886    0.986963
      4          6           0       -3.140679    0.003004    0.194341
      5          6           0       -2.693590   -1.274020   -0.141234
      6          6           0       -1.447928   -1.685738    0.341842
      7          1           0        0.288455   -1.160792    1.510484
      8          1           0       -0.558486    1.107634    2.078259
      9          1           0       -2.789652    1.858417    1.219008
     10          1           0       -3.310148   -1.914027   -0.760642
     11          1           0       -1.080681   -2.677115    0.092152
     12          7           0       -4.457865    0.450037   -0.311211
     13          8           0       -5.093906   -0.337935   -1.007765
     14          8           0       -4.829292    1.579929   -0.001335
     15          6           0        2.603449   -2.431981   -0.264963
     16          6           0        1.855597   -1.635031   -1.137953
     17          6           0        2.024692   -0.247332   -1.153605
     18          6           0        2.954541    0.312620   -0.278890
     19          6           0        3.714617   -0.454598    0.602559
     20          6           0        3.528940   -1.840263    0.600979
     21          1           0        2.465651   -3.509189   -0.259498
     22          1           0        1.136131   -2.091829   -1.811561
     23          1           0        1.458942    0.393290   -1.819148
     24          1           0        4.424255    0.029601    1.262396
     25          1           0        4.111117   -2.456706    1.280033
     26          7           0        3.142331    1.780638   -0.286339
     27          8           0        3.967912    2.249609    0.494122
     28          8           0        2.460383    2.434505   -1.072497
 ---------------------------------------------------------------------

 SCF Done:  E(RHF) =  -868.336393973     A.U. after   16 cycles
 E2 =    -0.2603447964D+01 EUMP2 =    -0.87093984193671D+03

 The electronic state is 1-A.
 Alpha  occ. eigenvalues --  -20.61578 -20.61565 -20.60860 -20.60846 -15.86631
 Alpha  occ. eigenvalues --  -15.85916 -11.32169 -11.31309 -11.28761 -11.28666
 Alpha  occ. eigenvalues --  -11.28527 -11.27991 -11.27889 -11.27838 -11.27738
 Alpha  occ. eigenvalues --  -11.27612 -11.26994 -11.26826  -1.60651  -1.59933
 Alpha  occ. eigenvalues --   -1.40195  -1.39486  -1.20385  -1.19519  -1.09750
 Alpha  occ. eigenvalues --   -1.08894  -1.05769  -1.04939  -0.96533  -0.95716
 Alpha  occ. eigenvalues --   -0.87166  -0.86323  -0.83335  -0.82556  -0.78355
 Alpha  occ. eigenvalues --   -0.77602  -0.72835  -0.72132  -0.71995  -0.71444
 Alpha  occ. eigenvalues --   -0.71261  -0.70614  -0.65996  -0.65771  -0.65164
 Alpha  occ. eigenvalues --   -0.64942  -0.63079  -0.62282  -0.56271  -0.55646
 Alpha  occ. eigenvalues --   -0.54100  -0.53824  -0.53061  -0.53015  -0.49614
 Alpha  occ. eigenvalues --   -0.49584  -0.48895  -0.48882  -0.45558  -0.44886
 Alpha  occ. eigenvalues --   -0.38468  -0.38227  -0.36697  -0.36397
 Alpha virt. eigenvalues --    0.04071   0.05022   0.09830   0.11403   0.15577
 Alpha virt. eigenvalues --    0.16414   0.19955   0.21604   0.25703   0.27104
 Alpha virt. eigenvalues --    0.27861   0.28236   0.30026   0.30655   0.31999

 Mulliken charges:
               1
     1  C   -0.167469
     2  C   -0.222149
     3  C   -0.168106
     4  C    0.156968
     5  C   -0.172408
     6  C   -0.223951
     7  H    0.230273
     8  H    0.227366
     9  H    0.278598
    10  H    0.274116
    11  H    0.213775
    12  N    0.488249
    13  O   -0.461859
    14  O   -0.458377
    15  C   -0.181023
    16  C   -0.218635
    17  C   -0.166240
    18  C    0.155063
    19  C   -0.174499
    20  C   -0.221070
    21  H    0.226880
    22  H    0.225979
    23  H    0.281232
    24  H    0.278333
    25  H    0.226848
    26  N    0.487187
    27  O   -0.459102
    28  O   -0.455980
 Sum of Mulliken charges =  -0.00000

 Dipole moment (field-independent basis, Debye):
    X=              4.1349    Y=             -6.5088    Z=              1.7581  Tot=              7.9090
 Quadrupole moment (field-independent basis, Debye-Ang):
   XX=           -136.3706   YY=           -105.0896   ZZ=           -101.3466
   XY=            -10.5391   XZ=             -1.4984   YZ=              3.2177

 Normal termination of Gaussian 16 at Thu May  6 17:56:31 2021.
