 Gaussian 16, Revision A.03,
 Gaussian 16:  EM64L-G16RevA.03 25-Dec-2016

 -------------
 #p 6-31g* mp2
 -------------

 ------------------------------------------------------
 Input file generated by CHIRIPA (05-May-2021 14:57:23)
 ------------------------------------------------------
 Symbolic Z-matrix:
 Charge =  0 Multiplicity = 1

                         Standard orientation:
 ---------------------------------------------------------------------
 Center     Atomic      Atomic             Coordinates (Angstroms)
 Number     Number       Type             X           Y           Z
 ---------------------------------------------------------------------
      1          6           0        3.880323   -1.959526    0.191688
      2          6           0        4.036338   -1.086820    1.273615
      3          6           0        3.521098    0.211654    1.218464
      4          6           0        2.852371    0.606100    0.060662
      5          6           0        2.680716   -0.240078   -1.033782
      6          6           0        3.204202   -1.534120   -0.956532
      7          1           0        4.283777   -2.966490    0.243114
      8          1           0        4.560969   -1.414477    2.166615
      9          1           0        3.627574    0.907851    2.041502
     10          1           0        2.152954    0.115196   -1.910518
     11          1           0        3.081539   -2.209718   -1.798296
     12          7           0        2.302545    1.978390   -0.009420
     13          8           0        1.717434    2.301710   -1.040801
     14          8           0        2.467112    2.704686    0.968357
     15          6           0       -0.890616   -1.716171   -0.678966
     16          6           0       -1.798963   -2.215952    0.259994
     17          6           0       -2.939510   -1.484187    0.603824
     18          6           0       -3.141405   -0.250747   -0.013554
     19          6           0       -2.254916    0.274078   -0.952696
     20          6           0       -1.121085   -0.474940   -1.281253
     21          1           0       -0.007220   -2.291325   -0.940129
     22          1           0       -1.622541   -3.179610    0.729339
     23          1           0       -3.659062   -1.847382    1.327530
     24          1           0       -2.457805    1.237847   -1.403696
     25          1           0       -0.417364   -0.084317   -2.010797
     26          7           0       -4.345296    0.533072    0.342358
     27          8           0       -4.500350    1.617076   -0.215791
     28          8           0       -5.111056    0.048583    1.172732
 ---------------------------------------------------------------------

 SCF Done:  E(RHF) =  -868.337037474     A.U. after   16 cycles
 E2 =    -0.2601689794D+01 EUMP2 =    -0.87093872726795D+03

 The electronic state is 1-A.
 Alpha  occ. eigenvalues --  -20.61540 -20.61503 -20.60499 -20.60480 -15.86577
 Alpha  occ. eigenvalues --  -15.85548 -11.32076 -11.30960 -11.28780 -11.28605
 Alpha  occ. eigenvalues --  -11.28418 -11.27778 -11.27626 -11.27586 -11.27492
 Alpha  occ. eigenvalues --  -11.27369 -11.26638 -11.26566  -1.60583  -1.59567
 Alpha  occ. eigenvalues --   -1.40140  -1.39118  -1.20270  -1.19160  -1.09625
 Alpha  occ. eigenvalues --   -1.08567  -1.05712  -1.04562  -0.96444  -0.95381
 Alpha  occ. eigenvalues --   -0.87096  -0.85980  -0.83286  -0.82201  -0.78326
 Alpha  occ. eigenvalues --   -0.77224  -0.72797  -0.71900  -0.71770  -0.71380
 Alpha  occ. eigenvalues --   -0.70889  -0.70308  -0.65924  -0.65729  -0.64820
 Alpha  occ. eigenvalues --   -0.64611  -0.63052  -0.61881  -0.56173  -0.55185
 Alpha  occ. eigenvalues --   -0.53982  -0.53797  -0.52880  -0.52647  -0.49562
 Alpha  occ. eigenvalues --   -0.49539  -0.48535  -0.48513  -0.45514  -0.44512
 Alpha  occ. eigenvalues --   -0.38246  -0.37537  -0.36943  -0.36133
 Alpha virt. eigenvalues --    0.04202   0.05311   0.10132   0.11593   0.15588
 Alpha virt. eigenvalues --    0.16774   0.19307   0.22054   0.25177   0.26329
 Alpha virt. eigenvalues --    0.28026   0.29398   0.29649   0.30987   0.32340

 Mulliken charges:
               1
     1  C   -0.171150
     2  C   -0.217983
     3  C   -0.168661
     4  C    0.162392
     5  C   -0.173074
     6  C   -0.225541
     7  H    0.227839
     8  H    0.227027
     9  H    0.279461
    10  H    0.271425
    11  H    0.222239
    12  N    0.489263
    13  O   -0.464645
    14  O   -0.454306
    15  C   -0.170076
    16  C   -0.219654
    17  C   -0.170919
    18  C    0.158037
    19  C   -0.168582
    20  C   -0.221012
    21  H    0.218696
    22  H    0.220227
    23  H    0.274749
    24  H    0.281530
    25  H    0.224383
    26  N    0.488084
    27  O   -0.457691
    28  O   -0.462057
 Sum of Mulliken charges =  -0.00000

 Dipole moment (field-independent basis, Debye):
    X=              6.3500    Y=             -7.3466    Z=             -0.8203  Tot=              9.7452
 Quadrupole moment (field-independent basis, Debye-Ang):
   XX=           -120.0064   YY=           -107.5768   ZZ=            -99.0833
   XY=             -3.8097   XZ=              6.2440   YZ=             -1.5510

 Normal termination of Gaussian 16 at Wed May  5 16:21:26 2021.
