 Gaussian 16, Revision A.03,
 Gaussian 16:  EM64L-G16RevA.03 25-Dec-2016

 -------------
 #p 6-31g* mp2
 -------------

 ------------------------------------------------------
 Input file generated by CHIRIPA (05-May-2021 14:55:19)
 ------------------------------------------------------
 Symbolic Z-matrix:
 Charge =  0 Multiplicity = 1

                         Standard orientation:
 ---------------------------------------------------------------------
 Center     Atomic      Atomic             Coordinates (Angstroms)
 Number     Number       Type             X           Y           Z
 ---------------------------------------------------------------------
      1          6           0        5.700310    0.310360    0.047344
      2          6           0        5.320667   -1.016245    0.276498
      3          6           0        3.973218   -1.386569    0.234205
      4          6           0        3.027547   -0.400113   -0.041299
      5          6           0        3.374308    0.929897   -0.273939
      6          6           0        4.727633    1.277492   -0.226660
      7          1           0        6.749323    0.589209    0.082134
      8          1           0        6.073893   -1.769448    0.489525
      9          1           0        3.651528   -2.406276    0.407790
     10          1           0        2.600619    1.658430   -0.483852
     11          1           0        5.019557    2.308517   -0.405025
     12          7           0        1.597953   -0.780128   -0.088711
     13          8           0        0.784095    0.107766   -0.333493
     14          8           0        1.318364   -1.958681    0.119806
     15          6           0       -4.525154   -0.134265   -0.333285
     16          6           0       -5.661914   -0.779819    0.459823
     17          6           0       -6.348978   -1.910917   -0.305915
     18          1           0       -4.921768    0.251594   -1.282366
     19          1           0       -3.785634   -0.904186   -0.593530
     20          1           0       -6.398384   -0.008651    0.719686
     21          1           0       -5.262584   -1.164016    1.407211
     22          1           0       -5.631777   -2.700575   -0.552217
     23          1           0       -6.774029   -1.538645   -1.243650
     24          1           0       -7.158357   -2.358252    0.279454
     25          6           0       -3.828540    0.998219    0.419005
     26          6           0       -2.691780    1.643773   -0.374103
     27          6           0       -2.004716    2.774871    0.391636
     28          1           0       -4.568060    1.768140    0.679250
     29          1           0       -3.431926    0.612360    1.368086
     30          1           0       -3.091109    2.027970   -1.321491
     31          1           0       -1.955310    0.872605   -0.633965
     32          1           0       -1.579665    2.402599    1.329370
     33          1           0       -2.721917    3.564528    0.637937
     34          1           0       -1.195338    3.222206   -0.193734
 ---------------------------------------------------------------------

 SCF Done:  E(RHF) =  -669.536313639     A.U. after   15 cycles
 E2 =    -0.2090996300D+01 EUMP2 =    -0.67162730993927D+03

 The electronic state is 1-A.
 Alpha  occ. eigenvalues --  -20.61001 -20.60987 -15.86028 -11.31321 -11.27881
 Alpha  occ. eigenvalues --  -11.27876 -11.27615 -11.26883 -11.26873 -11.20709
 Alpha  occ. eigenvalues --  -11.20297 -11.20288 -11.20181 -11.20062 -11.19912
 Alpha  occ. eigenvalues --   -1.60057  -1.39613  -1.19487  -1.08897  -1.07286
 Alpha  occ. eigenvalues --   -1.04879  -1.02414  -0.95744  -0.94915  -0.86280
 Alpha  occ. eigenvalues --   -0.85943  -0.82578  -0.78496  -0.77634  -0.77073
 Alpha  occ. eigenvalues --   -0.72256  -0.71369  -0.70595  -0.65145  -0.64882
 Alpha  occ. eigenvalues --   -0.63898  -0.62226  -0.59787  -0.58298  -0.56515
 Alpha  occ. eigenvalues --   -0.55385  -0.54203  -0.53213  -0.52970  -0.51645
 Alpha  occ. eigenvalues --   -0.51347  -0.49080  -0.49001  -0.48821  -0.46813
 Alpha  occ. eigenvalues --   -0.45484  -0.45029  -0.44650  -0.44450  -0.42683
 Alpha  occ. eigenvalues --   -0.37466  -0.36479
 Alpha virt. eigenvalues --    0.04896   0.11177   0.16399   0.21263   0.23985
 Alpha virt. eigenvalues --    0.25227   0.27196   0.27748   0.28069   0.28767
 Alpha virt. eigenvalues --    0.29041   0.30865   0.32075   0.32461   0.32876

 Mulliken charges:
               1
     1  C   -0.170503
     2  C   -0.218638
     3  C   -0.170419
     4  C    0.157420
     5  C   -0.170748
     6  C   -0.218568
     7  H    0.226108
     8  H    0.223877
     9  H    0.275833
    10  H    0.276156
    11  H    0.224032
    12  N    0.492602
    13  O   -0.463800
    14  O   -0.459408
    15  C   -0.299181
    16  C   -0.298833
    17  C   -0.475358
    18  H    0.146152
    19  H    0.156514
    20  H    0.148831
    21  H    0.151875
    22  H    0.156482
    23  H    0.153281
    24  H    0.157192
    25  C   -0.297045
    26  C   -0.309957
    27  C   -0.470680
    28  H    0.143154
    29  H    0.150254
    30  H    0.143772
    31  H    0.182311
    32  H    0.155468
    33  H    0.147244
    34  H    0.154576
 Sum of Mulliken charges =  -0.00000

 Dipole moment (field-independent basis, Debye):
    X=              5.4006    Y=              1.1743    Z=              0.1373  Tot=              5.5285
 Quadrupole moment (field-independent basis, Debye-Ang):
   XX=            -65.7538   YY=            -92.3184   ZZ=            -95.5775
   XY=              0.2850   XZ=              0.7035   YZ=             -1.9621

 Normal termination of Gaussian 16 at Thu May  6 01:17:40 2021.
