 Gaussian 16, Revision A.03,
 Gaussian 16:  EM64L-G16RevA.03 25-Dec-2016

 -------------
 #p 6-31g* mp2
 -------------

 ------------------------------------------------------
 Input file generated by CHIRIPA (05-May-2021 14:51:13)
 ------------------------------------------------------
 Symbolic Z-matrix:
 Charge =  0 Multiplicity = 1

                         Standard orientation:
 ---------------------------------------------------------------------
 Center     Atomic      Atomic             Coordinates (Angstroms)
 Number     Number       Type             X           Y           Z
 ---------------------------------------------------------------------
      1          6           0       -5.477505   -0.307177   -0.364782
      2          6           0       -6.782493   -0.509830    0.405882
      3          6           0       -7.911036   -1.048525   -0.473886
      4          1           0       -5.655668    0.384526   -1.199497
      5          1           0       -5.171135   -1.263362   -0.811148
      6          1           0       -7.085580    0.446150    0.851815
      7          1           0       -6.601158   -1.200982    1.238974
      8          1           0       -7.633512   -2.014561   -0.907886
      9          1           0       -8.120687   -0.358071   -1.297245
     10          1           0       -8.834551   -1.185904    0.097172
     11          6           0       -4.339850    0.230952    0.501178
     12          6           0       -3.034862    0.433605   -0.269486
     13          6           0       -1.906318    0.972300    0.610282
     14          1           0       -4.646219    1.187137    0.947544
     15          1           0       -4.161687   -0.460751    1.335893
     16          1           0       -3.216197    1.124757   -1.102578
     17          1           0       -2.731774   -0.522375   -0.715419
     18          1           0       -1.696667    0.281846    1.433641
     19          1           0       -2.183842    1.938336    1.044282
     20          1           0       -0.982803    1.109679    0.039224
     21          6           0        4.190428    0.093101    0.185824
     22          6           0        3.348012    1.104826   -0.591821
     23          6           0        1.913550    1.203508   -0.071846
     24          1           0        3.710291   -0.893506    0.130867
     25          1           0        4.202933    0.375927    1.247544
     26          1           0        3.338241    0.820953   -1.651979
     27          1           0        3.830313    2.089098   -0.535165
     28          1           0        1.905011    1.509321    0.979347
     29          1           0        1.410144    0.233969   -0.143813
     30          1           0        1.329109    1.932375   -0.641971
     31          6           0        5.626926   -0.016876   -0.322221
     32          6           0        6.469343   -1.028601    0.455424
     33          6           0        7.903804   -1.127283   -0.064550
     34          1           0        5.614421   -0.299702   -1.383940
     35          1           0        6.107064    0.969730   -0.267263
     36          1           0        5.987042   -2.012874    0.398769
     37          1           0        6.479114   -0.744728    1.515583
     38          1           0        8.407211   -0.157745    0.007417
     39          1           0        7.912343   -1.433096   -1.115743
     40          1           0        8.488245   -1.856151    0.505575
 ---------------------------------------------------------------------

 SCF Done:  E(RHF) =  -470.732949395     A.U. after   11 cycles
 E2 =    -0.1582357209D+01 EUMP2 =    -0.47231530660437D+03

 The electronic state is 1-A.
 Alpha  occ. eigenvalues --  -11.21603 -11.21598 -11.21567 -11.21512 -11.21408
 Alpha  occ. eigenvalues --  -11.21349 -11.21348 -11.21286 -11.21078 -11.21073
 Alpha  occ. eigenvalues --  -11.21045 -11.20866  -1.08434  -1.08367  -1.03546
 Alpha  occ. eigenvalues --   -1.03448  -0.96031  -0.95866  -0.87096  -0.86839
 Alpha  occ. eigenvalues --   -0.79662  -0.79465  -0.78247  -0.78182  -0.65064
 Alpha  occ. eigenvalues --   -0.65000  -0.60943  -0.60852  -0.59514  -0.59154
 Alpha  occ. eigenvalues --   -0.57598  -0.57521  -0.55287  -0.55178  -0.53033
 Alpha  occ. eigenvalues --   -0.52479  -0.52357  -0.52139  -0.49934  -0.49831
 Alpha  occ. eigenvalues --   -0.47923  -0.47825  -0.46630  -0.46555  -0.45788
 Alpha  occ. eigenvalues --   -0.45726  -0.45708  -0.45653  -0.43946  -0.43510
 Alpha virt. eigenvalues --    0.22565   0.22978   0.23675   0.24783   0.26638
 Alpha virt. eigenvalues --    0.26702   0.26911   0.27488   0.27583   0.28988
 Alpha virt. eigenvalues --    0.30461   0.31311   0.31474   0.31698   0.32029

 Mulliken charges:
               1
     1  C   -0.298117
     2  C   -0.299562
     3  C   -0.475654
     4  H    0.149470
     5  H    0.149292
     6  H    0.151859
     7  H    0.151852
     8  H    0.155087
     9  H    0.155106
    10  H    0.160125
    11  C   -0.298306
    12  C   -0.299035
    13  C   -0.484528
    14  H    0.149347
    15  H    0.149420
    16  H    0.151233
    17  H    0.151078
    18  H    0.154052
    19  H    0.153892
    20  H    0.173172
    21  C   -0.298571
    22  C   -0.300222
    23  C   -0.477366
    24  H    0.149676
    25  H    0.149627
    26  H    0.151840
    27  H    0.151925
    28  H    0.156854
    29  H    0.156375
    30  H    0.160023
    31  C   -0.298314
    32  C   -0.299621
    33  C   -0.475705
    34  H    0.149506
    35  H    0.149687
    36  H    0.151916
    37  H    0.151959
    38  H    0.155192
    39  H    0.155174
    40  H    0.160260
 Sum of Mulliken charges =  -0.00000

 Dipole moment (field-independent basis, Debye):
    X=              0.0559    Y=              0.0109    Z=              0.0008  Tot=              0.0569
 Quadrupole moment (field-independent basis, Debye-Ang):
   XX=            -86.8700   YY=            -83.4850   ZZ=            -84.6678
   XY=             -0.2039   XZ=              0.1114   YZ=              0.0249

 Normal termination of Gaussian 16 at Wed May  5 21:33:48 2021.
