 Gaussian 16, Revision A.03,
 Gaussian 16:  EM64L-G16RevA.03 25-Dec-2016

 -------------
 #p 6-31g* mp2
 -------------

 ------------------------------------------------------
 Input file generated by CHIRIPA (05-May-2021 14:51:08)
 ------------------------------------------------------
 Symbolic Z-matrix:
 Charge =  0 Multiplicity = 1

                         Standard orientation:
 ---------------------------------------------------------------------
 Center     Atomic      Atomic             Coordinates (Angstroms)
 Number     Number       Type             X           Y           Z
 ---------------------------------------------------------------------
      1          6           0        2.761864   -0.935489    0.050710
      2          6           0        2.986344    0.491182    0.552910
      3          6           0        4.465172    0.818416    0.762142
      4          1           0        3.197354   -1.643173    0.769374
      5          1           0        3.306240   -1.074261   -0.893638
      6          1           0        2.440580    0.627648    1.495320
      7          1           0        2.550100    1.195544   -0.166938
      8          1           0        5.020098    0.710039   -0.175362
      9          1           0        4.909956    0.138916    1.496340
     10          1           0        4.602701    1.843096    1.121276
     11          6           0        1.288470   -1.277625   -0.163255
     12          6           0        1.063991   -2.704296   -0.665455
     13          6           0       -0.414838   -3.031530   -0.874687
     14          1           0        0.744094   -1.138853    0.781093
     15          1           0        0.852980   -0.569941   -0.881918
     16          1           0        1.500234   -3.408659    0.054393
     17          1           0        1.609754   -2.840762   -1.607864
     18          1           0       -0.859622   -2.352030   -1.608885
     19          1           0       -0.969764   -2.923153    0.062817
     20          1           0       -0.552366   -4.056210   -1.233821
     21          6           0       -1.733872    1.565224   -0.480574
     22          6           0       -0.847238    2.674788    0.085761
     23          6           0       -0.271882    3.584102   -1.000474
     24          1           0       -1.149963    0.965093   -1.191796
     25          1           0       -2.554750    2.018013   -1.053755
     26          1           0       -0.029063    2.220077    0.658860
     27          1           0       -1.433272    3.272230    0.795862
     28          1           0       -1.076373    4.064543   -1.566665
     29          1           0        0.335815    3.006411   -1.704447
     30          1           0        0.358749    4.370153   -0.573522
     31          6           0       -2.316462    0.647889    0.593119
     32          6           0       -3.203096   -0.461673    0.026783
     33          6           0       -3.778452   -1.370988    1.113019
     34          1           0       -1.495584    0.195101    1.166300
     35          1           0       -2.900371    1.248021    1.304341
     36          1           0       -2.617062   -1.059116   -0.683318
     37          1           0       -4.021273   -0.006963   -0.546315
     38          1           0       -4.386149   -0.793297    1.816992
     39          1           0       -2.973961   -1.851428    1.679210
     40          1           0       -4.409084   -2.157039    0.686067
 ---------------------------------------------------------------------

 SCF Done:  E(RHF) =  -470.731889720     A.U. after   11 cycles
 E2 =    -0.1586435843D+01 EUMP2 =    -0.47231832556315D+03

 The electronic state is 1-A.
 Alpha  occ. eigenvalues --  -11.21705 -11.21688 -11.21512 -11.21500 -11.21449
 Alpha  occ. eigenvalues --  -11.21395 -11.21297 -11.21226 -11.21158 -11.21130
 Alpha  occ. eigenvalues --  -11.21046 -11.21004  -1.08565  -1.08301  -1.03650
 Alpha  occ. eigenvalues --   -1.03419  -0.96101  -0.95884  -0.87104  -0.86918
 Alpha  occ. eigenvalues --   -0.79716  -0.79497  -0.78378  -0.78143  -0.65196
 Alpha  occ. eigenvalues --   -0.64953  -0.61039  -0.60917  -0.59406  -0.59273
 Alpha  occ. eigenvalues --   -0.57710  -0.57510  -0.55400  -0.55193  -0.52762
 Alpha  occ. eigenvalues --   -0.52609  -0.52549  -0.52250  -0.50182  -0.49699
 Alpha  occ. eigenvalues --   -0.48224  -0.47638  -0.46814  -0.46482  -0.46229
 Alpha  occ. eigenvalues --   -0.46071  -0.45285  -0.45180  -0.43880  -0.43680
 Alpha virt. eigenvalues --    0.19637   0.21607   0.23385   0.23847   0.25172
 Alpha virt. eigenvalues --    0.25885   0.26740   0.28082   0.29240   0.29741
 Alpha virt. eigenvalues --    0.30765   0.31321   0.31612   0.32146   0.32252

 Mulliken charges:
               1
     1  C   -0.297774
     2  C   -0.303092
     3  C   -0.475691
     4  H    0.150030
     5  H    0.149817
     6  H    0.152319
     7  H    0.154925
     8  H    0.155408
     9  H    0.155353
    10  H    0.160780
    11  C   -0.305913
    12  C   -0.299461
    13  C   -0.481663
    14  H    0.151922
    15  H    0.154087
    16  H    0.152321
    17  H    0.152232
    18  H    0.157052
    19  H    0.160020
    20  H    0.161279
    21  C   -0.300246
    22  C   -0.303966
    23  C   -0.475771
    24  H    0.150927
    25  H    0.149142
    26  H    0.156856
    27  H    0.151575
    28  H    0.155126
    29  H    0.153886
    30  H    0.160150
    31  C   -0.300690
    32  C   -0.306945
    33  C   -0.476105
    34  H    0.152232
    35  H    0.148929
    36  H    0.161198
    37  H    0.150871
    38  H    0.154907
    39  H    0.153696
    40  H    0.160276
 Sum of Mulliken charges =  -0.00000

 Dipole moment (field-independent basis, Debye):
    X=              0.0713    Y=             -0.0615    Z=             -0.0117  Tot=              0.0949
 Quadrupole moment (field-independent basis, Debye-Ang):
   XX=            -85.5112   YY=            -84.9878   ZZ=            -84.3430
   XY=             -1.1705   XZ=              0.0618   YZ=              0.2186

 Normal termination of Gaussian 16 at Wed May  5 22:54:37 2021.
