 Gaussian 16, Revision A.03,
 Gaussian 16:  EM64L-G16RevA.03 25-Dec-2016

 -------------
 #p 6-31g* mp2
 -------------

 ------------------------------------------------------
 Input file generated by CHIRIPA (05-May-2021 14:55:23)
 ------------------------------------------------------
 Symbolic Z-matrix:
 Charge =  0 Multiplicity = 1

                         Standard orientation:
 ---------------------------------------------------------------------
 Center     Atomic      Atomic             Coordinates (Angstroms)
 Number     Number       Type             X           Y           Z
 ---------------------------------------------------------------------
      1          6           0       -1.415497    1.388150    1.937991
      2          6           0       -2.718797    1.712513    1.547201
      3          6           0       -3.383744    0.944924    0.586368
      4          6           0       -2.712470   -0.145074    0.034475
      5          6           0       -1.414036   -0.493672    0.403039
      6          6           0       -0.768416    0.288032    1.365672
      7          1           0       -0.906457    1.989914    2.685089
      8          1           0       -3.223786    2.566317    1.989977
      9          1           0       -4.392784    1.173599    0.265487
     10          1           0       -0.936535   -1.350708   -0.056199
     11          1           0        0.243737    0.033776    1.667242
     12          7           0       -3.406189   -0.965157   -0.983669
     13          8           0       -2.792932   -1.920447   -1.454811
     14          8           0       -4.550047   -0.637121   -1.291269
     15          6           0        3.578461    0.728678   -0.341756
     16          6           0        2.636629    1.613607   -1.158968
     17          6           0        3.156168    3.043023   -1.315948
     18          1           0        3.725125    1.178012    0.649977
     19          1           0        4.564880    0.710219   -0.825525
     20          1           0        1.651889    1.629279   -0.674553
     21          1           0        2.492038    1.162013   -2.148803
     22          1           0        4.128231    3.046472   -1.819616
     23          1           0        3.283308    3.516392   -0.336989
     24          1           0        2.467501    3.658243   -1.903401
     25          6           0        3.072768   -0.703298   -0.176075
     26          6           0        4.014601   -1.588227    0.641138
     27          6           0        3.495062   -3.017643    0.798118
     28          1           0        2.086350   -0.684839    0.307695
     29          1           0        2.926104   -1.152632   -1.167807
     30          1           0        4.159192   -1.136633    1.630973
     31          1           0        4.999341   -1.603899    0.156723
     32          1           0        3.367921   -3.491013   -0.180840
     33          1           0        2.522998   -3.021092    1.301786
     34          1           0        4.183729   -3.632863    1.385571
 ---------------------------------------------------------------------

 SCF Done:  E(RHF) =  -669.535488764     A.U. after   15 cycles
 E2 =    -0.2092092797D+01 EUMP2 =    -0.67162758156109D+03

 The electronic state is 1-A.
 Alpha  occ. eigenvalues --  -20.60767 -20.60762 -15.85822 -11.31203 -11.27788
 Alpha  occ. eigenvalues --  -11.27782 -11.27541 -11.26801 -11.26791 -11.22223
 Alpha  occ. eigenvalues --  -11.22137 -11.22056 -11.21969 -11.21605 -11.21489
 Alpha  occ. eigenvalues --   -1.59842  -1.39395  -1.19388  -1.09053  -1.08778
 Alpha  occ. eigenvalues --   -1.04796  -1.04066  -0.96527  -0.95608  -0.87536
 Alpha  occ. eigenvalues --   -0.86192  -0.82447  -0.80126  -0.78882  -0.77477
 Alpha  occ. eigenvalues --   -0.72040  -0.71166  -0.70493  -0.65774  -0.65039
 Alpha  occ. eigenvalues --   -0.64755  -0.62145  -0.61463  -0.59886  -0.58127
 Alpha  occ. eigenvalues --   -0.55838  -0.55292  -0.53200  -0.53103  -0.52979
 Alpha  occ. eigenvalues --   -0.52853  -0.50472  -0.48803  -0.48793  -0.48438
 Alpha  occ. eigenvalues --   -0.47174  -0.46388  -0.46331  -0.44797  -0.44349
 Alpha  occ. eigenvalues --   -0.37366  -0.36376
 Alpha virt. eigenvalues --    0.05043   0.11195   0.16423   0.19294   0.22881
 Alpha virt. eigenvalues --    0.23674   0.25132   0.26500   0.27378   0.28231
 Alpha virt. eigenvalues --    0.29422   0.30619   0.31239   0.31533   0.31998

 Mulliken charges:
               1
     1  C   -0.171668
     2  C   -0.218638
     3  C   -0.170504
     4  C    0.158271
     5  C   -0.171607
     6  C   -0.221244
     7  H    0.225983
     8  H    0.223594
     9  H    0.275818
    10  H    0.276792
    11  H    0.227760
    12  N    0.488173
    13  O   -0.460053
    14  O   -0.460533
    15  C   -0.298394
    16  C   -0.303131
    17  C   -0.475757
    18  H    0.146281
    19  H    0.153121
    20  H    0.151654
    21  H    0.155883
    22  H    0.156823
    23  H    0.152741
    24  H    0.162522
    25  C   -0.302291
    26  C   -0.300161
    27  C   -0.475546
    28  H    0.139421
    29  H    0.156040
    30  H    0.149952
    31  H    0.155721
    32  H    0.159400
    33  H    0.150488
    34  H    0.163087
 Sum of Mulliken charges =  -0.00000

 Dipole moment (field-independent basis, Debye):
    X=              2.5314    Y=              2.8650    Z=              3.4915  Tot=              5.1775
 Quadrupole moment (field-independent basis, Debye-Ang):
   XX=           -104.2898   YY=            -95.2015   ZZ=            -94.4331
   XY=            -11.6462   XZ=            -10.7494   YZ=              0.3671

 Normal termination of Gaussian 16 at Thu May  6 10:58:48 2021.
