 Gaussian 16, Revision A.03,
 Gaussian 16:  EM64L-G16RevA.03 25-Dec-2016

 -------------
 #p 6-31g* mp2
 -------------

 ------------------------------------------------------
 Input file generated by CHIRIPA (05-May-2021 14:53:15)
 ------------------------------------------------------
 Symbolic Z-matrix:
 Charge =  0 Multiplicity = 1

                         Standard orientation:
 ---------------------------------------------------------------------
 Center     Atomic      Atomic             Coordinates (Angstroms)
 Number     Number       Type             X           Y           Z
 ---------------------------------------------------------------------
      1          6           0        3.455860    0.790500   -0.474773
      2          6           0        2.244731    1.667570   -0.155558
      3          6           0        2.391229    3.093800   -0.686783
      4          1           0        4.357114    1.251505   -0.047971
      5          1           0        3.603891    0.763946   -1.563248
      6          1           0        2.098196    1.691342    0.931907
      7          1           0        1.346227    1.204325   -0.583005
      8          1           0        2.514545    3.088942   -1.774612
      9          1           0        3.270787    3.578726   -0.251093
     10          1           0        1.514313    3.703398   -0.447476
     11          6           0        3.324324   -0.638214    0.049824
     12          6           0        4.535454   -1.515284   -0.269392
     13          6           0        4.388955   -2.941514    0.261834
     14          1           0        3.176293   -0.611660    1.138298
     15          1           0        2.423070   -1.099219   -0.376978
     16          1           0        5.433957   -1.052039    0.158056
     17          1           0        4.681988   -1.539056   -1.356856
     18          1           0        3.509398   -3.426440   -0.173857
     19          1           0        4.265639   -2.936656    1.349662
     20          1           0        5.265871   -3.551112    0.022527
     21          6           0       -1.263165    1.892367    0.964125
     22          6           0       -2.398382    2.114779    0.177782
     23          6           0       -3.173422    1.040857   -0.270047
     24          6           0       -2.782439   -0.248185    0.088836
     25          6           0       -1.656803   -0.502149    0.870970
     26          6           0       -0.896645    0.586915    1.307604
     27          1           0       -0.666877    2.732497    1.307661
     28          1           0       -2.685415    3.127537   -0.090510
     29          1           0       -4.057041    1.184478   -0.879971
     30          1           0       -1.395828   -1.523034    1.122175
     31          1           0       -0.015521    0.411193    1.918167
     32          7           0       -3.595062   -1.393113   -0.379335
     33          8           0       -3.229371   -2.519204   -0.049446
     34          8           0       -4.582299   -1.142738   -1.067312
 ---------------------------------------------------------------------

 SCF Done:  E(RHF) =  -669.534600296     A.U. after   15 cycles
 E2 =    -0.2093138182D+01 EUMP2 =    -0.67162773847773D+03

 The electronic state is 1-A.
 Alpha  occ. eigenvalues --  -20.60754 -20.60748 -15.85806 -11.31166 -11.27728
 Alpha  occ. eigenvalues --  -11.27703 -11.27443 -11.26752 -11.26698 -11.22368
 Alpha  occ. eigenvalues --  -11.22054 -11.22018 -11.21963 -11.21912 -11.21407
 Alpha  occ. eigenvalues --   -1.59830  -1.39383  -1.19338  -1.09069  -1.08724
 Alpha  occ. eigenvalues --   -1.04740  -1.04140  -0.96588  -0.95565  -0.87603
 Alpha  occ. eigenvalues --   -0.86137  -0.82396  -0.80233  -0.78886  -0.77437
 Alpha  occ. eigenvalues --   -0.72024  -0.71153  -0.70440  -0.65686  -0.64984
 Alpha  occ. eigenvalues --   -0.64739  -0.62090  -0.61526  -0.59992  -0.58220
 Alpha  occ. eigenvalues --   -0.55854  -0.55222  -0.53337  -0.53077  -0.52990
 Alpha  occ. eigenvalues --   -0.52808  -0.50511  -0.48797  -0.48781  -0.48509
 Alpha  occ. eigenvalues --   -0.47243  -0.46405  -0.46313  -0.44790  -0.44402
 Alpha  occ. eigenvalues --   -0.37251  -0.36304
 Alpha virt. eigenvalues --    0.05050   0.11293   0.16452   0.19770   0.22654
 Alpha virt. eigenvalues --    0.23620   0.24772   0.26040   0.26606   0.28674
 Alpha virt. eigenvalues --    0.28826   0.30335   0.31148   0.31536   0.32311

 Mulliken charges:
               1
     1  C   -0.298183
     2  C   -0.304636
     3  C   -0.475473
     4  H    0.150391
     5  H    0.152970
     6  H    0.139410
     7  H    0.163038
     8  H    0.160097
     9  H    0.157198
    10  H    0.152305
    11  C   -0.299663
    12  C   -0.299921
    13  C   -0.476572
    14  H    0.143975
    15  H    0.151674
    16  H    0.152514
    17  H    0.154280
    18  H    0.157521
    19  H    0.154104
    20  H    0.162442
    21  C   -0.169853
    22  C   -0.219396
    23  C   -0.171462
    24  C    0.158516
    25  C   -0.173709
    26  C   -0.215732
    27  H    0.226979
    28  H    0.223272
    29  H    0.275414
    30  H    0.275580
    31  H    0.225944
    32  N    0.488047
    33  O   -0.460521
    34  O   -0.460550
 Sum of Mulliken charges =  -0.00000

 Dipole moment (field-independent basis, Debye):
    X=              2.9715    Y=              3.9775    Z=              1.5448  Tot=              5.1997
 Quadrupole moment (field-independent basis, Debye-Ang):
   XX=           -108.8288   YY=            -96.2660   ZZ=            -93.3100
   XY=            -14.3215   XZ=             -2.6556   YZ=             -1.2199

 Normal termination of Gaussian 16 at Wed May  5 20:19:19 2021.
