 Gaussian 16, Revision A.03,
 Gaussian 16:  EM64L-G16RevA.03 25-Dec-2016

 -------------
 #p 6-31g* mp2
 -------------

 ------------------------------------------------------
 Input file generated by CHIRIPA (05-May-2021 14:51:11)
 ------------------------------------------------------
 Symbolic Z-matrix:
 Charge =  0 Multiplicity = 1

                         Standard orientation:
 ---------------------------------------------------------------------
 Center     Atomic      Atomic             Coordinates (Angstroms)
 Number     Number       Type             X           Y           Z
 ---------------------------------------------------------------------
      1          6           0       -3.288646    0.559179    0.664156
      2          6           0       -1.767440    0.490835    0.802888
      3          6           0       -1.181199    1.721054    1.496196
      4          1           0       -3.558862    1.462868    0.100885
      5          1           0       -3.736356    0.667154    1.661800
      6          1           0       -1.322807    0.381631   -0.194605
      7          1           0       -1.500804   -0.412897    1.365730
      8          1           0       -1.597329    1.830822    2.502868
      9          1           0       -1.418321    2.629864    0.933668
     10          1           0       -0.092562    1.651280    1.584854
     11          6           0       -3.889484   -0.663536   -0.026996
     12          6           0       -5.410690   -0.595191   -0.165728
     13          6           0       -5.996931   -1.825410   -0.859036
     14          1           0       -3.441774   -0.771510   -1.024639
     15          1           0       -3.619268   -1.567224    0.536276
     16          1           0       -5.677326    0.308541   -0.728569
     17          1           0       -5.855323   -0.485987    0.831765
     18          1           0       -5.759809   -2.734220   -0.296507
     19          1           0       -5.580801   -1.935179   -1.865707
     20          1           0       -7.085568   -1.755636   -0.947694
     21          6           0        3.066224    0.327643   -0.802510
     22          6           0        2.511107    1.689672   -0.384531
     23          6           0        1.466221    2.227606   -1.362611
     24          1           0        3.508578    0.410960   -1.804671
     25          1           0        2.237118   -0.388675   -0.885378
     26          1           0        3.341178    2.402863   -0.301132
     27          1           0        2.070194    1.603149    0.616830
     28          1           0        0.619225    1.538160   -1.439171
     29          1           0        1.897432    2.342417   -2.362349
     30          1           0        1.082754    3.202113   -1.044574
     31          6           0        4.111906   -0.223287    0.165350
     32          6           0        4.667024   -1.585316   -0.252629
     33          6           0        5.711908   -2.123250    0.725450
     34          1           0        4.941012    0.493031    0.248218
     35          1           0        3.669553   -0.306604    1.167511
     36          1           0        5.107936   -1.498793   -1.253991
     37          1           0        3.836951   -2.298507   -0.336028
     38          1           0        5.280699   -2.238061    1.725189
     39          1           0        6.558905   -1.433803    0.802010
     40          1           0        6.095376   -3.097757    0.407413
 ---------------------------------------------------------------------

 SCF Done:  E(RHF) =  -470.732857172     A.U. after   11 cycles
 E2 =    -0.1583523246D+01 EUMP2 =    -0.47231638041870D+03

 The electronic state is 1-A.
 Alpha  occ. eigenvalues --  -11.21633 -11.21612 -11.21598 -11.21589 -11.21422
 Alpha  occ. eigenvalues --  -11.21401 -11.21363 -11.21341 -11.21080 -11.21068
 Alpha  occ. eigenvalues --  -11.21047 -11.21042  -1.08460  -1.08415  -1.03593
 Alpha  occ. eigenvalues --   -1.03476  -0.96048  -0.95913  -0.87017  -0.86979
 Alpha  occ. eigenvalues --   -0.79654  -0.79550  -0.78275  -0.78228  -0.65158
 Alpha  occ. eigenvalues --   -0.65007  -0.61178  -0.60795  -0.59418  -0.59237
 Alpha  occ. eigenvalues --   -0.57638  -0.57541  -0.55423  -0.55079  -0.52711
 Alpha  occ. eigenvalues --   -0.52630  -0.52423  -0.52392  -0.49925  -0.49921
 Alpha  occ. eigenvalues --   -0.47972  -0.47898  -0.46732  -0.46521  -0.45837
 Alpha  occ. eigenvalues --   -0.45789  -0.45737  -0.45607  -0.43794  -0.43742
 Alpha virt. eigenvalues --    0.20362   0.23107   0.23570   0.25538   0.25652
 Alpha virt. eigenvalues --    0.26207   0.26841   0.27687   0.27885   0.29357
 Alpha virt. eigenvalues --    0.30215   0.30320   0.30955   0.32224   0.32371

 Mulliken charges:
               1
     1  C   -0.298141
     2  C   -0.303435
     3  C   -0.480241
     4  H    0.150014
     5  H    0.149683
     6  H    0.154419
     7  H    0.151503
     8  H    0.154693
     9  H    0.156057
    10  H    0.165506
    11  C   -0.298346
    12  C   -0.299678
    13  C   -0.475732
    14  H    0.149468
    15  H    0.149543
    16  H    0.152077
    17  H    0.151960
    18  H    0.155142
    19  H    0.155233
    20  H    0.160318
    21  C   -0.298336
    22  C   -0.304744
    23  C   -0.478665
    24  H    0.149664
    25  H    0.149764
    26  H    0.152220
    27  H    0.155881
    28  H    0.158739
    29  H    0.154679
    30  H    0.160852
    31  C   -0.298296
    32  C   -0.299680
    33  C   -0.475714
    34  H    0.149568
    35  H    0.149461
    36  H    0.151934
    37  H    0.152036
    38  H    0.155166
    39  H    0.155177
    40  H    0.160248
 Sum of Mulliken charges =  -0.00000

 Dipole moment (field-independent basis, Debye):
    X=             -0.0069    Y=              0.0100    Z=             -0.0014  Tot=              0.0122
 Quadrupole moment (field-independent basis, Debye-Ang):
   XX=            -85.1641   YY=            -85.2952   ZZ=            -84.3040
   XY=              0.3126   XZ=             -1.2204   YZ=             -0.7564

 Normal termination of Gaussian 16 at Wed May  5 23:05:32 2021.
