 Gaussian 16, Revision A.03,
 Gaussian 16:  EM64L-G16RevA.03 25-Dec-2016

 -------------
 #p 6-31g* mp2
 -------------

 ------------------------------------------------------
 Input file generated by CHIRIPA (05-May-2021 14:53:15)
 ------------------------------------------------------
 Symbolic Z-matrix:
 Charge =  0 Multiplicity = 1

                         Standard orientation:
 ---------------------------------------------------------------------
 Center     Atomic      Atomic             Coordinates (Angstroms)
 Number     Number       Type             X           Y           Z
 ---------------------------------------------------------------------
      1          6           0       -3.122577   -0.755101    0.038177
      2          6           0       -2.539646   -1.638406    1.141784
      3          6           0       -2.755994   -3.129489    0.881669
      4          1           0       -4.197710   -0.959929   -0.057107
      5          1           0       -2.665537   -1.030798   -0.922292
      6          1           0       -2.996636   -1.360187    2.100100
      7          1           0       -1.465813   -1.431314    1.234583
      8          1           0       -2.284986   -3.428532   -0.060311
      9          1           0       -3.824508   -3.357001    0.810124
     10          1           0       -2.331502   -3.742512    1.682836
     11          6           0       -2.914225    0.738185    0.283968
     12          6           0       -3.497157    1.621490   -0.819639
     13          6           0       -3.280808    3.112573   -0.559523
     14          1           0       -3.371266    1.013882    1.244437
     15          1           0       -1.839092    0.943013    0.379253
     16          1           0       -4.570990    1.414398   -0.912437
     17          1           0       -3.040166    1.343271   -1.777955
     18          1           0       -2.212295    3.340085   -0.487979
     19          1           0       -3.751816    3.411616    0.382456
     20          1           0       -3.705300    3.725596   -1.360691
     21          6           0        2.974888    2.268295    0.807060
     22          6           0        3.925880    1.243217    0.770308
     23          6           0        3.595261   -0.013889    0.255603
     24          6           0        2.298499   -0.212043   -0.216027
     25          6           0        1.328810    0.789185   -0.192937
     26          6           0        1.681668    2.038413    0.326168
     27          1           0        3.240359    3.241785    1.208605
     28          1           0        4.930979    1.418892    1.143082
     29          1           0        4.311906   -0.825189    0.215214
     30          1           0        0.334961    0.583966   -0.571841
     31          1           0        0.941063    2.832643    0.353460
     32          7           0        1.936717   -1.538716   -0.763252
     33          8           0        0.787444   -1.687880   -1.172592
     34          8           0        2.809274   -2.404277   -0.772463
 ---------------------------------------------------------------------

 SCF Done:  E(RHF) =  -669.535960601     A.U. after   15 cycles
 E2 =    -0.2092661966D+01 EUMP2 =    -0.67162862256669D+03

 The electronic state is 1-A.
 Alpha  occ. eigenvalues --  -20.60918 -20.60913 -15.85952 -11.31262 -11.27826
 Alpha  occ. eigenvalues --  -11.27806 -11.27559 -11.26837 -11.26825 -11.21832
 Alpha  occ. eigenvalues --  -11.21574 -11.21532 -11.21106 -11.21037 -11.20327
 Alpha  occ. eigenvalues --   -1.59977  -1.39533  -1.19432  -1.08836  -1.08360
 Alpha  occ. eigenvalues --   -1.04829  -1.03382  -0.95862  -0.95679  -0.86871
 Alpha  occ. eigenvalues --   -0.86229  -0.82515  -0.79520  -0.78111  -0.77561
 Alpha  occ. eigenvalues --   -0.72176  -0.71290  -0.70550  -0.65109  -0.65088
 Alpha  occ. eigenvalues --   -0.64749  -0.62162  -0.60758  -0.59285  -0.57449
 Alpha  occ. eigenvalues --   -0.55360  -0.55140  -0.53157  -0.52921  -0.52544
 Alpha  occ. eigenvalues --   -0.52265  -0.49800  -0.48926  -0.48921  -0.47814
 Alpha  occ. eigenvalues --   -0.46576  -0.45678  -0.45489  -0.44900  -0.43653
 Alpha  occ. eigenvalues --   -0.37408  -0.36419
 Alpha virt. eigenvalues --    0.04919   0.11172   0.16407   0.18846   0.23003
 Alpha virt. eigenvalues --    0.23745   0.25599   0.26516   0.27595   0.28386
 Alpha virt. eigenvalues --    0.29497   0.31102   0.31719   0.32311   0.32854

 Mulliken charges:
               1
     1  C   -0.301560
     2  C   -0.297619
     3  C   -0.477943
     4  H    0.148741
     5  H    0.161355
     6  H    0.146513
     7  H    0.154093
     8  H    0.168688
     9  H    0.150601
    10  H    0.158903
    11  C   -0.300027
    12  C   -0.301273
    13  C   -0.473670
    14  H    0.150519
    15  H    0.137369
    16  H    0.155532
    17  H    0.154019
    18  H    0.143885
    19  H    0.156637
    20  H    0.162660
    21  C   -0.170580
    22  C   -0.218520
    23  C   -0.170585
    24  C    0.158974
    25  C   -0.176748
    26  C   -0.221190
    27  H    0.226191
    28  H    0.223815
    29  H    0.275741
    30  H    0.282799
    31  H    0.225275
    32  N    0.488505
    33  O   -0.462163
    34  O   -0.458936
 Sum of Mulliken charges =  -0.00000

 Dipole moment (field-independent basis, Debye):
    X=              1.3079    Y=              4.5210    Z=              1.8323  Tot=              5.0505
 Quadrupole moment (field-independent basis, Debye-Ang):
   XX=            -83.5246   YY=            -97.9048   ZZ=            -96.1028
   XY=              8.8536   XZ=              5.1646   YZ=             -1.5566

 Normal termination of Gaussian 16 at Wed May  5 18:42:04 2021.
