 Gaussian 16, Revision A.03,
 Gaussian 16:  EM64L-G16RevA.03 25-Dec-2016

 -------------
 #p 6-31g* mp2
 -------------

 ------------------------------------------------------
 Input file generated by CHIRIPA (05-May-2021 14:55:23)
 ------------------------------------------------------
 Symbolic Z-matrix:
 Charge =  0 Multiplicity = 1

                         Standard orientation:
 ---------------------------------------------------------------------
 Center     Atomic      Atomic             Coordinates (Angstroms)
 Number     Number       Type             X           Y           Z
 ---------------------------------------------------------------------
      1          6           0        5.956490    0.973274    0.430357
      2          6           0        4.953525    1.869684    0.046911
      3          6           0        3.666577    1.410893   -0.249436
      4          6           0        3.416357    0.043011   -0.151557
      5          6           0        4.394435   -0.875036    0.227709
      6          6           0        5.674242   -0.393815    0.519375
      7          1           0        6.953449    1.338386    0.658748
      8          1           0        5.169857    2.931921   -0.023071
      9          1           0        2.871407    2.082865   -0.548730
     10          1           0        4.148581   -1.928258    0.288518
     11          1           0        6.451197   -1.092285    0.816908
     12          7           0        2.057703   -0.454563   -0.462809
     13          8           0        1.862759   -1.664455   -0.369018
     14          8           0        1.213460    0.374751   -0.794665
     15          6           0       -5.376338   -0.064607   -0.117747
     16          6           0       -6.034197    1.210509    0.410728
     17          6           0       -7.467876    1.387390   -0.090342
     18          1           0       -5.382540   -0.044653   -1.216159
     19          1           0       -5.980331   -0.932030    0.182531
     20          1           0       -5.428400    2.075161    0.110722
     21          1           0       -6.026255    1.187605    1.508011
     22          1           0       -8.091789    0.543500    0.221398
     23          1           0       -7.490537    1.436098   -1.183830
     24          1           0       -7.919071    2.305138    0.299558
     25          6           0       -3.942779   -0.255437    0.374411
     26          6           0       -3.284920   -1.530553   -0.154064
     27          6           0       -1.851242   -1.707434    0.347006
     28          1           0       -3.338787    0.611985    0.074133
     29          1           0       -3.936577   -0.275391    1.472823
     30          1           0       -3.292861   -1.507650   -1.251346
     31          1           0       -3.890716   -2.395205    0.145942
     32          1           0       -1.828579   -1.756143    1.440493
     33          1           0       -1.227327   -0.863544    0.035267
     34          1           0       -1.400046   -2.625182   -0.042894
 ---------------------------------------------------------------------

 SCF Done:  E(RHF) =  -669.536534130     A.U. after   15 cycles
 E2 =    -0.2091429967D+01 EUMP2 =    -0.67162796409712D+03

 The electronic state is 1-A.
 Alpha  occ. eigenvalues --  -20.61015 -20.61010 -15.86019 -11.31329 -11.27885
 Alpha  occ. eigenvalues --  -11.27880 -11.27619 -11.26887 -11.26877 -11.20882
 Alpha  occ. eigenvalues --  -11.20485 -11.20477 -11.20220 -11.20125 -11.18988
 Alpha  occ. eigenvalues --   -1.60050  -1.39608  -1.19490  -1.08898  -1.07371
 Alpha  occ. eigenvalues --   -1.04883  -1.02363  -0.95744  -0.94777  -0.86284
 Alpha  occ. eigenvalues --   -0.85789  -0.82577  -0.78479  -0.77633  -0.77129
 Alpha  occ. eigenvalues --   -0.72232  -0.71358  -0.70599  -0.65145  -0.64886
 Alpha  occ. eigenvalues --   -0.64012  -0.62230  -0.59764  -0.58249  -0.56385
 Alpha  occ. eigenvalues --   -0.55395  -0.54074  -0.53215  -0.52974  -0.51455
 Alpha  occ. eigenvalues --   -0.51228  -0.49236  -0.48979  -0.48477  -0.46747
 Alpha  occ. eigenvalues --   -0.45516  -0.45023  -0.44669  -0.44519  -0.42605
 Alpha  occ. eigenvalues --   -0.37467  -0.36482
 Alpha virt. eigenvalues --    0.04884   0.11173   0.16387   0.21311   0.23846
 Alpha virt. eigenvalues --    0.25575   0.27230   0.27672   0.28191   0.28491
 Alpha virt. eigenvalues --    0.29347   0.30879   0.32390   0.32602   0.32730

 Mulliken charges:
               1
     1  C   -0.170498
     2  C   -0.218573
     3  C   -0.170673
     4  C    0.159306
     5  C   -0.170733
     6  C   -0.218605
     7  H    0.226111
     8  H    0.223922
     9  H    0.275767
    10  H    0.276025
    11  H    0.223962
    12  N    0.488700
    13  O   -0.457264
    14  O   -0.460239
    15  C   -0.297282
    16  C   -0.298790
    17  C   -0.475070
    18  H    0.148754
    19  H    0.147226
    20  H    0.151266
    21  H    0.150269
    22  H    0.154080
    23  H    0.154472
    24  H    0.157730
    25  C   -0.297812
    26  C   -0.299567
    27  C   -0.482265
    28  H    0.151959
    29  H    0.145935
    30  H    0.150502
    31  H    0.144769
    32  H    0.143207
    33  H    0.180071
    34  H    0.163337
 Sum of Mulliken charges =  -0.00000

 Dipole moment (field-independent basis, Debye):
    X=              5.2569    Y=              1.7815    Z=              1.0155  Tot=              5.6427
 Quadrupole moment (field-independent basis, Debye-Ang):
   XX=            -64.5816   YY=            -90.2954   ZZ=            -95.3578
   XY=              5.0179   XZ=              3.1350   YZ=             -1.5274

 Normal termination of Gaussian 16 at Thu May  6 07:52:34 2021.
