 Gaussian 16, Revision A.03,
 Gaussian 16:  EM64L-G16RevA.03 25-Dec-2016

 -------------
 #p 6-31g* mp2
 -------------

 ------------------------------------------------------
 Input file generated by CHIRIPA (05-May-2021 14:57:24)
 ------------------------------------------------------
 Symbolic Z-matrix:
 Charge =  0 Multiplicity = 1

                         Standard orientation:
 ---------------------------------------------------------------------
 Center     Atomic      Atomic             Coordinates (Angstroms)
 Number     Number       Type             X           Y           Z
 ---------------------------------------------------------------------
      1          6           0       -4.257408    2.420983    0.242278
      2          6           0       -5.129645    1.570405   -0.444920
      3          6           0       -4.825029    0.214630   -0.598642
      4          6           0       -3.634295   -0.259058   -0.049949
      5          6           0       -2.744872    0.563204    0.640051
      6          6           0       -3.069899    1.915559    0.781619
      7          1           0       -4.501970    3.472853    0.356972
      8          1           0       -6.052583    1.960161   -0.864827
      9          1           0       -5.482292   -0.466086   -1.125945
     10          1           0       -1.832238    0.145558    1.047591
     11          1           0       -2.390622    2.573799    1.315799
     12          7           0       -3.301007   -1.692546   -0.206254
     13          8           0       -2.245726   -2.085283    0.286469
     14          8           0       -4.101369   -2.396235   -0.818530
     15          6           0        6.086977    0.590349   -0.518584
     16          6           0        5.755354   -0.692822   -0.071350
     17          6           0        4.430101   -1.018446    0.232332
     18          6           0        3.457420   -0.032066    0.076661
     19          6           0        3.756276    1.255287   -0.366843
     20          6           0        5.088139    1.558602   -0.664647
     21          1           0        7.119033    0.834637   -0.752207
     22          1           0        6.528985   -1.446785    0.043023
     23          1           0        4.145535   -2.003984    0.580407
     24          1           0        2.963171    1.985740   -0.470968
     25          1           0        5.342764    2.555952   -1.011781
     26          7           0        2.050934   -0.364981    0.395044
     27          8           0        1.212499    0.521865    0.249550
     28          8           0        1.813598   -1.506462    0.784057
 ---------------------------------------------------------------------

 SCF Done:  E(RHF) =  -868.338327533     A.U. after   16 cycles
 E2 =    -0.2599288654D+01 EUMP2 =    -0.87093761618683D+03

 The electronic state is 1-A.
 Alpha  occ. eigenvalues --  -20.60893 -20.60828 -20.59515 -20.59433 -15.85888
 Alpha  occ. eigenvalues --  -15.84525 -11.31241 -11.29941 -11.27833 -11.27776
 Alpha  occ. eigenvalues --  -11.27548 -11.26834 -11.26797 -11.26652 -11.26423
 Alpha  occ. eigenvalues --  -11.26361 -11.25693 -11.25544  -1.59909  -1.58562
 Alpha  occ. eigenvalues --   -1.39467  -1.38103  -1.19409  -1.18164  -1.08807
 Alpha  occ. eigenvalues --   -1.07575  -1.04811  -1.03561  -0.95645  -0.94378
 Alpha  occ. eigenvalues --   -0.86210  -0.84969  -0.82481  -0.81195  -0.77528
 Alpha  occ. eigenvalues --   -0.76203  -0.72109  -0.71223  -0.70740  -0.70519
 Alpha  occ. eigenvalues --   -0.69894  -0.69285  -0.65065  -0.64815  -0.63817
 Alpha  occ. eigenvalues --   -0.63584  -0.62159  -0.60873  -0.55314  -0.54134
 Alpha  occ. eigenvalues --   -0.53140  -0.52904  -0.51923  -0.51657  -0.48882
 Alpha  occ. eigenvalues --   -0.48820  -0.47539  -0.47475  -0.44875  -0.43497
 Alpha  occ. eigenvalues --   -0.37389  -0.36413  -0.36212  -0.35166
 Alpha virt. eigenvalues --    0.05010   0.06305   0.11242   0.12473   0.16505
 Alpha virt. eigenvalues --    0.17744   0.21368   0.22543   0.27281   0.28216
 Alpha virt. eigenvalues --    0.28488   0.29529   0.30933   0.32037   0.32496

 Mulliken charges:
               1
     1  C   -0.171770
     2  C   -0.220137
     3  C   -0.172021
     4  C    0.154838
     5  C   -0.169859
     6  C   -0.221274
     7  H    0.220336
     8  H    0.218324
     9  H    0.271907
    10  H    0.295657
    11  H    0.222501
    12  N    0.486537
    13  O   -0.449576
    14  O   -0.468614
    15  C   -0.170684
    16  C   -0.218549
    17  C   -0.170349
    18  C    0.158520
    19  C   -0.171053
    20  C   -0.218482
    21  H    0.225768
    22  H    0.224374
    23  H    0.278051
    24  H    0.273052
    25  H    0.222762
    26  N    0.489183
    27  O   -0.470958
    28  O   -0.448487
 Sum of Mulliken charges =  -0.00000

 Dipole moment (field-independent basis, Debye):
    X=              4.2869    Y=              5.9855    Z=             -0.4405  Tot=              7.3755
 Quadrupole moment (field-independent basis, Debye-Ang):
   XX=            -60.6401   YY=           -104.1128   ZZ=           -104.9925
   XY=            -15.0820   XZ=             -2.9631   YZ=             -1.3722

 Normal termination of Gaussian 16 at Thu May  6 08:13:07 2021.
