 Gaussian 16, Revision A.03,
 Gaussian 16:  EM64L-G16RevA.03 25-Dec-2016

 -------------
 #p 6-31g* mp2
 -------------

 ------------------------------------------------------
 Input file generated by CHIRIPA (05-May-2021 14:57:27)
 ------------------------------------------------------
 Symbolic Z-matrix:
 Charge =  0 Multiplicity = 1

                         Standard orientation:
 ---------------------------------------------------------------------
 Center     Atomic      Atomic             Coordinates (Angstroms)
 Number     Number       Type             X           Y           Z
 ---------------------------------------------------------------------
      1          6           0        5.429830   -0.245976    1.061611
      2          6           0        5.095267   -1.127357    0.028287
      3          6           0        3.859434   -1.027662   -0.617722
      4          6           0        2.978199   -0.030299   -0.203015
      5          6           0        3.282465    0.862771    0.823210
      6          6           0        4.523959    0.744528    1.455081
      7          1           0        6.392053   -0.330626    1.557955
      8          1           0        5.796808   -1.897566   -0.279384
      9          1           0        3.574778   -1.696823   -1.420599
     10          1           0        2.562369    1.620323    1.107806
     11          1           0        4.781096    1.430400    2.257268
     12          7           0        1.666882    0.085061   -0.879432
     13          8           0        0.908044    0.972377   -0.495411
     14          8           0        1.422740   -0.714020   -1.780820
     15          6           0       -3.933347   -2.278721    0.724008
     16          6           0       -4.143791   -1.213657    1.605980
     17          6           0       -3.738424    0.080425    1.266013
     18          6           0       -3.122873    0.274378    0.030387
     19          6           0       -2.899233   -0.766236   -0.869833
     20          6           0       -3.312834   -2.052011   -0.508910
     21          1           0       -4.251444   -3.280767    0.996243
     22          1           0       -4.625442   -1.386769    2.564149
     23          1           0       -3.889015    0.923082    1.929843
     24          1           0       -2.416485   -0.562556   -1.817930
     25          1           0       -3.148108   -2.877254   -1.195848
     26          7           0       -2.689371    1.639967   -0.340613
     27          8           0       -2.149278    1.784573   -1.435156
     28          8           0       -2.897894    2.539853    0.470166
 ---------------------------------------------------------------------

 SCF Done:  E(RHF) =  -868.337333341     A.U. after   16 cycles
 E2 =    -0.2600256687D+01 EUMP2 =    -0.87093759002755D+03

 The electronic state is 1-A.
 Alpha  occ. eigenvalues --  -20.60555 -20.60497 -20.59392 -20.59235 -15.85575
 Alpha  occ. eigenvalues --  -15.84366 -11.31013 -11.29981 -11.27617 -11.27560
 Alpha  occ. eigenvalues --  -11.27361 -11.26673 -11.26644 -11.26608 -11.26501
 Alpha  occ. eigenvalues --  -11.26473 -11.25762 -11.25660  -1.59598  -1.58364
 Alpha  occ. eigenvalues --   -1.39150  -1.37914  -1.19197  -1.18202  -1.08580
 Alpha  occ. eigenvalues --   -1.07564  -1.04610  -1.03649  -0.95400  -0.94352
 Alpha  occ. eigenvalues --   -0.86005  -0.85037  -0.82230  -0.81189  -0.77264
 Alpha  occ. eigenvalues --   -0.76170  -0.71816  -0.70930  -0.70612  -0.70307
 Alpha  occ. eigenvalues --   -0.69627  -0.69337  -0.64847  -0.64614  -0.63863
 Alpha  occ. eigenvalues --   -0.63677  -0.61952  -0.60983  -0.55114  -0.54192
 Alpha  occ. eigenvalues --   -0.52939  -0.52702  -0.51970  -0.51753  -0.48579
 Alpha  occ. eigenvalues --   -0.48535  -0.47398  -0.47328  -0.44542  -0.43213
 Alpha  occ. eigenvalues --   -0.37189  -0.36227  -0.36215  -0.35262
 Alpha virt. eigenvalues --    0.05263   0.06400   0.11435   0.12388   0.16742
 Alpha virt. eigenvalues --    0.17805   0.21565   0.22409   0.27471   0.28304
 Alpha virt. eigenvalues --    0.28476   0.29366   0.31110   0.31904   0.32730

 Mulliken charges:
               1
     1  C   -0.171104
     2  C   -0.218703
     3  C   -0.171447
     4  C    0.158292
     5  C   -0.171218
     6  C   -0.218775
     7  H    0.224900
     8  H    0.222269
     9  H    0.273921
    10  H    0.279138
    11  H    0.223772
    12  N    0.487870
    13  O   -0.451637
    14  O   -0.466787
    15  C   -0.172541
    16  C   -0.219785
    17  C   -0.172789
    18  C    0.160644
    19  C   -0.165260
    20  C   -0.220296
    21  H    0.220522
    22  H    0.218133
    23  H    0.271830
    24  H    0.284610
    25  H    0.221317
    26  N    0.490800
    27  O   -0.446615
    28  O   -0.471061
 Sum of Mulliken charges =  -0.00000

 Dipole moment (field-independent basis, Debye):
    X=              3.3285    Y=             -5.0123    Z=              3.4578  Tot=              6.9396
 Quadrupole moment (field-independent basis, Debye-Ang):
   XX=            -69.8767   YY=           -105.2199   ZZ=           -100.9592
   XY=             11.5832   XZ=              0.4319   YZ=              4.5430

 Normal termination of Gaussian 16 at Fri May  7 08:11:11 2021.
