 Gaussian 16, Revision A.03,
 Gaussian 16:  EM64L-G16RevA.03 25-Dec-2016

 -------------
 #p 6-31g* mp2
 -------------

 ------------------------------------------------------
 Input file generated by CHIRIPA (05-May-2021 14:55:24)
 ------------------------------------------------------
 Symbolic Z-matrix:
 Charge =  0 Multiplicity = 1

                         Standard orientation:
 ---------------------------------------------------------------------
 Center     Atomic      Atomic             Coordinates (Angstroms)
 Number     Number       Type             X           Y           Z
 ---------------------------------------------------------------------
      1          6           0       -0.972744   -0.367648    1.568714
      2          6           0       -2.220515   -0.783088    2.045160
      3          6           0       -3.365990   -0.637051    1.257056
      4          6           0       -3.226645   -0.068974   -0.008314
      5          6           0       -1.997412    0.354677   -0.511103
      6          6           0       -0.865365    0.198909    0.294350
      7          1           0       -0.088127   -0.484873    2.187670
      8          1           0       -2.306900   -1.223417    3.034449
      9          1           0       -4.344282   -0.950077    1.601116
     10          1           0       -1.942836    0.790109   -1.501475
     11          1           0        0.102380    0.522446   -0.078263
     12          7           0       -4.432200    0.090780   -0.851827
     13          8           0       -4.282811    0.594219   -1.963073
     14          8           0       -5.503677   -0.290470   -0.385754
     15          6           0        4.323881   -0.445349   -0.413818
     16          6           0        3.703176   -1.830889   -0.232191
     17          6           0        4.611583   -2.955488   -0.730054
     18          1           0        4.553321   -0.289840   -1.476889
     19          1           0        5.282662   -0.407699    0.121640
     20          1           0        2.745190   -1.865467   -0.766684
     21          1           0        3.475011   -1.983042    0.830544
     22          1           0        5.563574   -2.949604   -0.189424
     23          1           0        4.829606   -2.831362   -1.795727
     24          1           0        4.148326   -3.937231   -0.590645
     25          6           0        3.427683    0.689325    0.079207
     26          6           0        4.048388    2.074866   -0.102420
     27          6           0        3.139981    3.199464    0.395443
     28          1           0        2.468902    0.651675   -0.456250
     29          1           0        3.198243    0.533817    1.142278
     30          1           0        4.276553    2.227018   -1.165156
     31          1           0        5.006374    2.109444    0.432073
     32          1           0        2.921958    3.075338    1.461115
     33          1           0        2.187990    3.193581   -0.145187
     34          1           0        3.603238    4.181207    0.256034
 ---------------------------------------------------------------------

 SCF Done:  E(RHF) =  -669.535635241     A.U. after   15 cycles
 E2 =    -0.2091388431D+01 EUMP2 =    -0.67162702367191D+03

 The electronic state is 1-A.
 Alpha  occ. eigenvalues --  -20.60714 -20.60709 -15.85766 -11.31116 -11.27686
 Alpha  occ. eigenvalues --  -11.27675 -11.27410 -11.26698 -11.26645 -11.22570
 Alpha  occ. eigenvalues --  -11.22470 -11.22434 -11.22247 -11.21915 -11.21708
 Alpha  occ. eigenvalues --   -1.59790  -1.39344  -1.19284  -1.09370  -1.08678
 Alpha  occ. eigenvalues --   -1.04686  -1.04363  -0.96818  -0.95518  -0.87828
 Alpha  occ. eigenvalues --   -0.86084  -0.82354  -0.80436  -0.79229  -0.77401
 Alpha  occ. eigenvalues --   -0.71985  -0.71112  -0.70388  -0.66021  -0.64934
 Alpha  occ. eigenvalues --   -0.64682  -0.62054  -0.61739  -0.60183  -0.58433
 Alpha  occ. eigenvalues --   -0.56113  -0.55178  -0.53466  -0.53265  -0.53015
 Alpha  occ. eigenvalues --   -0.52773  -0.50753  -0.48781  -0.48741  -0.48709
 Alpha  occ. eigenvalues --   -0.47470  -0.46717  -0.46658  -0.44753  -0.44653
 Alpha  occ. eigenvalues --   -0.37260  -0.36290
 Alpha virt. eigenvalues --    0.05130   0.11341   0.16623   0.19354   0.22656
 Alpha virt. eigenvalues --    0.23402   0.24377   0.25580   0.27141   0.28397
 Alpha virt. eigenvalues --    0.29751   0.30180   0.31033   0.31229   0.31542

 Mulliken charges:
               1
     1  C   -0.173609
     2  C   -0.218577
     3  C   -0.171319
     4  C    0.158961
     5  C   -0.173335
     6  C   -0.225502
     7  H    0.226309
     8  H    0.223022
     9  H    0.275278
    10  H    0.275473
    11  H    0.234538
    12  N    0.488043
    13  O   -0.460681
    14  O   -0.460707
    15  C   -0.297820
    16  C   -0.300666
    17  C   -0.476147
    18  H    0.153103
    19  H    0.152894
    20  H    0.151376
    21  H    0.148924
    22  H    0.156633
    23  H    0.157531
    24  H    0.162420
    25  C   -0.304446
    26  C   -0.299763
    27  C   -0.476769
    28  H    0.145081
    29  H    0.146151
    30  H    0.155355
    31  H    0.155556
    32  H    0.154768
    33  H    0.152605
    34  H    0.165318
 Sum of Mulliken charges =  -0.00000

 Dipole moment (field-independent basis, Debye):
    X=              4.5200    Y=             -0.5530    Z=              2.9433  Tot=              5.4221
 Quadrupole moment (field-independent basis, Debye-Ang):
   XX=           -120.1989   YY=            -94.9959   ZZ=            -91.7344
   XY=              3.4125   XZ=            -11.6441   YZ=             -2.2375

 Normal termination of Gaussian 16 at Thu May  6 07:57:12 2021.
