 Gaussian 16, Revision A.03,
 Gaussian 16:  EM64L-G16RevA.03 25-Dec-2016

 -------------
 #p 6-31g* mp2
 -------------

 ------------------------------------------------------
 Input file generated by CHIRIPA (05-May-2021 14:55:25)
 ------------------------------------------------------
 Symbolic Z-matrix:
 Charge =  0 Multiplicity = 1

                         Standard orientation:
 ---------------------------------------------------------------------
 Center     Atomic      Atomic             Coordinates (Angstroms)
 Number     Number       Type             X           Y           Z
 ---------------------------------------------------------------------
      1          6           0       -5.171487   -0.578527   -0.711361
      2          6           0       -4.202281   -1.568618   -0.903401
      3          6           0       -2.903189   -1.394333   -0.417056
      4          6           0       -2.606533   -0.212336    0.259825
      5          6           0       -3.550177    0.792587    0.467083
      6          6           0       -4.842921    0.596844   -0.027937
      7          1           0       -6.178188   -0.722250   -1.092535
      8          1           0       -4.454610   -2.482439   -1.433785
      9          1           0       -2.133450   -2.144530   -0.551677
     10          1           0       -3.268721    1.692861    0.999725
     11          1           0       -5.593585    1.367470    0.122677
     12          7           0       -1.234602   -0.016469    0.779289
     13          8           0       -0.998511    1.033878    1.372305
     14          8           0       -0.421353   -0.917005    0.583592
     15          6           0        4.196573   -0.152250   -0.425655
     16          6           0        4.264014   -1.429622    0.412054
     17          6           0        5.411054   -2.350421   -0.005348
     18          1           0        4.085617   -0.421489   -1.484969
     19          1           0        5.150504    0.386049   -0.338225
     20          1           0        3.309742   -1.964653    0.324173
     21          1           0        4.374630   -1.157308    1.469516
     22          1           0        6.373318   -1.838862    0.099332
     23          1           0        5.302380   -2.650794   -1.052518
     24          1           0        5.440703   -3.257445    0.606442
     25          6           0        3.054996    0.778469   -0.020325
     26          6           0        2.987554    2.055842   -0.858034
     27          6           0        1.840514    2.976639   -0.440633
     28          1           0        2.101064    0.240170   -0.107756
     29          1           0        3.165951    1.047709    1.038987
     30          1           0        2.876939    1.783527   -1.915496
     31          1           0        3.941827    2.590872   -0.770154
     32          1           0        1.949189    3.277013    0.606538
     33          1           0        0.878251    2.465081   -0.545312
     34          1           0        1.810865    3.883664   -1.052423
 ---------------------------------------------------------------------

 SCF Done:  E(RHF) =  -669.536504207     A.U. after   15 cycles
 E2 =    -0.2092093614D+01 EUMP2 =    -0.67162859782087D+03

 The electronic state is 1-A.
 Alpha  occ. eigenvalues --  -20.61111 -20.61098 -15.86103 -11.31382 -11.27938
 Alpha  occ. eigenvalues --  -11.27930 -11.27664 -11.26930 -11.26920 -11.20373
 Alpha  occ. eigenvalues --  -11.20271 -11.20147 -11.20099 -11.19667 -11.19618
 Alpha  occ. eigenvalues --   -1.60145  -1.39703  -1.19543  -1.08956  -1.07049
 Alpha  occ. eigenvalues --   -1.04930  -1.02266  -0.95803  -0.94706  -0.86333
 Alpha  occ. eigenvalues --   -0.85724  -0.82640  -0.78326  -0.77700  -0.76797
 Alpha  occ. eigenvalues --   -0.72317  -0.71453  -0.70650  -0.65198  -0.64932
 Alpha  occ. eigenvalues --   -0.63690  -0.62276  -0.59682  -0.58092  -0.56306
 Alpha  occ. eigenvalues --   -0.55436  -0.54004  -0.53265  -0.53020  -0.51470
 Alpha  occ. eigenvalues --   -0.51118  -0.49151  -0.49088  -0.48634  -0.46631
 Alpha  occ. eigenvalues --   -0.45376  -0.45076  -0.44372  -0.44130  -0.42478
 Alpha  occ. eigenvalues --   -0.37516  -0.36528
 Alpha virt. eigenvalues --    0.04781   0.11128   0.16273   0.21260   0.24180
 Alpha virt. eigenvalues --    0.25483   0.27193   0.27883   0.28213   0.28959
 Alpha virt. eigenvalues --    0.29248   0.30865   0.32317   0.32616   0.32875

 Mulliken charges:
               1
     1  C   -0.170356
     2  C   -0.218567
     3  C   -0.170698
     4  C    0.158298
     5  C   -0.170620
     6  C   -0.218586
     7  H    0.226359
     8  H    0.224122
     9  H    0.275755
    10  H    0.276388
    11  H    0.224242
    12  N    0.487539
    13  O   -0.456289
    14  O   -0.459181
    15  C   -0.297153
    16  C   -0.299651
    17  C   -0.474901
    18  H    0.144276
    19  H    0.143795
    20  H    0.159346
    21  H    0.151377
    22  H    0.152307
    23  H    0.151986
    24  H    0.157074
    25  C   -0.306933
    26  C   -0.299569
    27  C   -0.472735
    28  H    0.174498
    29  H    0.149566
    30  H    0.145118
    31  H    0.145720
    32  H    0.157591
    33  H    0.159918
    34  H    0.149962
 Sum of Mulliken charges =  -0.00000

 Dipole moment (field-independent basis, Debye):
    X=             -5.3046    Y=             -0.7864    Z=             -1.6596  Tot=              5.6135
 Quadrupole moment (field-independent basis, Debye-Ang):
   XX=            -71.4953   YY=            -91.6923   ZZ=            -95.5718
   XY=              2.2597   XZ=              4.1479   YZ=              2.6579

 Normal termination of Gaussian 16 at Thu May  6 19:23:12 2021.
