 Gaussian 16, Revision A.03,
 Gaussian 16:  EM64L-G16RevA.03 25-Dec-2016

 -------------
 #p 6-31g* mp2
 -------------

 ------------------------------------------------------
 Input file generated by CHIRIPA (05-May-2021 14:55:25)
 ------------------------------------------------------
 Symbolic Z-matrix:
 Charge =  0 Multiplicity = 1

                         Standard orientation:
 ---------------------------------------------------------------------
 Center     Atomic      Atomic             Coordinates (Angstroms)
 Number     Number       Type             X           Y           Z
 ---------------------------------------------------------------------
      1          6           0       -0.915167    2.113692    0.467383
      2          6           0       -1.733977    2.229885   -0.660699
      3          6           0       -2.774855    1.322441   -0.879025
      4          6           0       -2.969464    0.306381    0.055341
      5          6           0       -2.170705    0.164258    1.188953
      6          6           0       -1.135755    1.083066    1.386987
      7          1           0       -0.108890    2.823030    0.629102
      8          1           0       -1.564993    3.029285   -1.376554
      9          1           0       -3.423788    1.389136   -1.743812
     10          1           0       -2.363685   -0.643129    1.884872
     11          1           0       -0.501432    0.990391    2.263966
     12          7           0       -4.068257   -0.660305   -0.165050
     13          8           0       -4.219000   -1.546586    0.673055
     14          8           0       -4.757943   -0.513408   -1.171723
     15          6           0        2.814182   -0.568180   -0.004497
     16          6           0        2.109535   -1.895711   -0.285784
     17          6           0        0.599686   -1.823956   -0.055572
     18          1           0        2.613913   -0.266634    1.032762
     19          1           0        2.381204    0.211881   -0.645925
     20          1           0        2.544658   -2.673326    0.354995
     21          1           0        2.311663   -2.194227   -1.322436
     22          1           0        0.146399   -1.068380   -0.705370
     23          1           0        0.380717   -1.550201    0.981593
     24          1           0        0.115972   -2.783677   -0.262496
     25          6           0        4.324045   -0.624018   -0.230164
     26          6           0        5.028691    0.703512    0.051124
     27          6           0        6.538541    0.631758   -0.179088
     28          1           0        4.757022   -1.404079    0.411265
     29          1           0        4.524314   -0.925563   -1.267424
     30          1           0        4.826563    1.002029    1.087776
     31          1           0        4.593569    1.481128   -0.589656
     32          1           0        6.757510    0.358003   -1.216253
     33          1           0        6.991828   -0.123818    0.470709
     34          1           0        7.022254    1.591479    0.027835
 ---------------------------------------------------------------------

 SCF Done:  E(RHF) =  -669.534495350     A.U. after   15 cycles
 E2 =    -0.2093112541D+01 EUMP2 =    -0.67162760789122D+03

 The electronic state is 1-A.
 Alpha  occ. eigenvalues --  -20.60739 -20.60733 -15.85793 -11.31159 -11.27740
 Alpha  occ. eigenvalues --  -11.27702 -11.27470 -11.26766 -11.26715 -11.22095
 Alpha  occ. eigenvalues --  -11.21904 -11.21849 -11.21787 -11.21476 -11.21203
 Alpha  occ. eigenvalues --   -1.59814  -1.39367  -1.19341  -1.08848  -1.08728
 Alpha  occ. eigenvalues --   -1.04754  -1.03884  -0.96334  -0.95563  -0.87351
 Alpha  occ. eigenvalues --   -0.86140  -0.82402  -0.79966  -0.78681  -0.77445
 Alpha  occ. eigenvalues --   -0.72012  -0.71136  -0.70442  -0.65481  -0.64992
 Alpha  occ. eigenvalues --   -0.64751  -0.62107  -0.61278  -0.59703  -0.57982
 Alpha  occ. eigenvalues --   -0.55623  -0.55239  -0.53475  -0.52999  -0.52834
 Alpha  occ. eigenvalues --   -0.52400  -0.50280  -0.48771  -0.48765  -0.48232
 Alpha  occ. eigenvalues --   -0.47004  -0.46208  -0.46137  -0.44771  -0.44157
 Alpha  occ. eigenvalues --   -0.37317  -0.36243
 Alpha virt. eigenvalues --    0.05080   0.11238   0.16477   0.20771   0.22626
 Alpha virt. eigenvalues --    0.23978   0.25672   0.26696   0.27082   0.28202
 Alpha virt. eigenvalues --    0.28581   0.30529   0.31367   0.31628   0.32031

 Mulliken charges:
               1
     1  C   -0.171592
     2  C   -0.219384
     3  C   -0.172308
     4  C    0.158384
     5  C   -0.166808
     6  C   -0.214527
     7  H    0.225958
     8  H    0.223254
     9  H    0.275486
    10  H    0.275375
    11  H    0.222717
    12  N    0.488159
    13  O   -0.460340
    14  O   -0.460739
    15  C   -0.296739
    16  C   -0.300968
    17  C   -0.474596
    18  H    0.142977
    19  H    0.147395
    20  H    0.152437
    21  H    0.153571
    22  H    0.159426
    23  H    0.146892
    24  H    0.164508
    25  C   -0.298275
    26  C   -0.299374
    27  C   -0.475781
    28  H    0.150968
    29  H    0.151482
    30  H    0.149659
    31  H    0.149642
    32  H    0.156434
    33  H    0.156406
    34  H    0.160297
 Sum of Mulliken charges =  -0.00000

 Dipole moment (field-independent basis, Debye):
    X=              3.8775    Y=              3.3587    Z=              0.7397  Tot=              5.1830
 Quadrupole moment (field-independent basis, Debye-Ang):
   XX=           -119.3566   YY=            -91.9993   ZZ=            -90.4273
   XY=             -9.8548   XZ=             -0.7679   YZ=             -2.0941

 Normal termination of Gaussian 16 at Thu May  6 12:45:15 2021.
