 Gaussian 16, Revision A.03,
 Gaussian 16:  EM64L-G16RevA.03 25-Dec-2016

 -------------
 #p 6-31g* mp2
 -------------

 ------------------------------------------------------
 Input file generated by CHIRIPA (05-May-2021 14:51:07)
 ------------------------------------------------------
 Symbolic Z-matrix:
 Charge =  0 Multiplicity = 1

                         Standard orientation:
 ---------------------------------------------------------------------
 Center     Atomic      Atomic             Coordinates (Angstroms)
 Number     Number       Type             X           Y           Z
 ---------------------------------------------------------------------
      1          6           0        2.560985   -0.507596   -0.032887
      2          6           0        1.876437   -1.486129    0.922023
      3          6           0        0.384789   -1.651556    0.629765
      4          1           0        2.062354    0.469083    0.033524
      5          1           0        2.425376   -0.858212   -1.065396
      6          1           0        2.014482   -1.134506    1.952518
      7          1           0        2.376877   -2.460540    0.853472
      8          1           0        0.230690   -2.024911   -0.387811
      9          1           0       -0.133765   -0.691343    0.717481
     10          1           0       -0.084713   -2.355349    1.324101
     11          6           0        4.052509   -0.331626    0.246610
     12          6           0        4.737056    0.646907   -0.708300
     13          6           0        6.228704    0.812333   -0.416042
     14          1           0        4.188117    0.018990    1.279119
     15          1           0        4.551139   -1.308306    0.180199
     16          1           0        4.236616    1.621317   -0.639749
     17          1           0        4.599012    0.295284   -1.738796
     18          1           0        6.747258   -0.147879   -0.503758
     19          1           0        6.382803    1.185689    0.601534
     20          1           0        6.698207    1.516127   -1.110378
     21          6           0       -2.823788    0.980620    0.081426
     22          6           0       -3.444312    2.374413   -0.019929
     23          6           0       -2.465803    3.486189    0.359902
     24          1           0       -2.464223    0.819985    1.107026
     25          1           0       -1.940722    0.931716   -0.570646
     26          1           0       -4.326750    2.420236    0.631085
     27          1           0       -3.802613    2.531675   -1.045358
     28          1           0       -1.589712    3.469148   -0.296432
     29          1           0       -2.116826    3.357075    1.389536
     30          1           0       -2.930094    4.474103    0.280413
     31          6           0       -3.789705   -0.141397   -0.295149
     32          6           0       -3.169182   -1.535192   -0.193794
     33          6           0       -4.147689   -2.646966   -0.573625
     34          1           0       -4.672772   -0.092494    0.356923
     35          1           0       -4.149271    0.019237   -1.320749
     36          1           0       -2.810880   -1.692453    0.831635
     37          1           0       -2.286744   -1.581014   -0.844808
     38          1           0       -4.496667   -2.517854   -1.603260
     39          1           0       -5.023781   -2.629925    0.082710
     40          1           0       -3.683400   -3.634881   -0.494135
 ---------------------------------------------------------------------

 SCF Done:  E(RHF) =  -470.732391508     A.U. after   11 cycles
 E2 =    -0.1583708089D+01 EUMP2 =    -0.47231609959695D+03

 The electronic state is 1-A.
 Alpha  occ. eigenvalues --  -11.21601 -11.21587 -11.21520 -11.21432 -11.21380
 Alpha  occ. eigenvalues --  -11.21378 -11.21319 -11.21301 -11.21089 -11.21060
 Alpha  occ. eigenvalues --  -11.20983 -11.20938  -1.08420  -1.08369  -1.03524
 Alpha  occ. eigenvalues --   -1.03445  -0.95945  -0.95940  -0.87017  -0.86910
 Alpha  occ. eigenvalues --   -0.79721  -0.79428  -0.78313  -0.78060  -0.65047
 Alpha  occ. eigenvalues --   -0.65007  -0.60941  -0.60833  -0.59387  -0.59241
 Alpha  occ. eigenvalues --   -0.57610  -0.57503  -0.55257  -0.55202  -0.52754
 Alpha  occ. eigenvalues --   -0.52601  -0.52374  -0.52314  -0.49945  -0.49833
 Alpha  occ. eigenvalues --   -0.48033  -0.47768  -0.46693  -0.46488  -0.45964
 Alpha  occ. eigenvalues --   -0.45729  -0.45598  -0.45351  -0.43769  -0.43681
 Alpha virt. eigenvalues --    0.21971   0.23110   0.23933   0.24329   0.25854
 Alpha virt. eigenvalues --    0.26181   0.26765   0.27589   0.27856   0.29695
 Alpha virt. eigenvalues --    0.30149   0.30560   0.31727   0.32062   0.32269

 Mulliken charges:
               1
     1  C   -0.298347
     2  C   -0.301286
     3  C   -0.478202
     4  H    0.149521
     5  H    0.148908
     6  H    0.151281
     7  H    0.151258
     8  H    0.154187
     9  H    0.162497
    10  H    0.159592
    11  C   -0.298118
    12  C   -0.299617
    13  C   -0.475677
    14  H    0.149525
    15  H    0.149601
    16  H    0.151909
    17  H    0.151738
    18  H    0.155141
    19  H    0.155198
    20  H    0.160175
    21  C   -0.300958
    22  C   -0.299197
    23  C   -0.475822
    24  H    0.149928
    25  H    0.150927
    26  H    0.151987
    27  H    0.152052
    28  H    0.154947
    29  H    0.154818
    30  H    0.160418
    31  C   -0.297897
    32  C   -0.302737
    33  C   -0.475619
    34  H    0.148896
    35  H    0.149049
    36  H    0.154181
    37  H    0.157032
    38  H    0.154409
    39  H    0.154437
    40  H    0.159866
 Sum of Mulliken charges =  -0.00000

 Dipole moment (field-independent basis, Debye):
    X=             -0.0149    Y=              0.0037    Z=              0.0009  Tot=              0.0154
 Quadrupole moment (field-independent basis, Debye-Ang):
   XX=            -86.4464   YY=            -85.1584   ZZ=            -83.4902
   XY=             -0.9384   XZ=             -0.7083   YZ=              0.1915

 Normal termination of Gaussian 16 at Wed May  5 15:00:51 2021.
