 Gaussian 16, Revision A.03,
 Gaussian 16:  EM64L-G16RevA.03 25-Dec-2016

 -------------
 #p 6-31g* mp2
 -------------

 ------------------------------------------------------
 Input file generated by CHIRIPA (05-May-2021 14:51:14)
 ------------------------------------------------------
 Symbolic Z-matrix:
 Charge =  0 Multiplicity = 1

                         Standard orientation:
 ---------------------------------------------------------------------
 Center     Atomic      Atomic             Coordinates (Angstroms)
 Number     Number       Type             X           Y           Z
 ---------------------------------------------------------------------
      1          6           0        2.398590    0.995289    0.276919
      2          6           0        2.520215    2.514859    0.158182
      3          6           0        1.475472    3.258388    0.990930
      4          1           0        1.391430    0.688785   -0.037134
      5          1           0        2.497743    0.707894    1.332840
      6          1           0        2.422245    2.799177   -0.897365
      7          1           0        3.527266    2.817761    0.472373
      8          1           0        1.575318    3.003618    2.050989
      9          1           0        0.464018    2.984929    0.673468
     10          1           0        1.580637    4.343232    0.891370
     11          6           0        3.436217    0.238040   -0.549902
     12          6           0        3.314592   -1.281530   -0.431165
     13          6           0        4.359335   -2.025059   -1.263913
     14          1           0        3.337064    0.525434   -1.605822
     15          1           0        4.443377    0.544543   -0.235848
     16          1           0        2.307541   -1.584432   -0.745355
     17          1           0        3.412563   -1.565848    0.624383
     18          1           0        5.370789   -1.751600   -0.946451
     19          1           0        4.259489   -1.770290   -2.323971
     20          1           0        4.254170   -3.109904   -1.164353
     21          6           0       -3.181119   -0.158906   -0.415183
     22          6           0       -4.665496    0.176619   -0.266754
     23          6           0       -5.178362    1.093207   -1.377893
     24          1           0       -2.599817    0.773296   -0.421021
     25          1           0       -3.016058   -0.636311   -1.391008
     26          1           0       -4.827933    0.651996    0.709077
     27          1           0       -5.243314   -0.756500   -0.261076
     28          1           0       -5.045217    0.622812   -2.357486
     29          1           0       -4.627476    2.039310   -1.381820
     30          1           0       -6.241626    1.320250   -1.252273
     31          6           0       -2.653689   -1.074422    0.688165
     32          6           0       -1.169311   -1.409947    0.539737
     33          6           0       -0.656445   -2.326535    1.650876
     34          1           0       -2.818749   -0.597018    1.663990
     35          1           0       -3.234989   -2.006624    0.694003
     36          1           0       -0.591493   -0.476829    0.534058
     37          1           0       -1.006875   -1.885325   -0.436095
     38          1           0       -1.207331   -3.272638    1.654803
     39          1           0       -0.789590   -1.856140    2.630468
     40          1           0        0.406819   -2.553579    1.525255
 ---------------------------------------------------------------------

 SCF Done:  E(RHF) =  -470.733323031     A.U. after   11 cycles
 E2 =    -0.1583454503D+01 EUMP2 =    -0.47231677753341D+03

 The electronic state is 1-A.
 Alpha  occ. eigenvalues --  -11.21623 -11.21613 -11.21610 -11.21565 -11.21413
 Alpha  occ. eigenvalues --  -11.21409 -11.21347 -11.21347 -11.21119 -11.21081
 Alpha  occ. eigenvalues --  -11.21080 -11.21020  -1.08463  -1.08414  -1.03551
 Alpha  occ. eigenvalues --   -1.03519  -0.96002  -0.95964  -0.87024  -0.86977
 Alpha  occ. eigenvalues --   -0.79639  -0.79573  -0.78373  -0.78137  -0.65147
 Alpha  occ. eigenvalues --   -0.64998  -0.60987  -0.60884  -0.59401  -0.59307
 Alpha  occ. eigenvalues --   -0.57628  -0.57564  -0.55313  -0.55232  -0.52713
 Alpha  occ. eigenvalues --   -0.52642  -0.52460  -0.52362  -0.49990  -0.49875
 Alpha  occ. eigenvalues --   -0.48043  -0.47837  -0.46800  -0.46568  -0.46083
 Alpha  occ. eigenvalues --   -0.45767  -0.45719  -0.45248  -0.43801  -0.43770
 Alpha virt. eigenvalues --    0.20966   0.22878   0.23594   0.24084   0.25565
 Alpha virt. eigenvalues --    0.26542   0.26712   0.27605   0.28302   0.29559
 Alpha virt. eigenvalues --    0.30406   0.30963   0.31704   0.31736   0.32165

 Mulliken charges:
               1
     1  C   -0.306328
     2  C   -0.299019
     3  C   -0.475831
     4  H    0.157945
     5  H    0.149328
     6  H    0.151959
     7  H    0.152087
     8  H    0.155281
     9  H    0.154043
    10  H    0.160609
    11  C   -0.297644
    12  C   -0.302780
    13  C   -0.475718
    14  H    0.149485
    15  H    0.149671
    16  H    0.155096
    17  H    0.152012
    18  H    0.155259
    19  H    0.155250
    20  H    0.160274
    21  C   -0.298169
    22  C   -0.299632
    23  C   -0.475734
    24  H    0.148592
    25  H    0.149341
    26  H    0.152129
    27  H    0.152068
    28  H    0.155099
    29  H    0.155151
    30  H    0.160351
    31  C   -0.297683
    32  C   -0.307043
    33  C   -0.477365
    34  H    0.149706
    35  H    0.149625
    36  H    0.159363
    37  H    0.150724
    38  H    0.154740
    39  H    0.154900
    40  H    0.162859
 Sum of Mulliken charges =  -0.00000

 Dipole moment (field-independent basis, Debye):
    X=              0.0194    Y=              0.0039    Z=             -0.0010  Tot=              0.0198
 Quadrupole moment (field-independent basis, Debye-Ang):
   XX=            -85.0628   YY=            -85.0423   ZZ=            -84.6653
   XY=              1.0132   XZ=              0.6418   YZ=              0.5969

 Normal termination of Gaussian 16 at Thu May  6 05:38:00 2021.
