 Gaussian 16, Revision A.03,
 Gaussian 16:  EM64L-G16RevA.03 25-Dec-2016

 -------------
 #p 6-31g* mp2
 -------------

 ------------------------------------------------------
 Input file generated by CHIRIPA (05-May-2021 14:55:21)
 ------------------------------------------------------
 Symbolic Z-matrix:
 Charge =  0 Multiplicity = 1

                         Standard orientation:
 ---------------------------------------------------------------------
 Center     Atomic      Atomic             Coordinates (Angstroms)
 Number     Number       Type             X           Y           Z
 ---------------------------------------------------------------------
      1          6           0        4.771591    1.811478    0.039144
      2          6           0        5.077332    0.540731    0.537389
      3          6           0        4.131118   -0.487330    0.489264
      4          6           0        2.883427   -0.208419   -0.066404
      5          6           0        2.548770    1.047226   -0.571033
      6          6           0        3.510510    2.060230   -0.512504
      7          1           0        5.512664    2.604252    0.080569
      8          1           0        6.055894    0.344673    0.966365
      9          1           0        4.341304   -1.480304    0.867739
     10          1           0        1.564756    1.212384   -0.992765
     11          1           0        3.270289    3.046144   -0.900207
     12          7           0        1.873494   -1.288812   -0.122858
     13          8           0        0.781482   -1.017525   -0.617377
     14          8           0        2.193045   -2.386454    0.328480
     15          6           0       -3.733077    0.766580    0.230224
     16          6           0       -4.898627    1.727596   -0.006265
     17          6           0       -4.541521    3.179716    0.312511
     18          1           0       -3.408446    0.844554    1.276875
     19          1           0       -2.878668    1.078815   -0.386128
     20          1           0       -5.751040    1.412829    0.609307
     21          1           0       -5.220645    1.647185   -1.052427
     22          1           0       -3.707180    3.517026   -0.310946
     23          1           0       -4.240589    3.281338    1.360230
     24          1           0       -5.389024    3.849496    0.136464
     25          6           0       -4.074605   -0.688865   -0.084050
     26          6           0       -2.909056   -1.649881    0.152438
     27          6           0       -3.266161   -3.102001   -0.166337
     28          1           0       -4.929015   -1.001100    0.532302
     29          1           0       -4.399235   -0.766839   -1.130702
     30          1           0       -2.587036   -1.569471    1.198600
     31          1           0       -2.056642   -1.335113   -0.463133
     32          1           0       -3.567094   -3.203624   -1.214056
     33          1           0       -4.100502   -3.439312    0.457120
     34          1           0       -2.418659   -3.771781    0.009710
 ---------------------------------------------------------------------

 SCF Done:  E(RHF) =  -669.536032874     A.U. after   15 cycles
 E2 =    -0.2090928077D+01 EUMP2 =    -0.67162696095097D+03

 The electronic state is 1-A.
 Alpha  occ. eigenvalues --  -20.60934 -20.60925 -15.85972 -11.31291 -11.27855
 Alpha  occ. eigenvalues --  -11.27851 -11.27591 -11.26862 -11.26852 -11.21085
 Alpha  occ. eigenvalues --  -11.20743 -11.20652 -11.20387 -11.20076 -11.19760
 Alpha  occ. eigenvalues --   -1.59994  -1.39551  -1.19459  -1.08863  -1.07551
 Alpha  occ. eigenvalues --   -1.04856  -1.02604  -0.95706  -0.95113  -0.86256
 Alpha  occ. eigenvalues --   -0.86141  -0.82543  -0.78717  -0.77600  -0.77263
 Alpha  occ. eigenvalues --   -0.72196  -0.71308  -0.70569  -0.65117  -0.64859
 Alpha  occ. eigenvalues --   -0.64192  -0.62204  -0.60005  -0.58519  -0.56668
 Alpha  occ. eigenvalues --   -0.55360  -0.54432  -0.53187  -0.52948  -0.51807
 Alpha  occ. eigenvalues --   -0.51532  -0.49123  -0.48952  -0.48943  -0.47010
 Alpha  occ. eigenvalues --   -0.45762  -0.45044  -0.44811  -0.44591  -0.42869
 Alpha  occ. eigenvalues --   -0.37438  -0.36457
 Alpha virt. eigenvalues --    0.04936   0.11198   0.16430   0.21303   0.23629
 Alpha virt. eigenvalues --    0.25241   0.27140   0.27432   0.27982   0.28636
 Alpha virt. eigenvalues --    0.28886   0.30929   0.32202   0.32358   0.32669

 Mulliken charges:
               1
     1  C   -0.170614
     2  C   -0.218589
     3  C   -0.170533
     4  C    0.157627
     5  C   -0.170521
     6  C   -0.218504
     7  H    0.225998
     8  H    0.223797
     9  H    0.275853
    10  H    0.275337
    11  H    0.223857
    12  N    0.492894
    13  O   -0.464164
    14  O   -0.459273
    15  C   -0.296670
    16  C   -0.298838
    17  C   -0.474711
    18  H    0.147941
    19  H    0.148956
    20  H    0.151130
    21  H    0.150902
    22  H    0.152053
    23  H    0.154036
    24  H    0.158403
    25  C   -0.298002
    26  C   -0.306764
    27  C   -0.475760
    28  H    0.145159
    29  H    0.146670
    30  H    0.148184
    31  H    0.178095
    32  H    0.150955
    33  H    0.147999
    34  H    0.167095
 Sum of Mulliken charges =  -0.00000

 Dipole moment (field-independent basis, Debye):
    X=              3.8870    Y=              3.7369    Z=              0.1627  Tot=              5.3944
 Quadrupole moment (field-independent basis, Debye-Ang):
   XX=            -73.6479   YY=            -96.2662   ZZ=            -93.7673
   XY=              8.0784   XZ=              1.8285   YZ=             -2.2226

 Normal termination of Gaussian 16 at Wed May  5 22:13:23 2021.
