 Gaussian 16, Revision A.03,
 Gaussian 16:  EM64L-G16RevA.03 25-Dec-2016

 -------------
 #p 6-31g* mp2
 -------------

 ------------------------------------------------------
 Input file generated by CHIRIPA (05-May-2021 14:57:21)
 ------------------------------------------------------
 Symbolic Z-matrix:
 Charge =  0 Multiplicity = 1

                         Standard orientation:
 ---------------------------------------------------------------------
 Center     Atomic      Atomic             Coordinates (Angstroms)
 Number     Number       Type             X           Y           Z
 ---------------------------------------------------------------------
      1          6           0        1.969240   -2.375980    0.494066
      2          6           0        1.665297   -1.404334    1.453255
      3          6           0        2.117604   -0.090280    1.300848
      4          6           0        2.874926    0.218687    0.172002
      5          6           0        3.194298   -0.727014   -0.801108
      6          6           0        2.731426   -2.034821   -0.628075
      7          1           0        1.613773   -3.394342    0.620471
      8          1           0        1.073563   -1.666421    2.325727
      9          1           0        1.896901    0.681678    2.028026
     10          1           0        3.786178   -0.435600   -1.660278
     11          1           0        2.969003   -2.787344   -1.374608
     12          7           0        3.359356    1.606510   -0.000262
     13          8           0        4.024860    1.853253   -1.003686
     14          8           0        3.064375    2.421264    0.871402
     15          6           0       -3.782141    2.316431    0.068353
     16          6           0       -4.462132    1.201314    0.568999
     17          6           0       -3.924672   -0.081330    0.425791
     18          6           0       -2.699661   -0.212930   -0.226374
     19          6           0       -1.998091    0.878559   -0.736022
     20          6           0       -2.554454    2.151784   -0.581415
     21          1           0       -4.206996    3.309161    0.184028
     22          1           0       -5.415741    1.326180    1.074060
     23          1           0       -4.429854   -0.961849    0.803808
     24          1           0       -1.049277    0.722469   -1.234828
     25          1           0       -2.024136    3.015992   -0.971226
     26          7           0       -2.120670   -1.565822   -0.384017
     27          8           0       -1.039924   -1.655069   -0.962513
     28          8           0       -2.758567   -2.511355    0.073904
 ---------------------------------------------------------------------

 SCF Done:  E(RHF) =  -868.339379658     A.U. after   16 cycles
 E2 =    -0.2600066039D+01 EUMP2 =    -0.87093944569697D+03

 The electronic state is 1-A.
 Alpha  occ. eigenvalues --  -20.61278 -20.61223 -20.60459 -20.60445 -15.86265
 Alpha  occ. eigenvalues --  -15.85500 -11.31427 -11.30525 -11.27988 -11.27928
 Alpha  occ. eigenvalues --  -11.27652 -11.27117 -11.27074 -11.26950 -11.26874
 Alpha  occ. eigenvalues --  -11.26641 -11.25962 -11.25907  -1.60328  -1.59546
 Alpha  occ. eigenvalues --   -1.39883  -1.39106  -1.19577  -1.18656  -1.09011
 Alpha  occ. eigenvalues --   -1.08076  -1.04937  -1.04029  -0.95883  -0.94980
 Alpha  occ. eigenvalues --   -0.86344  -0.85433  -0.82715  -0.81847  -0.77790
 Alpha  occ. eigenvalues --   -0.76965  -0.72514  -0.71725  -0.71647  -0.70878
 Alpha  occ. eigenvalues --   -0.70671  -0.69717  -0.65224  -0.64926  -0.64307
 Alpha  occ. eigenvalues --   -0.64031  -0.62281  -0.61413  -0.55442  -0.54450
 Alpha  occ. eigenvalues --   -0.53293  -0.53017  -0.52338  -0.52128  -0.49283
 Alpha  occ. eigenvalues --   -0.49254  -0.48496  -0.48447  -0.45329  -0.44589
 Alpha  occ. eigenvalues --   -0.37558  -0.36558  -0.36413  -0.35626
 Alpha virt. eigenvalues --    0.04680   0.05609   0.11116   0.12044   0.16233
 Alpha virt. eigenvalues --    0.17231   0.21317   0.22201   0.27241   0.28002
 Alpha virt. eigenvalues --    0.28148   0.29128   0.30888   0.31786   0.32326

 Mulliken charges:
               1
     1  C   -0.149190
     2  C   -0.220041
     3  C   -0.175028
     4  C    0.153672
     5  C   -0.172364
     6  C   -0.214968
     7  H    0.231033
     8  H    0.221350
     9  H    0.270528
    10  H    0.272289
    11  H    0.223296
    12  N    0.487362
    13  O   -0.462860
    14  O   -0.465504
    15  C   -0.170316
    16  C   -0.218787
    17  C   -0.172126
    18  C    0.156346
    19  C   -0.171110
    20  C   -0.218375
    21  H    0.227699
    22  H    0.223869
    23  H    0.274336
    24  H    0.277350
    25  H    0.229046
    26  N    0.487506
    27  O   -0.460764
    28  O   -0.464247
 Sum of Mulliken charges =  -0.00000

 Dipole moment (field-independent basis, Debye):
    X=             -3.9199    Y=             -0.3349    Z=              1.0730  Tot=              4.0779
 Quadrupole moment (field-independent basis, Debye-Ang):
   XX=           -101.1735   YY=           -108.3395   ZZ=           -101.0769
   XY=            -27.1607   XZ=             -4.0775   YZ=             -1.8027

 Normal termination of Gaussian 16 at Thu May  6 19:27:56 2021.
