 Gaussian 16, Revision A.03,
 Gaussian 16:  EM64L-G16RevA.03 25-Dec-2016

 -------------
 #p 6-31g* mp2
 -------------

 ------------------------------------------------------
 Input file generated by CHIRIPA (05-May-2021 14:57:25)
 ------------------------------------------------------
 Symbolic Z-matrix:
 Charge =  0 Multiplicity = 1

                         Standard orientation:
 ---------------------------------------------------------------------
 Center     Atomic      Atomic             Coordinates (Angstroms)
 Number     Number       Type             X           Y           Z
 ---------------------------------------------------------------------
      1          6           0       -1.866957    2.812661    0.514797
      2          6           0       -1.623551    1.797155    1.445400
      3          6           0       -2.006197    0.479905    1.175246
      4          6           0       -2.632885    0.212502   -0.040915
      5          6           0       -2.889204    1.202422   -0.988358
      6          6           0       -2.497894    2.512583   -0.696975
      7          1           0       -1.566344    3.833179    0.732905
      8          1           0       -1.133735    2.027280    2.387296
      9          1           0       -1.829943   -0.325549    1.877810
     10          1           0       -3.379358    0.942253   -1.918669
     11          1           0       -2.688204    3.299217   -1.421567
     12          7           0       -3.042561   -1.178259   -0.338151
     13          8           0       -3.593086   -1.387863   -1.416866
     14          8           0       -2.805382   -2.032398    0.513218
     15          6           0        0.901741   -2.198860    0.706573
     16          6           0        1.481884   -1.355354    1.659701
     17          6           0        2.404849   -0.378219    1.275134
     18          6           0        2.726199   -0.271842   -0.077163
     19          6           0        2.165321   -1.097288   -1.050480
     20          6           0        1.244706   -2.067367   -0.643096
     21          1           0        0.185673   -2.955182    1.014176
     22          1           0        1.217416   -1.455195    2.708572
     23          1           0        2.869093    0.287998    1.992107
     24          1           0        2.448793   -0.973753   -2.088651
     25          1           0        0.795744   -2.721062   -1.385498
     26          7           0        3.702056    0.758873   -0.496364
     27          8           0        3.968418    0.832322   -1.693984
     28          8           0        4.182093    1.473781    0.380624
 ---------------------------------------------------------------------

 SCF Done:  E(RHF) =  -868.339775564     A.U. after   16 cycles
 E2 =    -0.2600721065D+01 EUMP2 =    -0.87094049662895D+03

 The electronic state is 1-A.
 Alpha  occ. eigenvalues --  -20.61510 -20.61458 -20.60853 -20.60838 -15.86514
 Alpha  occ. eigenvalues --  -15.85901 -11.31583 -11.31147 -11.28175 -11.28113
 Alpha  occ. eigenvalues --  -11.27793 -11.27791 -11.27695 -11.27275 -11.27085
 Alpha  occ. eigenvalues --  -11.27041 -11.26722 -11.26559  -1.60551  -1.59929
 Alpha  occ. eigenvalues --   -1.40117  -1.39486  -1.19734  -1.19310  -1.09174
 Alpha  occ. eigenvalues --   -1.08689  -1.05104  -1.04709  -0.96064  -0.95541
 Alpha  occ. eigenvalues --   -0.86514  -0.86090  -0.82921  -0.82389  -0.78008
 Alpha  occ. eigenvalues --   -0.77489  -0.72755  -0.72118  -0.71870  -0.71254
 Alpha  occ. eigenvalues --   -0.70842  -0.70291  -0.65394  -0.65116  -0.64942
 Alpha  occ. eigenvalues --   -0.64689  -0.62478  -0.62061  -0.55596  -0.55056
 Alpha  occ. eigenvalues --   -0.53547  -0.53217  -0.52898  -0.52780  -0.49517
 Alpha  occ. eigenvalues --   -0.49469  -0.48882  -0.48863  -0.45588  -0.44919
 Alpha  occ. eigenvalues --   -0.37739  -0.37257  -0.36706  -0.36199
 Alpha virt. eigenvalues --    0.04485   0.05063   0.10830   0.11411   0.15960
 Alpha virt. eigenvalues --    0.16687   0.20633   0.21923   0.26404   0.27518
 Alpha virt. eigenvalues --    0.27961   0.28962   0.30804   0.31343   0.31887

 Mulliken charges:
               1
     1  C   -0.168913
     2  C   -0.218043
     3  C   -0.164366
     4  C    0.157679
     5  C   -0.170778
     6  C   -0.218268
     7  H    0.229287
     8  H    0.222694
     9  H    0.267728
    10  H    0.275730
    11  H    0.225975
    12  N    0.488847
    13  O   -0.457805
    14  O   -0.470036
    15  C   -0.170581
    16  C   -0.225840
    17  C   -0.171819
    18  C    0.157864
    19  C   -0.170558
    20  C   -0.223322
    21  H    0.242602
    22  H    0.219733
    23  H    0.272016
    24  H    0.275549
    25  H    0.230388
    26  N    0.488061
    27  O   -0.460438
    28  O   -0.463387
 Sum of Mulliken charges =  -0.00000

 Dipole moment (field-independent basis, Debye):
    X=             -2.1309    Y=              1.2732    Z=              2.3757  Tot=              3.4360
 Quadrupole moment (field-independent basis, Debye-Ang):
   XX=           -132.5631   YY=           -100.2713   ZZ=            -97.0291
   XY=            -22.5762   XZ=              3.9113   YZ=              0.0916

 Normal termination of Gaussian 16 at Thu May  6 14:43:42 2021.
