 Gaussian 16, Revision A.03,
 Gaussian 16:  EM64L-G16RevA.03 25-Dec-2016

 -------------
 #p 6-31g* mp2
 -------------

 ------------------------------------------------------
 Input file generated by CHIRIPA (05-May-2021 14:53:15)
 ------------------------------------------------------
 Symbolic Z-matrix:
 Charge =  0 Multiplicity = 1

                         Standard orientation:
 ---------------------------------------------------------------------
 Center     Atomic      Atomic             Coordinates (Angstroms)
 Number     Number       Type             X           Y           Z
 ---------------------------------------------------------------------
      1          6           0        2.809140    0.949396    0.227309
      2          6           0        3.189613    2.425708    0.344482
      3          6           0        2.003017    3.314013    0.719579
      4          1           0        2.015563    0.840390   -0.524554
      5          1           0        2.383741    0.610673    1.182138
      6          1           0        3.615444    2.761180   -0.609845
      7          1           0        3.982510    2.531188    1.096017
      8          1           0        1.581107    3.007088    1.682070
      9          1           0        1.211955    3.238387   -0.033484
     10          1           0        2.297436    4.365219    0.797954
     11          6           0        3.984819    0.048666   -0.147113
     12          6           0        3.604346   -1.427645   -0.264286
     13          6           0        4.790943   -2.315951   -0.639382
     14          1           0        4.410218    0.387389   -1.101941
     15          1           0        4.778396    0.157673    0.604751
     16          1           0        2.811449   -1.533126   -1.015820
     17          1           0        3.178515   -1.763118    0.690042
     18          1           0        5.582004   -2.240324    0.113681
     19          1           0        5.212852   -2.009026   -1.601874
     20          1           0        4.496524   -3.367157   -0.717758
     21          6           0       -1.060756   -2.270000    0.509923
     22          6           0       -2.423679   -2.403495    0.794776
     23          6           0       -3.315537   -1.368233    0.499188
     24          6           0       -2.807909   -0.208104   -0.083653
     25          6           0       -1.455434   -0.045017   -0.379466
     26          6           0       -0.581828   -1.093262   -0.075257
     27          1           0       -0.375029   -3.079259    0.742892
     28          1           0       -2.798438   -3.316230    1.249217
     29          1           0       -4.375465   -1.445037    0.709115
     30          1           0       -1.111541    0.876814   -0.832659
     31          1           0        0.476133   -0.986805   -0.297588
     32          7           0       -3.742417    0.894754   -0.401142
     33          8           0       -3.270134    1.906722   -0.914469
     34          8           0       -4.929474    0.726322   -0.130650
 ---------------------------------------------------------------------

 SCF Done:  E(RHF) =  -669.535113496     A.U. after   15 cycles
 E2 =    -0.2092664870D+01 EUMP2 =    -0.67162777836632D+03

 The electronic state is 1-A.
 Alpha  occ. eigenvalues --  -20.60678 -20.60673 -15.85728 -11.31067 -11.27630
 Alpha  occ. eigenvalues --  -11.27607 -11.27343 -11.26649 -11.26516 -11.22763
 Alpha  occ. eigenvalues --  -11.22373 -11.22281 -11.22203 -11.21961 -11.21468
 Alpha  occ. eigenvalues --   -1.59753  -1.39308  -1.19225  -1.09347  -1.08624
 Alpha  occ. eigenvalues --   -1.04620  -1.04331  -0.96747  -0.95469  -0.87762
 Alpha  occ. eigenvalues --   -0.86026  -0.82312  -0.80437  -0.79225  -0.77329
 Alpha  occ. eigenvalues --   -0.71948  -0.71076  -0.70340  -0.65986  -0.64873
 Alpha  occ. eigenvalues --   -0.64618  -0.61981  -0.61716  -0.60143  -0.58376
 Alpha  occ. eigenvalues --   -0.56013  -0.55128  -0.53440  -0.53196  -0.52951
 Alpha  occ. eigenvalues --   -0.52695  -0.50689  -0.48761  -0.48706  -0.48679
 Alpha  occ. eigenvalues --   -0.47466  -0.46618  -0.46598  -0.44720  -0.44605
 Alpha  occ. eigenvalues --   -0.37209  -0.36215
 Alpha virt. eigenvalues --    0.05168   0.11388   0.16650   0.19650   0.22589
 Alpha virt. eigenvalues --    0.22760   0.24737   0.25656   0.26638   0.28208
 Alpha virt. eigenvalues --    0.29321   0.30797   0.31127   0.31451   0.31792

 Mulliken charges:
               1
     1  C   -0.303810
     2  C   -0.300123
     3  C   -0.477132
     4  H    0.141695
     5  H    0.151877
     6  H    0.154461
     7  H    0.154488
     8  H    0.157081
     9  H    0.156469
    10  H    0.164562
    11  C   -0.297525
    12  C   -0.306632
    13  C   -0.474994
    14  H    0.153436
    15  H    0.154071
    16  H    0.147285
    17  H    0.149595
    18  H    0.158727
    19  H    0.158957
    20  H    0.160561
    21  C   -0.174582
    22  C   -0.218382
    23  C   -0.171665
    24  C    0.159037
    25  C   -0.175215
    26  C   -0.227484
    27  H    0.225451
    28  H    0.222691
    29  H    0.275010
    30  H    0.275020
    31  H    0.240701
    32  N    0.488100
    33  O   -0.460820
    34  O   -0.460910
 Sum of Mulliken charges =  -0.00000

 Dipole moment (field-independent basis, Debye):
    X=              3.5928    Y=             -3.7671    Z=              1.1600  Tot=              5.3334
 Quadrupole moment (field-independent basis, Debye-Ang):
   XX=           -110.1725   YY=            -92.2696   ZZ=            -94.1218
   XY=             13.3385   XZ=             -4.5978   YZ=             -1.2904

 Normal termination of Gaussian 16 at Thu May  6 18:51:01 2021.
