 Gaussian 16, Revision A.03,
 Gaussian 16:  EM64L-G16RevA.03 25-Dec-2016

 -------------
 #p 6-31g* mp2
 -------------

 ------------------------------------------------------
 Input file generated by CHIRIPA (05-May-2021 14:53:15)
 ------------------------------------------------------
 Symbolic Z-matrix:
 Charge =  0 Multiplicity = 1

                         Standard orientation:
 ---------------------------------------------------------------------
 Center     Atomic      Atomic             Coordinates (Angstroms)
 Number     Number       Type             X           Y           Z
 ---------------------------------------------------------------------
      1          6           0       -3.865107    0.767406   -0.294751
      2          6           0       -2.907121    1.652413    0.503379
      3          6           0       -2.529229    2.934414   -0.239228
      4          1           0       -3.402070    0.512100   -1.257746
      5          1           0       -4.774189    1.339309   -0.526898
      6          1           0       -2.000699    1.078566    0.735142
      7          1           0       -3.372414    1.905484    1.464666
      8          1           0       -3.421251    3.530576   -0.457147
      9          1           0       -2.041743    2.698960   -1.190816
     10          1           0       -1.843800    3.552138    0.349383
     11          6           0       -4.252143   -0.517958    0.434475
     12          6           0       -5.210129   -1.402966   -0.363655
     13          6           0       -5.588021   -2.684967    0.378952
     14          1           0       -3.343062   -1.089861    0.666623
     15          1           0       -4.715180   -0.262653    1.397470
     16          1           0       -4.744837   -1.656037   -1.324942
     17          1           0       -6.116551   -0.829119   -0.595418
     18          1           0       -6.075507   -2.449512    1.330540
     19          1           0       -4.695999   -3.281129    0.596871
     20          1           0       -6.273450   -3.302691   -0.209659
     21          6           0        1.028847    1.216906   -0.279187
     22          6           0        2.196650    1.850932    0.157582
     23          6           0        3.389159    1.132568    0.285744
     24          6           0        3.377877   -0.224507   -0.032865
     25          6           0        2.230707   -0.884577   -0.470585
     26          6           0        1.049566   -0.146422   -0.591327
     27          1           0        0.106893    1.782635   -0.375865
     28          1           0        2.183513    2.909594    0.400697
     29          1           0        4.307653    1.598372    0.621620
     30          1           0        2.274916   -1.941115   -0.705511
     31          1           0        0.144145   -0.641438   -0.930763
     32          7           0        4.634316   -0.995483    0.098886
     33          8           0        4.598109   -2.190045   -0.188077
     34          8           0        5.631527   -0.390613    0.486621
 ---------------------------------------------------------------------

 SCF Done:  E(RHF) =  -669.535153002     A.U. after   15 cycles
 E2 =    -0.2092110328D+01 EUMP2 =    -0.67162726333063D+03

 The electronic state is 1-A.
 Alpha  occ. eigenvalues --  -20.60734 -20.60729 -15.85789 -11.31147 -11.27725
 Alpha  occ. eigenvalues --  -11.27716 -11.27370 -11.26730 -11.26705 -11.22826
 Alpha  occ. eigenvalues --  -11.22484 -11.22423 -11.22299 -11.22212 -11.21625
 Alpha  occ. eigenvalues --   -1.59811  -1.39364  -1.19318  -1.09414  -1.08706
 Alpha  occ. eigenvalues --   -1.04724  -1.04520  -0.96976  -0.95541  -0.87979
 Alpha  occ. eigenvalues --   -0.86118  -0.82383  -0.80582  -0.79161  -0.77435
 Alpha  occ. eigenvalues --   -0.72006  -0.71134  -0.70483  -0.66064  -0.64965
 Alpha  occ. eigenvalues --   -0.64723  -0.62086  -0.61921  -0.60368  -0.58548
 Alpha  occ. eigenvalues --   -0.56438  -0.54955  -0.53649  -0.53369  -0.53051
 Alpha  occ. eigenvalues --   -0.52812  -0.50909  -0.48878  -0.48763  -0.48761
 Alpha  occ. eigenvalues --   -0.47638  -0.46703  -0.46618  -0.44772  -0.44747
 Alpha  occ. eigenvalues --   -0.37274  -0.36333
 Alpha virt. eigenvalues --    0.05083   0.11274   0.16522   0.18973   0.22602
 Alpha virt. eigenvalues --    0.23971   0.24994   0.26069   0.26665   0.28090
 Alpha virt. eigenvalues --    0.29850   0.30410   0.30729   0.31117   0.31967

 Mulliken charges:
               1
     1  C   -0.298381
     2  C   -0.306378
     3  C   -0.486530
     4  H    0.146373
     5  H    0.153764
     6  H    0.149041
     7  H    0.158991
     8  H    0.166556
     9  H    0.150801
    10  H    0.159327
    11  C   -0.298797
    12  C   -0.300259
    13  C   -0.476192
    14  H    0.147852
    15  H    0.152797
    16  H    0.151341
    17  H    0.153772
    18  H    0.156728
    19  H    0.155659
    20  H    0.162569
    21  C   -0.178538
    22  C   -0.222627
    23  C   -0.170469
    24  C    0.158060
    25  C   -0.170441
    26  C   -0.223776
    27  H    0.244443
    28  H    0.223690
    29  H    0.275439
    30  H    0.275345
    31  H    0.222972
    32  N    0.488011
    33  O   -0.460635
    34  O   -0.460511
 Sum of Mulliken charges =  -0.00000

 Dipole moment (field-independent basis, Debye):
    X=             -4.7079    Y=              2.7416    Z=             -0.4147  Tot=              5.4637
 Quadrupole moment (field-independent basis, Debye-Ang):
   XX=           -122.3915   YY=            -93.1923   ZZ=            -95.0530
   XY=             11.6379   XZ=             -0.9297   YZ=              2.1458

 Normal termination of Gaussian 16 at Thu May  6 02:43:57 2021.
