 Gaussian 16, Revision A.03,
 Gaussian 16:  EM64L-G16RevA.03 25-Dec-2016

 -------------
 #p 6-31g* mp2
 -------------

 ------------------------------------------------------
 Input file generated by CHIRIPA (05-May-2021 14:55:19)
 ------------------------------------------------------
 Symbolic Z-matrix:
 Charge =  0 Multiplicity = 1

                         Standard orientation:
 ---------------------------------------------------------------------
 Center     Atomic      Atomic             Coordinates (Angstroms)
 Number     Number       Type             X           Y           Z
 ---------------------------------------------------------------------
      1          6           0        0.746118   -2.711761    0.171115
      2          6           0        0.373121   -1.621263    0.963711
      3          6           0        1.114091   -0.436074    0.934775
      4          6           0        2.227353   -0.375765    0.097936
      5          6           0        2.624355   -1.445042   -0.703517
      6          6           0        1.868566   -2.620331   -0.658507
      7          1           0        0.164759   -3.628599    0.199837
      8          1           0       -0.498119   -1.689421    1.608955
      9          1           0        0.847719    0.423342    1.537990
     10          1           0        3.497782   -1.347097   -1.336724
     11          1           0        2.160588   -3.465635   -1.275135
     12          7           0        3.019630    0.873701    0.058794
     13          8           0        3.996251    0.901503   -0.686910
     14          8           0        2.648992    1.801572    0.774559
     15          6           0       -2.080962    1.182579    0.033935
     16          6           0       -2.230695    2.628032   -0.441700
     17          6           0       -1.016500    3.491860   -0.099171
     18          1           0       -1.919104    1.175731    1.120535
     19          1           0       -1.179915    0.746332   -0.419056
     20          1           0       -3.131950    3.060985    0.010964
     21          1           0       -2.392406    2.631430   -1.527266
     22          1           0       -0.111823    3.086259   -0.563550
     23          1           0       -0.855570    3.518255    0.983421
     24          1           0       -1.144774    4.521193   -0.448286
     25          6           0       -3.286787    0.306554   -0.301165
     26          6           0       -3.137054   -1.138899    0.174471
     27          6           0       -4.351248   -2.002728   -0.168059
     28          1           0       -4.187833    0.742801    0.151825
     29          1           0       -3.448645    0.313402   -1.387765
     30          1           0       -2.975343   -1.142297    1.260036
     31          1           0       -2.235798   -1.571853   -0.278195
     32          1           0       -4.512179   -2.029122   -1.250651
     33          1           0       -5.255926   -1.597126    0.296320
     34          1           0       -4.222974   -3.032059    0.181057
 ---------------------------------------------------------------------

 SCF Done:  E(RHF) =  -669.533670793     A.U. after   15 cycles
 E2 =    -0.2095409748D+01 EUMP2 =    -0.67162908054078D+03

 The electronic state is 1-A.
 Alpha  occ. eigenvalues --  -20.60815 -20.60801 -15.85846 -11.31188 -11.27738
 Alpha  occ. eigenvalues --  -11.27685 -11.27465 -11.26767 -11.26660 -11.22306
 Alpha  occ. eigenvalues --  -11.21832 -11.21724 -11.21666 -11.21578 -11.20713
 Alpha  occ. eigenvalues --   -1.59877  -1.39430  -1.19360  -1.08845  -1.08728
 Alpha  occ. eigenvalues --   -1.04748  -1.03827  -0.96234  -0.95594  -0.87261
 Alpha  occ. eigenvalues --   -0.86144  -0.82431  -0.79961  -0.78690  -0.77404
 Alpha  occ. eigenvalues --   -0.72062  -0.71197  -0.70452  -0.65450  -0.64998
 Alpha  occ. eigenvalues --   -0.64758  -0.62092  -0.61219  -0.59679  -0.57856
 Alpha  occ. eigenvalues --   -0.55504  -0.55249  -0.53233  -0.53023  -0.52790
 Alpha  occ. eigenvalues --   -0.52524  -0.50184  -0.48840  -0.48821  -0.48184
 Alpha  occ. eigenvalues --   -0.47000  -0.46132  -0.46029  -0.44794  -0.44079
 Alpha  occ. eigenvalues --   -0.37319  -0.36201
 Alpha virt. eigenvalues --    0.05018   0.11174   0.16440   0.20428   0.22853
 Alpha virt. eigenvalues --    0.23515   0.24763   0.26714   0.27508   0.28247
 Alpha virt. eigenvalues --    0.29685   0.29976   0.31278   0.31599   0.31982

 Mulliken charges:
               1
     1  C   -0.174194
     2  C   -0.215721
     3  C   -0.173218
     4  C    0.157264
     5  C   -0.171814
     6  C   -0.218537
     7  H    0.225936
     8  H    0.230240
     9  H    0.278017
    10  H    0.275312
    11  H    0.223302
    12  N    0.487858
    13  O   -0.460099
    14  O   -0.459596
    15  C   -0.304372
    16  C   -0.300227
    17  C   -0.476955
    18  H    0.140711
    19  H    0.157042
    20  H    0.150798
    21  H    0.152174
    22  H    0.163853
    23  H    0.155523
    24  H    0.161207
    25  C   -0.296164
    26  C   -0.307577
    27  C   -0.474749
    28  H    0.150971
    29  H    0.152185
    30  H    0.143558
    31  H    0.155134
    32  H    0.157816
    33  H    0.158030
    34  H    0.156291
 Sum of Mulliken charges =  -0.00000

 Dipole moment (field-independent basis, Debye):
    X=             -2.7474    Y=             -4.2961    Z=              0.0679  Tot=              5.0999
 Quadrupole moment (field-independent basis, Debye-Ang):
   XX=           -106.4214   YY=            -91.4532   ZZ=            -92.2072
   XY=            -10.9658   XZ=             -2.6150   YZ=              1.1741

 Normal termination of Gaussian 16 at Thu May  6 07:42:13 2021.
