 Gaussian 16, Revision A.03,
 Gaussian 16:  EM64L-G16RevA.03 25-Dec-2016

 -------------
 #p 6-31g* mp2
 -------------

 ------------------------------------------------------
 Input file generated by CHIRIPA (05-May-2021 14:53:12)
 ------------------------------------------------------
 Symbolic Z-matrix:
 Charge =  0 Multiplicity = 1

                         Standard orientation:
 ---------------------------------------------------------------------
 Center     Atomic      Atomic             Coordinates (Angstroms)
 Number     Number       Type             X           Y           Z
 ---------------------------------------------------------------------
      1          6           0       -2.620242   -0.784750    0.319166
      2          6           0       -2.461846   -1.528636    1.645639
      3          6           0       -1.179827   -2.359496    1.708035
      4          1           0       -2.612123   -1.511468   -0.504704
      5          1           0       -1.750498   -0.130579    0.167509
      6          1           0       -3.332296   -2.180173    1.795408
      7          1           0       -2.470535   -0.800080    2.466460
      8          1           0       -0.299900   -1.720010    1.583994
      9          1           0       -1.166557   -3.107945    0.909130
     10          1           0       -1.086746   -2.882816    2.664765
     11          6           0       -3.897126    0.050282    0.241596
     12          6           0       -4.055522    0.794168   -1.084877
     13          6           0       -5.337540    1.625028   -1.147273
     14          1           0       -4.766870   -0.603889    0.393253
     15          1           0       -3.905245    0.776999    1.065466
     16          1           0       -4.046832    0.065612   -1.905697
     17          1           0       -3.185071    1.445705   -1.234646
     18          1           0       -5.350810    2.373477   -0.348368
     19          1           0       -6.217468    0.985542   -1.023232
     20          1           0       -5.430621    2.148347   -2.104003
     21          6           0        2.635452   -1.926623   -1.426609
     22          6           0        3.797820   -1.388016   -0.865073
     23          6           0        3.759936   -0.162283   -0.193736
     24          6           0        2.537184    0.500897   -0.102305
     25          6           0        1.361950   -0.009765   -0.651249
     26          6           0        1.423363   -1.236994   -1.318097
     27          1           0        2.674020   -2.879382   -1.946376
     28          1           0        4.740542   -1.921379   -0.947803
     29          1           0        4.644681    0.277600    0.250276
     30          1           0        0.436931    0.545223   -0.552522
     31          1           0        0.519067   -1.652882   -1.753219
     32          7           0        2.484623    1.799317    0.606032
     33          8           0        1.394938    2.363904    0.672858
     34          8           0        3.534106    2.227847    1.080990
 ---------------------------------------------------------------------

 SCF Done:  E(RHF) =  -669.535498269     A.U. after   15 cycles
 E2 =    -0.2092575288D+01 EUMP2 =    -0.67162807355662D+03

 The electronic state is 1-A.
 Alpha  occ. eigenvalues --  -20.60792 -20.60785 -15.85843 -11.31192 -11.27749
 Alpha  occ. eigenvalues --  -11.27734 -11.27480 -11.26770 -11.26748 -11.21925
 Alpha  occ. eigenvalues --  -11.21862 -11.21826 -11.21622 -11.21353 -11.21175
 Alpha  occ. eigenvalues --   -1.59866  -1.39420  -1.19361  -1.08759  -1.08747
 Alpha  occ. eigenvalues --   -1.04759  -1.03777  -0.96241  -0.95596  -0.87255
 Alpha  occ. eigenvalues --   -0.86155  -0.82428  -0.79855  -0.78620  -0.77461
 Alpha  occ. eigenvalues --   -0.72062  -0.71189  -0.70474  -0.65405  -0.65006
 Alpha  occ. eigenvalues --   -0.64731  -0.62121  -0.61154  -0.59608  -0.57864
 Alpha  occ. eigenvalues --   -0.55545  -0.55250  -0.53134  -0.52907  -0.52874
 Alpha  occ. eigenvalues --   -0.52603  -0.50171  -0.48820  -0.48817  -0.48164
 Alpha  occ. eigenvalues --   -0.46875  -0.46118  -0.46033  -0.44828  -0.44063
 Alpha  occ. eigenvalues --   -0.37336  -0.36317
 Alpha virt. eigenvalues --    0.05021   0.11243   0.16496   0.20045   0.22940
 Alpha virt. eigenvalues --    0.23993   0.24680   0.25983   0.27616   0.28249
 Alpha virt. eigenvalues --    0.29748   0.30756   0.31328   0.31620   0.31937

 Mulliken charges:
               1
     1  C   -0.304068
     2  C   -0.299377
     3  C   -0.479193
     4  H    0.143698
     5  H    0.148211
     6  H    0.152731
     7  H    0.157805
     8  H    0.159603
     9  H    0.148805
    10  H    0.162479
    11  C   -0.297889
    12  C   -0.300848
    13  C   -0.475992
    14  H    0.150419
    15  H    0.155309
    16  H    0.148745
    17  H    0.153261
    18  H    0.158341
    19  H    0.154951
    20  H    0.161047
    21  C   -0.171049
    22  C   -0.218319
    23  C   -0.170827
    24  C    0.159482
    25  C   -0.178503
    26  C   -0.218293
    27  H    0.225705
    28  H    0.223513
    29  H    0.275547
    30  H    0.282455
    31  H    0.225801
    32  N    0.487713
    33  O   -0.461162
    34  O   -0.460105
 Sum of Mulliken charges =  -0.00000

 Dipole moment (field-independent basis, Debye):
    X=              0.1221    Y=             -4.5218    Z=             -2.4232  Tot=              5.1316
 Quadrupole moment (field-independent basis, Debye-Ang):
   XX=            -89.0475   YY=            -99.8720   ZZ=            -94.5728
   XY=            -11.3814   XZ=             -5.6286   YZ=             -0.3482

 Normal termination of Gaussian 16 at Thu May  6 10:23:54 2021.
