 Gaussian 16, Revision A.03,
 Gaussian 16:  EM64L-G16RevA.03 25-Dec-2016

 -------------
 #p 6-31g* mp2
 -------------

 ------------------------------------------------------
 Input file generated by CHIRIPA (05-May-2021 14:55:20)
 ------------------------------------------------------
 Symbolic Z-matrix:
 Charge =  0 Multiplicity = 1

                         Standard orientation:
 ---------------------------------------------------------------------
 Center     Atomic      Atomic             Coordinates (Angstroms)
 Number     Number       Type             X           Y           Z
 ---------------------------------------------------------------------
      1          6           0       -0.768955   -1.320315    1.188850
      2          6           0       -0.667942   -0.837582   -0.120075
      3          6           0       -1.770770   -0.250342   -0.747346
      4          6           0       -2.964608   -0.161736   -0.033071
      5          6           0       -3.096724   -0.633368    1.272072
      6          6           0       -1.980887   -1.216850    1.879529
      7          1           0        0.092801   -1.775038    1.668433
      8          1           0        0.271999   -0.916595   -0.658882
      9          1           0       -1.720342    0.131604   -1.759765
     10          1           0       -4.046997   -0.540494    1.783711
     11          1           0       -2.062246   -1.590885    2.896152
     12          7           0       -4.139008    0.457959   -0.686646
     13          8           0       -5.179559    0.524108   -0.035865
     14          8           0       -3.996716    0.865794   -1.837325
     15          6           0        3.788480    1.053003    0.020691
     16          6           0        2.656622    2.031548    0.335861
     17          6           0        3.155645    3.458380    0.565905
     18          1           0        4.512325    1.061049    0.847086
     19          1           0        4.327914    1.401968   -0.870729
     20          1           0        2.118620    1.680100    1.225611
     21          1           0        1.935289    2.021029   -0.491293
     22          1           0        3.674614    3.832903   -0.322355
     23          1           0        3.858985    3.490036    1.404304
     24          1           0        2.330113    4.141237    0.789651
     25          6           0        3.305415   -0.377497   -0.211785
     26          6           0        4.437272   -1.356042   -0.526956
     27          6           0        3.938248   -2.782874   -0.756999
     28          1           0        2.765980   -0.726463    0.679635
     29          1           0        2.581570   -0.385544   -1.038180
     30          1           0        5.158604   -1.345523    0.300199
     31          1           0        4.975275   -1.004594   -1.416704
     32          1           0        3.234909   -2.814531   -1.595398
     33          1           0        3.419280   -3.157397    0.131260
     34          1           0        4.763781   -3.465731   -0.980745
 ---------------------------------------------------------------------

 SCF Done:  E(RHF) =  -669.535453947     A.U. after   15 cycles
 E2 =    -0.2092102098D+01 EUMP2 =    -0.67162755604474D+03

 The electronic state is 1-A.
 Alpha  occ. eigenvalues --  -20.60705 -20.60700 -15.85756 -11.31103 -11.27667
 Alpha  occ. eigenvalues --  -11.27645 -11.27394 -11.26690 -11.26598 -11.22605
 Alpha  occ. eigenvalues --  -11.22528 -11.22282 -11.22195 -11.22037 -11.21563
 Alpha  occ. eigenvalues --   -1.59781  -1.39335  -1.19265  -1.09359  -1.08662
 Alpha  occ. eigenvalues --   -1.04662  -1.04335  -0.96807  -0.95505  -0.87815
 Alpha  occ. eigenvalues --   -0.86064  -0.82339  -0.80421  -0.79213  -0.77377
 Alpha  occ. eigenvalues --   -0.71975  -0.71103  -0.70381  -0.65992  -0.64914
 Alpha  occ. eigenvalues --   -0.64667  -0.62025  -0.61720  -0.60174  -0.58409
 Alpha  occ. eigenvalues --   -0.56110  -0.55166  -0.53453  -0.53264  -0.52992
 Alpha  occ. eigenvalues --   -0.52728  -0.50742  -0.48774  -0.48733  -0.48683
 Alpha  occ. eigenvalues --   -0.47462  -0.46670  -0.46627  -0.44745  -0.44629
 Alpha  occ. eigenvalues --   -0.37241  -0.36257
 Alpha virt. eigenvalues --    0.05130   0.11341   0.16599   0.19540   0.22697
 Alpha virt. eigenvalues --    0.23600   0.23798   0.25548   0.27208   0.28490
 Alpha virt. eigenvalues --    0.29555   0.30170   0.30986   0.31417   0.31503

 Mulliken charges:
               1
     1  C   -0.174889
     2  C   -0.221161
     3  C   -0.173501
     4  C    0.158936
     5  C   -0.171474
     6  C   -0.218441
     7  H    0.225631
     8  H    0.233056
     9  H    0.275019
    10  H    0.275155
    11  H    0.222847
    12  N    0.488062
    13  O   -0.460740
    14  O   -0.460726
    15  C   -0.298205
    16  C   -0.300423
    17  C   -0.476471
    18  H    0.152266
    19  H    0.152951
    20  H    0.151844
    21  H    0.151335
    22  H    0.156778
    23  H    0.155815
    24  H    0.163891
    25  C   -0.303216
    26  C   -0.299467
    27  C   -0.476927
    28  H    0.143746
    29  H    0.145751
    30  H    0.155218
    31  H    0.156178
    32  H    0.154337
    33  H    0.151186
    34  H    0.165637
 Sum of Mulliken charges =  -0.00000

 Dipole moment (field-independent basis, Debye):
    X=              4.3928    Y=             -2.1006    Z=              2.2907  Tot=              5.3812
 Quadrupole moment (field-independent basis, Debye-Ang):
   XX=           -117.5091   YY=            -95.4954   ZZ=            -90.7668
   XY=              6.1423   XZ=             -9.6444   YZ=             -1.4024

 Normal termination of Gaussian 16 at Thu May  6 14:05:43 2021.
