 Gaussian 16, Revision A.03,
 Gaussian 16:  EM64L-G16RevA.03 25-Dec-2016

 -------------
 #p 6-31g* mp2
 -------------

 ------------------------------------------------------
 Input file generated by CHIRIPA (05-May-2021 14:53:12)
 ------------------------------------------------------
 Symbolic Z-matrix:
 Charge =  0 Multiplicity = 1

                         Standard orientation:
 ---------------------------------------------------------------------
 Center     Atomic      Atomic             Coordinates (Angstroms)
 Number     Number       Type             X           Y           Z
 ---------------------------------------------------------------------
      1          6           0       -4.000952    0.517299    0.008118
      2          6           0       -4.425837   -0.913368   -0.324522
      3          6           0       -5.873347   -1.207171    0.070682
      4          1           0       -4.130866    0.690566    1.085172
      5          1           0       -4.671934    1.220270   -0.504728
      6          1           0       -3.753399   -1.613425    0.187692
      7          1           0       -4.294715   -1.083310   -1.400878
      8          1           0       -6.559639   -0.532044   -0.450670
      9          1           0       -6.015248   -1.065172    1.146926
     10          1           0       -6.156096   -2.235291   -0.176059
     11          6           0       -2.556361    0.826233   -0.381042
     12          6           0       -2.131476    2.256900   -0.048402
     13          6           0       -0.683966    2.550704   -0.443606
     14          1           0       -1.885379    0.123263    0.131804
     15          1           0       -2.426447    0.652967   -1.458096
     16          1           0       -2.262598    2.426842    1.027954
     17          1           0       -2.803914    2.956958   -0.560616
     18          1           0       -0.542064    2.408704   -1.519850
     19          1           0        0.002327    1.875577    0.077746
     20          1           0       -0.401216    3.578824   -0.196865
     21          6           0        4.774103    0.587939   -0.335849
     22          6           0        4.299587   -0.421131   -1.180322
     23          6           0        3.074970   -1.044632   -0.923209
     24          6           0        2.347539   -0.632395    0.192226
     25          6           0        2.793489    0.369943    1.052307
     26          6           0        4.020868    0.979564    0.775809
     27          1           0        5.726489    1.066897   -0.543110
     28          1           0        4.882429   -0.727312   -2.044379
     29          1           0        2.683947   -1.828488   -1.560462
     30          1           0        2.190032    0.653669    1.905980
     31          1           0        4.386903    1.762940    1.433369
     32          7           0        1.049630   -1.285120    0.474679
     33          8           0        0.427717   -0.903795    1.463847
     34          8           0        0.678817   -2.165693   -0.298449
 ---------------------------------------------------------------------

 SCF Done:  E(RHF) =  -669.536701296     A.U. after   15 cycles
 E2 =    -0.2092716223D+01 EUMP2 =    -0.67162941751873D+03

 The electronic state is 1-A.
 Alpha  occ. eigenvalues --  -20.61062 -20.61057 -15.86055 -11.31327 -11.27880
 Alpha  occ. eigenvalues --  -11.27871 -11.27604 -11.26873 -11.26863 -11.20823
 Alpha  occ. eigenvalues --  -11.20570 -11.20520 -11.20366 -11.20207 -11.20157
 Alpha  occ. eigenvalues --   -1.60099  -1.39659  -1.19486  -1.08901  -1.07433
 Alpha  occ. eigenvalues --   -1.04873  -1.02672  -0.95752  -0.95138  -0.86285
 Alpha  occ. eigenvalues --   -0.86162  -0.82589  -0.78728  -0.77651  -0.77220
 Alpha  occ. eigenvalues --   -0.72281  -0.71407  -0.70595  -0.65144  -0.64876
 Alpha  occ. eigenvalues --   -0.64041  -0.62223  -0.60067  -0.58518  -0.56750
 Alpha  occ. eigenvalues --   -0.55381  -0.54446  -0.53200  -0.52964  -0.51885
 Alpha  occ. eigenvalues --   -0.51578  -0.49223  -0.49046  -0.48921  -0.47065
 Alpha  occ. eigenvalues --   -0.45814  -0.45177  -0.44787  -0.44374  -0.42877
 Alpha  occ. eigenvalues --   -0.37447  -0.36457
 Alpha virt. eigenvalues --    0.04829   0.11103   0.16322   0.21269   0.23859
 Alpha virt. eigenvalues --    0.24928   0.27078   0.27524   0.28030   0.28604
 Alpha virt. eigenvalues --    0.28926   0.30767   0.31672   0.32293   0.32709

 Mulliken charges:
               1
     1  C   -0.297052
     2  C   -0.301038
     3  C   -0.475319
     4  H    0.149034
     5  H    0.143911
     6  H    0.162931
     7  H    0.149676
     8  H    0.151549
     9  H    0.154120
    10  H    0.158612
    11  C   -0.310753
    12  C   -0.296361
    13  C   -0.478781
    14  H    0.175360
    15  H    0.144771
    16  H    0.151693
    17  H    0.147694
    18  H    0.152689
    19  H    0.153855
    20  H    0.154695
    21  C   -0.170274
    22  C   -0.218428
    23  C   -0.170579
    24  C    0.160374
    25  C   -0.171111
    26  C   -0.218306
    27  H    0.226205
    28  H    0.223972
    29  H    0.275916
    30  H    0.275922
    31  H    0.224194
    32  N    0.488773
    33  O   -0.460627
    34  O   -0.457317
 Sum of Mulliken charges =  -0.00000

 Dipole moment (field-independent basis, Debye):
    X=              4.8409    Y=              2.0630    Z=             -0.9155  Tot=              5.3412
 Quadrupole moment (field-independent basis, Debye-Ang):
   XX=            -75.4554   YY=            -97.0362   ZZ=            -91.4308
   XY=              2.1402   XZ=             -1.8378   YZ=              3.7557

 Normal termination of Gaussian 16 at Wed May  5 15:28:27 2021.
