 Gaussian 16, Revision A.03,
 Gaussian 16:  EM64L-G16RevA.03 25-Dec-2016

 -------------
 #p 6-31g* mp2
 -------------

 ------------------------------------------------------
 Input file generated by CHIRIPA (05-May-2021 14:53:11)
 ------------------------------------------------------
 Symbolic Z-matrix:
 Charge =  0 Multiplicity = 1

                         Standard orientation:
 ---------------------------------------------------------------------
 Center     Atomic      Atomic             Coordinates (Angstroms)
 Number     Number       Type             X           Y           Z
 ---------------------------------------------------------------------
      1          6           0       -3.611596   -0.608792   -0.085693
      2          6           0       -4.335911   -1.794942    0.551802
      3          6           0       -3.691879   -3.137295    0.203800
      4          1           0       -3.598100   -0.738793   -1.176502
      5          1           0       -2.562828   -0.609305    0.242148
      6          1           0       -5.383345   -1.791393    0.223950
      7          1           0       -4.347852   -1.662007    1.641206
      8          1           0       -2.652286   -3.166002    0.545886
      9          1           0       -3.693661   -3.296123   -0.879423
     10          1           0       -4.225557   -3.971454    0.669875
     11          6           0       -4.243647    0.740117    0.252957
     12          6           0       -3.519332    1.926267   -0.384539
     13          6           0       -4.163364    3.268619   -0.036536
     14          1           0       -5.292416    0.740630   -0.074885
     15          1           0       -4.257143    0.870118    1.343765
     16          1           0       -3.507391    1.793331   -1.473943
     17          1           0       -2.471899    1.922718   -0.056687
     18          1           0       -4.161582    3.427448    1.046686
     19          1           0       -5.202957    3.297327   -0.378622
     20          1           0       -3.629686    4.102778   -0.502612
     21          6           0        0.656937   -0.636335   -0.521674
     22          6           0        1.638838   -1.631613   -0.564273
     23          6           0        2.978123   -1.318924   -0.313101
     24          6           0        3.301590    0.005260   -0.021220
     25          6           0        2.346220    1.019197    0.028662
     26          6           0        1.013135    0.683568   -0.225863
     27          1           0       -0.381044   -0.888149   -0.718093
     28          1           0        1.365116   -2.657510   -0.793741
     29          1           0        3.758501   -2.069743   -0.339515
     30          1           0        2.649701    2.032962    0.260178
     31          1           0        0.252699    1.458578   -0.192091
     32          7           0        4.716151    0.348433    0.246460
     33          8           0        4.975274    1.522557    0.501268
     34          8           0        5.538975   -0.563208    0.196391
 ---------------------------------------------------------------------

 SCF Done:  E(RHF) =  -669.535638968     A.U. after   15 cycles
 E2 =    -0.2091816087D+01 EUMP2 =    -0.67162745505587D+03

 The electronic state is 1-A.
 Alpha  occ. eigenvalues --  -20.60716 -20.60711 -15.85769 -11.31122 -11.27692
 Alpha  occ. eigenvalues --  -11.27688 -11.27370 -11.26693 -11.26683 -11.22718
 Alpha  occ. eigenvalues --  -11.22636 -11.22564 -11.22401 -11.22061 -11.21918
 Alpha  occ. eigenvalues --   -1.59792  -1.39346  -1.19290  -1.09515  -1.08681
 Alpha  occ. eigenvalues --   -1.04694  -1.04538  -0.96978  -0.95521  -0.87991
 Alpha  occ. eigenvalues --   -0.86089  -0.82360  -0.80611  -0.79378  -0.77409
 Alpha  occ. eigenvalues --   -0.71987  -0.71115  -0.70399  -0.66143  -0.64938
 Alpha  occ. eigenvalues --   -0.64689  -0.62074  -0.61898  -0.60348  -0.58607
 Alpha  occ. eigenvalues --   -0.56280  -0.55193  -0.53637  -0.53389  -0.53022
 Alpha  occ. eigenvalues --   -0.52787  -0.50909  -0.48929  -0.48743  -0.48732
 Alpha  occ. eigenvalues --   -0.47638  -0.46870  -0.46800  -0.44811  -0.44754
 Alpha  occ. eigenvalues --   -0.37259  -0.36302
 Alpha virt. eigenvalues --    0.05111   0.11337   0.16548   0.18895   0.22423
 Alpha virt. eigenvalues --    0.22606   0.24988   0.25945   0.26684   0.27034
 Alpha virt. eigenvalues --    0.29384   0.30429   0.30783   0.31308   0.31463

 Mulliken charges:
               1
     1  C   -0.305604
     2  C   -0.299441
     3  C   -0.477558
     4  H    0.149910
     5  H    0.144601
     6  H    0.155998
     7  H    0.155561
     8  H    0.151219
     9  H    0.155236
    10  H    0.165528
    11  C   -0.298044
    12  C   -0.303295
    13  C   -0.476204
    14  H    0.154185
    15  H    0.153206
    16  H    0.153774
    17  H    0.144665
    18  H    0.157670
    19  H    0.158658
    20  H    0.162158
    21  C   -0.178096
    22  C   -0.219853
    23  C   -0.170949
    24  C    0.158598
    25  C   -0.171464
    26  C   -0.224901
    27  H    0.235071
    28  H    0.223678
    29  H    0.275302
    30  H    0.275596
    31  H    0.228036
    32  N    0.488013
    33  O   -0.460631
    34  O   -0.460624
 Sum of Mulliken charges =  -0.00000

 Dipole moment (field-independent basis, Debye):
    X=             -5.3118    Y=             -1.1972    Z=             -0.9088  Tot=              5.5204
 Quadrupole moment (field-independent basis, Debye-Ang):
   XX=           -126.3352   YY=            -90.9022   ZZ=            -94.7962
   XY=             -5.1297   XZ=             -2.8501   YZ=              0.6554

 Normal termination of Gaussian 16 at Thu May  6 04:03:45 2021.
