 Gaussian 16, Revision A.03,
 Gaussian 16:  EM64L-G16RevA.03 25-Dec-2016

 -------------
 #p 6-31g* mp2
 -------------

 ------------------------------------------------------
 Input file generated by CHIRIPA (05-May-2021 14:51:08)
 ------------------------------------------------------
 Symbolic Z-matrix:
 Charge =  0 Multiplicity = 1

                         Standard orientation:
 ---------------------------------------------------------------------
 Center     Atomic      Atomic             Coordinates (Angstroms)
 Number     Number       Type             X           Y           Z
 ---------------------------------------------------------------------
      1          6           0       -2.909742    0.197867   -0.619942
      2          6           0       -4.241485   -0.516268   -0.386581
      3          6           0       -4.527500   -1.591369   -1.435460
      4          1           0       -2.914731    0.651756   -1.620395
      5          1           0       -2.098689   -0.543470   -0.617084
      6          1           0       -5.049634    0.226367   -0.388500
      7          1           0       -4.233398   -0.968347    0.613506
      8          1           0       -3.741682   -2.353643   -1.429982
      9          1           0       -4.562555   -1.152140   -2.437682
     10          1           0       -5.484323   -2.089152   -1.249548
     11          6           0       -2.609710    1.275461    0.420490
     12          6           0       -1.277967    1.989596    0.187129
     13          6           0       -0.991951    3.064697    1.236007
     14          1           0       -3.420763    2.016798    0.417632
     15          1           0       -2.604720    0.821572    1.420942
     16          1           0       -1.286053    2.441675   -0.812959
     17          1           0       -0.469817    1.246960    0.189048
     18          1           0       -0.956896    2.625468    2.238230
     19          1           0       -1.777769    3.826970    1.230530
     20          1           0       -0.035129    3.562480    1.050095
     21          6           0        3.409312   -0.663643   -0.295416
     22          6           0        3.795771    0.791294   -0.563364
     23          6           0        5.097519    0.921027   -1.354829
     24          1           0        4.223668   -1.157840    0.251884
     25          1           0        3.311042   -1.192085   -1.253793
     26          1           0        3.891931    1.317184    0.395181
     27          1           0        2.980320    1.282138   -1.109922
     28          1           0        5.009923    0.421368   -2.325019
     29          1           0        5.926714    0.456613   -0.811364
     30          1           0        5.354944    1.969396   -1.535156
     31          6           0        2.110139   -0.809686    0.494869
     32          6           0        1.723680   -2.264621    0.762816
     33          6           0        0.421932   -2.394356    1.554281
     34          1           0        2.208410   -0.281242    1.453245
     35          1           0        1.295783   -0.315487   -0.052432
     36          1           0        2.539132   -2.755466    1.309375
     37          1           0        1.627520   -2.790511   -0.195729
     38          1           0       -0.407263   -1.929941    1.010816
     39          1           0        0.509528   -1.894696    2.524470
     40          1           0        0.164508   -3.442723    1.734609
 ---------------------------------------------------------------------

 SCF Done:  E(RHF) =  -470.733231911     A.U. after   11 cycles
 E2 =    -0.1583754611D+01 EUMP2 =    -0.47231698652246D+03

 The electronic state is 1-A.
 Alpha  occ. eigenvalues --  -11.21664 -11.21618 -11.21604 -11.21540 -11.21444
 Alpha  occ. eigenvalues --  -11.21415 -11.21384 -11.21340 -11.21159 -11.21083
 Alpha  occ. eigenvalues --  -11.21074 -11.21031  -1.08486  -1.08416  -1.03576
 Alpha  occ. eigenvalues --   -1.03511  -0.96031  -0.95961  -0.87048  -0.86977
 Alpha  occ. eigenvalues --   -0.79650  -0.79576  -0.78382  -0.78155  -0.65231
 Alpha  occ. eigenvalues --   -0.64947  -0.60976  -0.60911  -0.59395  -0.59332
 Alpha  occ. eigenvalues --   -0.57667  -0.57550  -0.55392  -0.55184  -0.52720
 Alpha  occ. eigenvalues --   -0.52655  -0.52485  -0.52361  -0.50044  -0.49841
 Alpha  occ. eigenvalues --   -0.48018  -0.47879  -0.46812  -0.46637  -0.46125
 Alpha  occ. eigenvalues --   -0.45778  -0.45749  -0.45155  -0.43828  -0.43768
 Alpha virt. eigenvalues --    0.19702   0.23004   0.23981   0.24404   0.25291
 Alpha virt. eigenvalues --    0.26695   0.26945   0.27566   0.28447   0.29381
 Alpha virt. eigenvalues --    0.31047   0.31526   0.31720   0.31882   0.32183

 Mulliken charges:
               1
     1  C   -0.302495
     2  C   -0.299625
     3  C   -0.475755
     4  H    0.149736
     5  H    0.151566
     6  H    0.152139
     7  H    0.152493
     8  H    0.155118
     9  H    0.155050
    10  H    0.160394
    11  C   -0.297636
    12  C   -0.309256
    13  C   -0.475012
    14  H    0.149537
    15  H    0.150297
    16  H    0.151062
    17  H    0.161144
    18  H    0.155133
    19  H    0.154853
    20  H    0.160328
    21  C   -0.297514
    22  C   -0.300094
    23  C   -0.475718
    24  H    0.149811
    25  H    0.149579
    26  H    0.151954
    27  H    0.152429
    28  H    0.155255
    29  H    0.155203
    30  H    0.160352
    31  C   -0.306667
    32  C   -0.298936
    33  C   -0.480497
    34  H    0.149581
    35  H    0.157428
    36  H    0.152401
    37  H    0.151974
    38  H    0.158117
    39  H    0.155409
    40  H    0.160861
 Sum of Mulliken charges =  -0.00000

 Dipole moment (field-independent basis, Debye):
    X=              0.0240    Y=             -0.0108    Z=              0.0059  Tot=              0.0270
 Quadrupole moment (field-independent basis, Debye-Ang):
   XX=            -85.2127   YY=            -85.0558   ZZ=            -84.4458
   XY=             -0.8263   XZ=              1.0203   YZ=             -0.8067

 Normal termination of Gaussian 16 at Thu May  6 02:06:05 2021.
