 Gaussian 16, Revision A.03,
 Gaussian 16:  EM64L-G16RevA.03 25-Dec-2016

 -------------
 #p 6-31g* mp2
 -------------

 ------------------------------------------------------
 Input file generated by CHIRIPA (05-May-2021 14:57:26)
 ------------------------------------------------------
 Symbolic Z-matrix:
 Charge =  0 Multiplicity = 1

                         Standard orientation:
 ---------------------------------------------------------------------
 Center     Atomic      Atomic             Coordinates (Angstroms)
 Number     Number       Type             X           Y           Z
 ---------------------------------------------------------------------
      1          6           0       -2.990455    2.400089    1.018910
      2          6           0       -1.938510    1.499384    0.822285
      3          6           0       -2.179338    0.234285    0.278157
      4          6           0       -3.490228   -0.098597   -0.059553
      5          6           0       -4.559449    0.776776    0.124234
      6          6           0       -4.295267    2.036551    0.669872
      7          1           0       -2.794303    3.380781    1.442188
      8          1           0       -0.924170    1.779000    1.092423
      9          1           0       -1.383613   -0.482443    0.115247
     10          1           0       -5.559997    0.469466   -0.154842
     11          1           0       -5.114177    2.734014    0.821453
     12          7           0       -3.757544   -1.435083   -0.636396
     13          8           0       -4.921385   -1.704229   -0.925655
     14          8           0       -2.798163   -2.188168   -0.788345
     15          6           0        2.806616   -2.369770    0.914716
     16          6           0        1.825773   -1.536988    0.366135
     17          6           0        2.168664   -0.289278   -0.163199
     18          6           0        3.508001    0.095666   -0.127383
     19          6           0        4.508179   -0.711566    0.412347
     20          6           0        4.142334   -1.955132    0.936035
     21          1           0        2.531334   -3.337411    1.323723
     22          1           0        0.787648   -1.856395    0.348231
     23          1           0        1.429569    0.375277   -0.593925
     24          1           0        5.534722   -0.365711    0.415989
     25          1           0        4.906191   -2.599802    1.361439
     26          7           0        3.883154    1.414367   -0.684776
     27          8           0        5.070130    1.730327   -0.641228
     28          8           0        2.983120    2.107036   -1.154655
 ---------------------------------------------------------------------

 SCF Done:  E(RHF) =  -868.338064174     A.U. after   16 cycles
 E2 =    -0.2599825382D+01 EUMP2 =    -0.87093788955671D+03

 The electronic state is 1-A.
 Alpha  occ. eigenvalues --  -20.61309 -20.61275 -20.61132 -20.61113 -15.86343
 Alpha  occ. eigenvalues --  -15.86178 -11.31647 -11.31524 -11.28305 -11.28138
 Alpha  occ. eigenvalues --  -11.28135 -11.28044 -11.27828 -11.27742 -11.27174
 Alpha  occ. eigenvalues --  -11.27125 -11.27080 -11.27035  -1.60363  -1.60201
 Alpha  occ. eigenvalues --   -1.39924  -1.39756  -1.19785  -1.19676  -1.09170
 Alpha  occ. eigenvalues --   -1.09056  -1.05202  -1.05078  -0.96035  -0.95904
 Alpha  occ. eigenvalues --   -0.86586  -0.86461  -0.82886  -0.82745  -0.78004
 Alpha  occ. eigenvalues --   -0.77774  -0.72566  -0.72394  -0.71678  -0.71525
 Alpha  occ. eigenvalues --   -0.70909  -0.70741  -0.65440  -0.65337  -0.65245
 Alpha  occ. eigenvalues --   -0.64998  -0.62768  -0.62231  -0.55652  -0.55508
 Alpha  occ. eigenvalues --   -0.53499  -0.53397  -0.53368  -0.53069  -0.49338
 Alpha  occ. eigenvalues --   -0.49299  -0.49158  -0.49143  -0.45344  -0.45168
 Alpha  occ. eigenvalues --   -0.37712  -0.37615  -0.36783  -0.36690
 Alpha virt. eigenvalues --    0.04583   0.04716   0.10879   0.10961   0.16094
 Alpha virt. eigenvalues --    0.16204   0.18314   0.22217   0.24602   0.26587
 Alpha virt. eigenvalues --    0.28097   0.28938   0.30450   0.31271   0.32581

 Mulliken charges:
               1
     1  C   -0.169648
     2  C   -0.220448
     3  C   -0.176448
     4  C    0.159242
     5  C   -0.169631
     6  C   -0.218079
     7  H    0.229802
     8  H    0.227829
     9  H    0.270582
    10  H    0.276911
    11  H    0.225852
    12  N    0.487971
    13  O   -0.456741
    14  O   -0.467171
    15  C   -0.170306
    16  C   -0.225194
    17  C   -0.177058
    18  C    0.159309
    19  C   -0.170677
    20  C   -0.218147
    21  H    0.230305
    22  H    0.233003
    23  H    0.270457
    24  H    0.276456
    25  H    0.225292
    26  N    0.488188
    27  O   -0.458648
    28  O   -0.463005
 Sum of Mulliken charges =  -0.00000

 Dipole moment (field-independent basis, Debye):
    X=             -0.4394    Y=              0.0992    Z=              4.0788  Tot=              4.1036
 Quadrupole moment (field-independent basis, Debye-Ang):
   XX=           -109.9131   YY=           -106.8327   ZZ=           -106.8466
   XY=            -36.2486   XZ=              1.6002   YZ=              0.0338

 Normal termination of Gaussian 16 at Thu May  6 22:55:59 2021.
