 Gaussian 16, Revision A.03,
 Gaussian 16:  EM64L-G16RevA.03 25-Dec-2016

 -------------
 #p 6-31g* mp2
 -------------

 ------------------------------------------------------
 Input file generated by CHIRIPA (05-May-2021 14:53:16)
 ------------------------------------------------------
 Symbolic Z-matrix:
 Charge =  0 Multiplicity = 1

                         Standard orientation:
 ---------------------------------------------------------------------
 Center     Atomic      Atomic             Coordinates (Angstroms)
 Number     Number       Type             X           Y           Z
 ---------------------------------------------------------------------
      1          6           0        3.985099    0.965894   -0.247978
      2          6           0        2.687047    1.379637    0.446186
      3          6           0        2.337020    2.850302    0.217231
      4          1           0        4.805563    1.600276    0.114434
      5          1           0        3.893778    1.158511   -1.325918
      6          1           0        2.780281    1.185008    1.522310
      7          1           0        1.869613    0.744069    0.082220
      8          1           0        2.216939    3.055873   -0.851377
      9          1           0        3.132781    3.499317    0.596895
     10          1           0        1.405587    3.124622    0.722247
     11          6           0        4.348399   -0.501595   -0.028390
     12          6           0        5.646451   -0.915338   -0.722553
     13          6           0        5.996478   -2.386003   -0.493599
     14          1           0        4.439720   -0.694212    1.049550
     15          1           0        3.527935   -1.135977   -0.390802
     16          1           0        6.463885   -0.279770   -0.358588
     17          1           0        5.553217   -0.720709   -1.798677
     18          1           0        5.200717   -3.035018   -0.873263
     19          1           0        6.116558   -2.591574    0.575009
     20          1           0        6.927911   -2.660323   -0.998614
     21          6           0       -5.365536   -0.370326   -1.262083
     22          6           0       -4.332497    0.474729   -1.680691
     23          6           0       -3.158797    0.587284   -0.929488
     24          6           0       -3.051260   -0.163099    0.240406
     25          6           0       -4.062806   -1.013687    0.683762
     26          6           0       -5.227636   -1.110533   -0.083270
     27          1           0       -6.273850   -0.451660   -1.851784
     28          1           0       -4.436831    1.050776   -2.595748
     29          1           0       -2.343439    1.233875   -1.230366
     30          1           0       -3.929704   -1.575351    1.600407
     31          1           0       -6.028271   -1.767613    0.244258
     32          7           0       -1.813411   -0.052258    1.044051
     33          8           0       -1.743237   -0.723957    2.070956
     34          8           0       -0.936799    0.704219    0.631825
 ---------------------------------------------------------------------

 SCF Done:  E(RHF) =  -669.536004589     A.U. after   15 cycles
 E2 =    -0.2091016033D+01 EUMP2 =    -0.67162702062265D+03

 The electronic state is 1-A.
 Alpha  occ. eigenvalues --  -20.60955 -20.60948 -15.85988 -11.31308 -11.27871
 Alpha  occ. eigenvalues --  -11.27867 -11.27608 -11.26878 -11.26868 -11.20894
 Alpha  occ. eigenvalues --  -11.20478 -11.20459 -11.20283 -11.20004 -11.19758
 Alpha  occ. eigenvalues --   -1.60015  -1.39572  -1.19476  -1.08881  -1.07403
 Alpha  occ. eigenvalues --   -1.04872  -1.02467  -0.95723  -0.94973  -0.86272
 Alpha  occ. eigenvalues --   -0.86005  -0.82558  -0.78562  -0.77613  -0.77139
 Alpha  occ. eigenvalues --   -0.72210  -0.71331  -0.70584  -0.65133  -0.64875
 Alpha  occ. eigenvalues --   -0.64047  -0.62219  -0.59875  -0.58354  -0.56524
 Alpha  occ. eigenvalues --   -0.55375  -0.54298  -0.53204  -0.52963  -0.51668
 Alpha  occ. eigenvalues --   -0.51393  -0.49025  -0.48963  -0.48916  -0.46866
 Alpha  occ. eigenvalues --   -0.45624  -0.45046  -0.44690  -0.44485  -0.42733
 Alpha  occ. eigenvalues --   -0.37455  -0.36474
 Alpha virt. eigenvalues --    0.04899   0.11181   0.16384   0.21300   0.23803
 Alpha virt. eigenvalues --    0.25285   0.27237   0.27637   0.28106   0.28638
 Alpha virt. eigenvalues --    0.28957   0.30888   0.32291   0.32445   0.32804

 Mulliken charges:
               1
     1  C   -0.298313
     2  C   -0.300894
     3  C   -0.475900
     4  H    0.145107
     5  H    0.144210
     6  H    0.152292
     7  H    0.170652
     8  H    0.146734
     9  H    0.147828
    10  H    0.168501
    11  C   -0.297111
    12  C   -0.298689
    13  C   -0.475011
    14  H    0.150223
    15  H    0.149809
    16  H    0.150421
    17  H    0.149440
    18  H    0.154208
    19  H    0.155151
    20  H    0.157461
    21  C   -0.170594
    22  C   -0.218542
    23  C   -0.170937
    24  C    0.157607
    25  C   -0.170597
    26  C   -0.218584
    27  H    0.226045
    28  H    0.223903
    29  H    0.275842
    30  H    0.275908
    31  H    0.223863
    32  N    0.491431
    33  O   -0.458684
    34  O   -0.462776
 Sum of Mulliken charges =  -0.00000

 Dipole moment (field-independent basis, Debye):
    X=             -4.7297    Y=             -0.4562    Z=             -2.7333  Tot=              5.4817
 Quadrupole moment (field-independent basis, Debye-Ang):
   XX=            -69.2193   YY=            -94.5372   ZZ=            -93.6950
   XY=              3.7175   XZ=              7.1608   YZ=             -1.8389

 Normal termination of Gaussian 16 at Thu May  6 13:53:50 2021.
