 Gaussian 16, Revision A.03,
 Gaussian 16:  EM64L-G16RevA.03 25-Dec-2016

 -------------
 #p 6-31g* mp2
 -------------

 ------------------------------------------------------
 Input file generated by CHIRIPA (05-May-2021 14:57:21)
 ------------------------------------------------------
 Symbolic Z-matrix:
 Charge =  0 Multiplicity = 1

                         Standard orientation:
 ---------------------------------------------------------------------
 Center     Atomic      Atomic             Coordinates (Angstroms)
 Number     Number       Type             X           Y           Z
 ---------------------------------------------------------------------
      1          6           0       -1.302796   -1.729142    1.261682
      2          6           0       -2.182837   -0.900865    1.965960
      3          6           0       -3.096820   -0.092579    1.283423
      4          6           0       -3.103478   -0.137686   -0.109850
      5          6           0       -2.239405   -0.952351   -0.839911
      6          6           0       -1.333834   -1.752201   -0.136540
      7          1           0       -0.596060   -2.353762    1.799986
      8          1           0       -2.160976   -0.880910    3.051855
      9          1           0       -3.789353    0.557970    1.803617
     10          1           0       -2.284845   -0.950674   -1.922200
     11          1           0       -0.651561   -2.394475   -0.686115
     12          7           0       -4.066618    0.713545   -0.843449
     13          8           0       -4.052517    0.655595   -2.071081
     14          8           0       -4.817390    1.422571   -0.176921
     15          6           0        3.363624   -2.128378   -0.643437
     16          6           0        2.329598   -1.807127    0.242063
     17          6           0        2.088406   -0.477233    0.599492
     18          6           0        2.904244    0.510616    0.050081
     19          6           0        3.942218    0.222363   -0.834685
     20          6           0        4.165221   -1.114396   -1.178042
     21          1           0        3.543922   -3.164138   -0.915630
     22          1           0        1.705478   -2.592527    0.658795
     23          1           0        1.294735   -0.200455    1.282792
     24          1           0        4.547622    1.027126   -1.233761
     25          1           0        4.968975   -1.360941   -1.865966
     26          7           0        2.658533    1.922150    0.421025
     27          8           0        3.391430    2.774010   -0.076805
     28          8           0        1.737702    2.149922    1.202580
 ---------------------------------------------------------------------

 SCF Done:  E(RHF) =  -868.335389106     A.U. after   16 cycles
 E2 =    -0.2602837575D+01 EUMP2 =    -0.87093822668036D+03

 The electronic state is 1-A.
 Alpha  occ. eigenvalues --  -20.61143 -20.61136 -20.60882 -20.60872 -15.86206
 Alpha  occ. eigenvalues --  -15.85936 -11.31715 -11.31493 -11.28349 -11.28318
 Alpha  occ. eigenvalues --  -11.28175 -11.28059 -11.28018 -11.27985 -11.27517
 Alpha  occ. eigenvalues --  -11.27333 -11.27219 -11.27170  -1.60214  -1.59946
 Alpha  occ. eigenvalues --   -1.39764  -1.39495  -1.19953  -1.19689  -1.09322
 Alpha  occ. eigenvalues --   -1.09108  -1.05409  -1.05092  -0.96120  -0.95894
 Alpha  occ. eigenvalues --   -0.86807  -0.86515  -0.82976  -0.82696  -0.77997
 Alpha  occ. eigenvalues --   -0.77666  -0.72424  -0.72160  -0.71540  -0.71263
 Alpha  occ. eigenvalues --   -0.71125  -0.70853  -0.65650  -0.65574  -0.65334
 Alpha  occ. eigenvalues --   -0.65024  -0.62766  -0.62393  -0.55938  -0.55710
 Alpha  occ. eigenvalues --   -0.53824  -0.53603  -0.53236  -0.53160  -0.49194
 Alpha  occ. eigenvalues --   -0.49163  -0.48932  -0.48897  -0.45136  -0.44858
 Alpha  occ. eigenvalues --   -0.37955  -0.37904  -0.37076  -0.36392
 Alpha virt. eigenvalues --    0.04567   0.04799   0.10562   0.10916   0.15984
 Alpha virt. eigenvalues --    0.16118   0.18839   0.22159   0.25200   0.26745
 Alpha virt. eigenvalues --    0.27905   0.29018   0.30087   0.31408   0.31896

 Mulliken charges:
               1
     1  C   -0.184930
     2  C   -0.215319
     3  C   -0.167326
     4  C    0.161479
     5  C   -0.170348
     6  C   -0.213280
     7  H    0.218384
     8  H    0.226597
     9  H    0.279064
    10  H    0.277074
    11  H    0.220113
    12  N    0.488167
    13  O   -0.459385
    14  O   -0.457476
    15  C   -0.171521
    16  C   -0.225396
    17  C   -0.166560
    18  C    0.157621
    19  C   -0.168760
    20  C   -0.219036
    21  H    0.226052
    22  H    0.212107
    23  H    0.277756
    24  H    0.278232
    25  H    0.225732
    26  N    0.488357
    27  O   -0.458218
    28  O   -0.459181
 Sum of Mulliken charges =  -0.00000

 Dipole moment (field-independent basis, Debye):
    X=              4.1264    Y=             -7.6479    Z=              1.1922  Tot=              8.7715
 Quadrupole moment (field-independent basis, Debye-Ang):
   XX=           -117.0496   YY=           -109.7808   ZZ=           -100.5903
   XY=             -4.6543   XZ=            -16.9024   YZ=              0.0907

 Normal termination of Gaussian 16 at Thu May  6 12:51:07 2021.
