 Gaussian 16, Revision A.03,
 Gaussian 16:  EM64L-G16RevA.03 25-Dec-2016

 -------------
 #p 6-31g* mp2
 -------------

 ------------------------------------------------------
 Input file generated by CHIRIPA (05-May-2021 14:55:24)
 ------------------------------------------------------
 Symbolic Z-matrix:
 Charge =  0 Multiplicity = 1

                         Standard orientation:
 ---------------------------------------------------------------------
 Center     Atomic      Atomic             Coordinates (Angstroms)
 Number     Number       Type             X           Y           Z
 ---------------------------------------------------------------------
      1          6           0        1.205840    1.945425    0.828751
      2          6           0        1.886926    1.081370    1.692494
      3          6           0        2.856076    0.202772    1.199176
      4          6           0        3.120175    0.214815   -0.169545
      5          6           0        2.458586    1.063705   -1.055533
      6          6           0        1.493337    1.933855   -0.540093
      7          1           0        0.454496    2.624660    1.220565
      8          1           0        1.665718    1.088175    2.756009
      9          1           0        3.398345   -0.476730    1.845426
     10          1           0        2.700870    1.033950   -2.110916
     11          1           0        0.965968    2.603783   -1.213238
     12          7           0        4.144106   -0.710846   -0.703509
     13          8           0        4.358397   -0.680843   -1.913392
     14          8           0        4.712985   -1.448854    0.097964
     15          6           0       -3.232735   -0.447415    0.638972
     16          6           0       -2.005944   -1.290943    0.290505
     17          6           0       -0.924231   -1.235123    1.369662
     18          1           0       -2.921235    0.594587    0.794359
     19          1           0       -3.648698   -0.795139    1.594722
     20          1           0       -1.593234   -0.942635   -0.664989
     21          1           0       -2.320429   -2.331021    0.135743
     22          1           0       -1.313613   -1.602211    2.324768
     23          1           0       -0.582287   -0.205935    1.519487
     24          1           0       -0.056400   -1.845111    1.100136
     25          6           0       -4.322899   -0.493064   -0.430227
     26          6           0       -5.549690    0.350463   -0.081760
     27          6           0       -6.631402    0.294644   -1.160915
     28          1           0       -3.906935   -0.145341   -1.385976
     29          1           0       -4.634399   -1.535067   -0.585613
     30          1           0       -5.235204    1.390543    0.073003
     31          1           0       -5.962399    0.002155    0.873735
     32          1           0       -6.973346   -0.734543   -1.310741
     33          1           0       -6.242020    0.661732   -2.116023
     34          1           0       -7.499233    0.904632   -0.891389
 ---------------------------------------------------------------------

 SCF Done:  E(RHF) =  -669.534074370     A.U. after   15 cycles
 E2 =    -0.2093128186D+01 EUMP2 =    -0.67162720255673D+03

 The electronic state is 1-A.
 Alpha  occ. eigenvalues --  -20.60808 -20.60802 -15.85860 -11.31252 -11.27807
 Alpha  occ. eigenvalues --  -11.27776 -11.27537 -11.26849 -11.26801 -11.21966
 Alpha  occ. eigenvalues --  -11.21873 -11.21792 -11.21718 -11.21380 -11.21221
 Alpha  occ. eigenvalues --   -1.59882  -1.39435  -1.19420  -1.08838  -1.08764
 Alpha  occ. eigenvalues --   -1.04823  -1.03834  -0.96291  -0.95647  -0.87317
 Alpha  occ. eigenvalues --   -0.86222  -0.82473  -0.79910  -0.78603  -0.77514
 Alpha  occ. eigenvalues --   -0.72079  -0.71205  -0.70530  -0.65423  -0.65073
 Alpha  occ. eigenvalues --   -0.64827  -0.62164  -0.61262  -0.59654  -0.57903
 Alpha  occ. eigenvalues --   -0.55709  -0.55330  -0.53346  -0.52916  -0.52854
 Alpha  occ. eigenvalues --   -0.52607  -0.50181  -0.48839  -0.48832  -0.48225
 Alpha  occ. eigenvalues --   -0.46945  -0.46145  -0.46075  -0.44835  -0.44106
 Alpha  occ. eigenvalues --   -0.37325  -0.36351
 Alpha virt. eigenvalues --    0.04978   0.11165   0.16411   0.21062   0.22595
 Alpha virt. eigenvalues --    0.24082   0.26193   0.26877   0.27111   0.28008
 Alpha virt. eigenvalues --    0.28423   0.30792   0.31314   0.31645   0.31768

 Mulliken charges:
               1
     1  C   -0.173003
     2  C   -0.215132
     3  C   -0.169959
     4  C    0.158760
     5  C   -0.171414
     6  C   -0.217465
     7  H    0.226017
     8  H    0.224916
     9  H    0.275918
    10  H    0.275758
    11  H    0.223587
    12  N    0.487943
    13  O   -0.460228
    14  O   -0.460138
    15  C   -0.297101
    16  C   -0.299340
    17  C   -0.478470
    18  H    0.142741
    19  H    0.150034
    20  H    0.151970
    21  H    0.153871
    22  H    0.151757
    23  H    0.155039
    24  H    0.162634
    25  C   -0.298258
    26  C   -0.299438
    27  C   -0.475787
    28  H    0.148838
    29  H    0.151775
    30  H    0.149446
    31  H    0.152508
    32  H    0.156509
    33  H    0.155043
    34  H    0.160668
 Sum of Mulliken charges =  -0.00000

 Dipole moment (field-independent basis, Debye):
    X=             -3.5575    Y=              3.2468    Z=              1.8648  Tot=              5.1648
 Quadrupole moment (field-independent basis, Debye-Ang):
   XX=           -118.4310   YY=            -92.7323   ZZ=            -91.5403
   XY=              9.6202   XZ=              6.7691   YZ=             -2.2890

 Normal termination of Gaussian 16 at Wed May  5 20:46:51 2021.
