 Gaussian 16, Revision A.03,
 Gaussian 16:  EM64L-G16RevA.03 25-Dec-2016

 -------------
 #p 6-31g* mp2
 -------------

 ------------------------------------------------------
 Input file generated by CHIRIPA (05-May-2021 14:57:21)
 ------------------------------------------------------
 Symbolic Z-matrix:
 Charge =  0 Multiplicity = 1

                         Standard orientation:
 ---------------------------------------------------------------------
 Center     Atomic      Atomic             Coordinates (Angstroms)
 Number     Number       Type             X           Y           Z
 ---------------------------------------------------------------------
      1          6           0        1.386387   -1.749203    0.793325
      2          6           0        2.599449   -1.638026    1.480814
      3          6           0        3.595412   -0.767989    1.027336
      4          6           0        3.343572   -0.020783   -0.122251
      5          6           0        2.145323   -0.109365   -0.829105
      6          6           0        1.163588   -0.985863   -0.357412
      7          1           0        0.618225   -2.427578    1.152672
      8          1           0        2.775239   -2.229612    2.374776
      9          1           0        4.543661   -0.662342    1.540250
     10          1           0        1.999188    0.493347   -1.717250
     11          1           0        0.222466   -1.070153   -0.893350
     12          7           0        4.390422    0.903706   -0.611970
     13          8           0        4.143982    1.551030   -1.627291
     14          8           0        5.437561    0.963492    0.028782
     15          6           0       -3.129599    2.497413    1.022359
     16          6           0       -2.436925    1.458895    1.653393
     17          6           0       -2.452908    0.167155    1.118885
     18          6           0       -3.175045   -0.051551   -0.053282
     19          6           0       -3.875205    0.962310   -0.705317
     20          6           0       -3.845266    2.246249   -0.152910
     21          1           0       -3.111762    3.497838    1.444530
     22          1           0       -1.880286    1.651035    2.566235
     23          1           0       -1.925517   -0.655220    1.586834
     24          1           0       -4.421222    0.740042   -1.614096
     25          1           0       -4.384134    3.050849   -0.645136
     26          7           0       -3.199353   -1.414929   -0.628617
     27          8           0       -3.843042   -1.581662   -1.662299
     28          8           0       -2.574255   -2.290997   -0.034987
 ---------------------------------------------------------------------

 SCF Done:  E(RHF) =  -868.339701726     A.U. after   16 cycles
 E2 =    -0.2599991311D+01 EUMP2 =    -0.87093969303644D+03

 The electronic state is 1-A.
 Alpha  occ. eigenvalues --  -20.61901 -20.61846 -20.60696 -20.60690 -15.86889
 Alpha  occ. eigenvalues --  -15.85745 -11.31994 -11.31039 -11.28562 -11.28490
 Alpha  occ. eigenvalues --  -11.28163 -11.27605 -11.27559 -11.27452 -11.27428
 Alpha  occ. eigenvalues --  -11.27204 -11.26591 -11.26478  -1.60936  -1.59773
 Alpha  occ. eigenvalues --   -1.40499  -1.39329  -1.20132  -1.19187  -1.09566
 Alpha  occ. eigenvalues --   -1.08576  -1.05484  -1.04572  -0.96446  -0.95426
 Alpha  occ. eigenvalues --   -0.86897  -0.85955  -0.83283  -0.82262  -0.78381
 Alpha  occ. eigenvalues --   -0.77338  -0.73108  -0.72266  -0.71959  -0.71219
 Alpha  occ. eigenvalues --   -0.71098  -0.70225  -0.65777  -0.65471  -0.64818
 Alpha  occ. eigenvalues --   -0.64536  -0.62839  -0.61911  -0.55967  -0.54993
 Alpha  occ. eigenvalues --   -0.53842  -0.53567  -0.52907  -0.52639  -0.49889
 Alpha  occ. eigenvalues --   -0.49827  -0.48724  -0.48713  -0.45935  -0.44750
 Alpha  occ. eigenvalues --   -0.38090  -0.37264  -0.36979  -0.36159
 Alpha virt. eigenvalues --    0.04112   0.05166   0.10442   0.11559   0.15651
 Alpha virt. eigenvalues --    0.16628   0.20392   0.21741   0.26033   0.27088
 Alpha virt. eigenvalues --    0.27431   0.28824   0.30536   0.30936   0.32366

 Mulliken charges:
               1
     1  C   -0.179755
     2  C   -0.219570
     3  C   -0.172231
     4  C    0.158006
     5  C   -0.172332
     6  C   -0.220628
     7  H    0.236924
     8  H    0.222585
     9  H    0.274345
    10  H    0.274790
    11  H    0.229288
    12  N    0.488042
    13  O   -0.461172
    14  O   -0.461373
    15  C   -0.169417
    16  C   -0.217343
    17  C   -0.171126
    18  C    0.154067
    19  C   -0.170794
    20  C   -0.218172
    21  H    0.229652
    22  H    0.226654
    23  H    0.270415
    24  H    0.277266
    25  H    0.226905
    26  N    0.487690
    27  O   -0.453331
    28  O   -0.469383
 Sum of Mulliken charges =  -0.00000

 Dipole moment (field-independent basis, Debye):
    X=             -3.9162    Y=              1.6803    Z=              3.7280  Tot=              5.6620
 Quadrupole moment (field-independent basis, Debye-Ang):
   XX=           -127.3429   YY=           -105.0545   ZZ=           -100.3156
   XY=            -28.8881   XZ=              4.9551   YZ=             -2.3477

 Normal termination of Gaussian 16 at Thu May  6 21:07:17 2021.
