 Gaussian 16, Revision A.03,
 Gaussian 16:  EM64L-G16RevA.03 25-Dec-2016

 -------------
 #p 6-31g* mp2
 -------------

 ------------------------------------------------------
 Input file generated by CHIRIPA (05-May-2021 14:55:24)
 ------------------------------------------------------
 Symbolic Z-matrix:
 Charge =  0 Multiplicity = 1

                         Standard orientation:
 ---------------------------------------------------------------------
 Center     Atomic      Atomic             Coordinates (Angstroms)
 Number     Number       Type             X           Y           Z
 ---------------------------------------------------------------------
      1          6           0       -2.401987    2.259591    0.014203
      2          6           0       -1.729857    1.552985    1.016935
      3          6           0       -1.785158    0.156708    1.060499
      4          6           0       -2.525236   -0.503853    0.081094
      5          6           0       -3.205715    0.171867   -0.930657
      6          6           0       -3.136476    1.567996   -0.954685
      7          1           0       -2.353614    3.344196   -0.012051
      8          1           0       -1.158677    2.087452    1.770687
      9          1           0       -1.274366   -0.415284    1.825571
     10          1           0       -3.767019   -0.388684   -1.668314
     11          1           0       -3.659461    2.114139   -1.734594
     12          7           0       -2.591159   -1.981951    0.116872
     13          8           0       -3.249987   -2.540463   -0.757569
     14          8           0       -1.982752   -2.553985    1.018679
     15          6           0        3.865668   -0.061161   -0.191209
     16          6           0        3.676699   -1.574043   -0.075178
     17          6           0        4.980562   -2.349123   -0.267496
     18          1           0        4.291992    0.174240   -1.175983
     19          1           0        4.602234    0.267631    0.554957
     20          1           0        2.939680   -1.899683   -0.820415
     21          1           0        3.250598   -1.805853    0.909362
     22          1           0        5.719381   -2.052696    0.484090
     23          1           0        5.406697   -2.147060   -1.255514
     24          1           0        4.822470   -3.428615   -0.180523
     25          6           0        2.571121    0.727387   -0.001296
     26          6           0        2.760091    2.240270   -0.117327
     27          6           0        1.456227    3.015350    0.074991
     28          1           0        1.834556    0.398596   -0.747461
     29          1           0        2.144797    0.491987    0.983477
     30          1           0        3.186192    2.472080   -1.101866
     31          1           0        3.497109    2.565910    0.627910
     32          1           0        1.030093    2.813287    1.063009
     33          1           0        0.717410    2.718923   -0.676595
     34          1           0        1.614320    4.094841   -0.011982
 ---------------------------------------------------------------------

 SCF Done:  E(RHF) =  -669.534553300     A.U. after   15 cycles
 E2 =    -0.2092655971D+01 EUMP2 =    -0.67162720927123D+03

 The electronic state is 1-A.
 Alpha  occ. eigenvalues --  -20.60746 -20.60740 -15.85798 -11.31161 -11.27717
 Alpha  occ. eigenvalues --  -11.27699 -11.27438 -11.26751 -11.26704 -11.22050
 Alpha  occ. eigenvalues --  -11.21744 -11.21678 -11.21557 -11.21486 -11.20986
 Alpha  occ. eigenvalues --   -1.59821  -1.39375  -1.19329  -1.08736  -1.08647
 Alpha  occ. eigenvalues --   -1.04734  -1.03767  -0.96253  -0.95555  -0.87292
 Alpha  occ. eigenvalues --   -0.86117  -0.82393  -0.79859  -0.78431  -0.77437
 Alpha  occ. eigenvalues --   -0.72017  -0.71144  -0.70424  -0.65302  -0.64977
 Alpha  occ. eigenvalues --   -0.64755  -0.62112  -0.61154  -0.59630  -0.57840
 Alpha  occ. eigenvalues --   -0.55585  -0.55196  -0.53241  -0.52944  -0.52882
 Alpha  occ. eigenvalues --   -0.52452  -0.50189  -0.48777  -0.48772  -0.48137
 Alpha  occ. eigenvalues --   -0.46871  -0.45982  -0.45875  -0.44781  -0.44017
 Alpha  occ. eigenvalues --   -0.37267  -0.36287
 Alpha virt. eigenvalues --    0.05061   0.11296   0.16483   0.20547   0.22773
 Alpha virt. eigenvalues --    0.24134   0.25511   0.26697   0.27134   0.28481
 Alpha virt. eigenvalues --    0.28840   0.29775   0.31327   0.31904   0.32006

 Mulliken charges:
               1
     1  C   -0.172150
     2  C   -0.212485
     3  C   -0.172100
     4  C    0.158301
     5  C   -0.171619
     6  C   -0.219328
     7  H    0.226585
     8  H    0.224710
     9  H    0.275113
    10  H    0.275296
    11  H    0.223280
    12  N    0.488059
    13  O   -0.460704
    14  O   -0.460364
    15  C   -0.298755
    16  C   -0.300190
    17  C   -0.476133
    18  H    0.149910
    19  H    0.149029
    20  H    0.155064
    21  H    0.153628
    22  H    0.154217
    23  H    0.154625
    24  H    0.163061
    25  C   -0.297612
    26  C   -0.299449
    27  C   -0.477627
    28  H    0.152605
    29  H    0.145296
    30  H    0.153847
    31  H    0.152589
    32  H    0.144872
    33  H    0.159584
    34  H    0.158848
 Sum of Mulliken charges =  -0.00000

 Dipole moment (field-independent basis, Debye):
    X=              0.2824    Y=              5.1442    Z=             -0.1797  Tot=              5.1551
 Quadrupole moment (field-independent basis, Debye-Ang):
   XX=            -95.4670   YY=           -101.2845   ZZ=            -90.7886
   XY=            -13.0946   XZ=              3.2600   YZ=              0.3254

 Normal termination of Gaussian 16 at Thu May  6 16:01:49 2021.
