 Gaussian 16, Revision A.03,
 Gaussian 16:  EM64L-G16RevA.03 25-Dec-2016

 -------------
 #p 6-31g* mp2
 -------------

 ------------------------------------------------------
 Input file generated by CHIRIPA (05-May-2021 14:53:18)
 ------------------------------------------------------
 Symbolic Z-matrix:
 Charge =  0 Multiplicity = 1

                         Standard orientation:
 ---------------------------------------------------------------------
 Center     Atomic      Atomic             Coordinates (Angstroms)
 Number     Number       Type             X           Y           Z
 ---------------------------------------------------------------------
      1          6           0        3.393949    0.893200   -0.336032
      2          6           0        3.524218    1.905588    0.802425
      3          6           0        2.889521    3.255879    0.468256
      4          1           0        3.861455    1.305915   -1.240493
      5          1           0        2.330015    0.751161   -0.571119
      6          1           0        4.587524    2.044635    1.036226
      7          1           0        3.056516    1.490335    1.704332
      8          1           0        1.822101    3.137714    0.255526
      9          1           0        3.361808    3.695164   -0.416376
     10          1           0        2.994119    3.964443    1.295816
     11          6           0        4.023663   -0.461571   -0.016999
     12          6           0        3.893394   -1.473959   -1.155456
     13          6           0        4.528091   -2.824250   -0.821287
     14          1           0        5.087596   -0.319532    0.218088
     15          1           0        3.556156   -0.874287    0.887461
     16          1           0        4.361096   -1.058707   -2.057363
     17          1           0        2.830088   -1.613007   -1.389257
     18          1           0        4.055803   -3.263535    0.063345
     19          1           0        5.595510   -2.706086   -0.608557
     20          1           0        4.423492   -3.532814   -1.648848
     21          6           0       -1.110191   -0.869733    1.774929
     22          6           0       -0.775955   -0.081811    0.668590
     23          6           0       -1.758053    0.312554   -0.244925
     24          6           0       -3.070296   -0.100823   -0.020359
     25          6           0       -3.434717   -0.886009    1.072329
     26          6           0       -2.436168   -1.268614    1.972919
     27          1           0       -0.340884   -1.171517    2.479548
     28          1           0        0.252996    0.229442    0.512303
     29          1           0       -1.527017    0.922393   -1.109872
     30          1           0       -4.469063   -1.180727    1.201515
     31          1           0       -2.698646   -1.880539    2.831230
     32          7           0       -4.118707    0.310448   -0.980614
     33          8           0       -5.267503   -0.066868   -0.760306
     34          8           0       -3.771803    1.002332   -1.935387
 ---------------------------------------------------------------------

 SCF Done:  E(RHF) =  -669.535428488     A.U. after   15 cycles
 E2 =    -0.2091451870D+01 EUMP2 =    -0.67162688035802D+03

 The electronic state is 1-A.
 Alpha  occ. eigenvalues --  -20.60761 -20.60756 -15.85815 -11.31189 -11.27762
 Alpha  occ. eigenvalues --  -11.27757 -11.27509 -11.26779 -11.26756 -11.22500
 Alpha  occ. eigenvalues --  -11.22386 -11.22310 -11.22233 -11.21823 -11.21666
 Alpha  occ. eigenvalues --   -1.59836  -1.39390  -1.19364  -1.09308  -1.08757
 Alpha  occ. eigenvalues --   -1.04771  -1.04304  -0.96751  -0.95591  -0.87760
 Alpha  occ. eigenvalues --   -0.86169  -0.82426  -0.80365  -0.79122  -0.77470
 Alpha  occ. eigenvalues --   -0.72033  -0.71160  -0.70475  -0.66052  -0.65017
 Alpha  occ. eigenvalues --   -0.64722  -0.62143  -0.61672  -0.60112  -0.58354
 Alpha  occ. eigenvalues --   -0.56060  -0.55271  -0.53401  -0.53178  -0.53095
 Alpha  occ. eigenvalues --   -0.52859  -0.50694  -0.48798  -0.48787  -0.48667
 Alpha  occ. eigenvalues --   -0.47418  -0.46631  -0.46597  -0.44793  -0.44587
 Alpha  occ. eigenvalues --   -0.37347  -0.36372
 Alpha virt. eigenvalues --    0.05065   0.11261   0.16537   0.18229   0.22983
 Alpha virt. eigenvalues --    0.23506   0.25148   0.26054   0.27144   0.28486
 Alpha virt. eigenvalues --    0.29279   0.30478   0.31058   0.31291   0.31909

 Mulliken charges:
               1
     1  C   -0.302859
     2  C   -0.300975
     3  C   -0.475490
     4  H    0.156399
     5  H    0.141426
     6  H    0.156530
     7  H    0.147254
     8  H    0.151753
     9  H    0.159073
    10  H    0.163835
    11  C   -0.298111
    12  C   -0.300414
    13  C   -0.475846
    14  H    0.153630
    15  H    0.144182
    16  H    0.155149
    17  H    0.151183
    18  H    0.153739
    19  H    0.156732
    20  H    0.163355
    21  C   -0.172487
    22  C   -0.227193
    23  C   -0.173306
    24  C    0.158764
    25  C   -0.171050
    26  C   -0.218406
    27  H    0.225822
    28  H    0.235298
    29  H    0.275606
    30  H    0.275670
    31  H    0.223412
    32  N    0.488113
    33  O   -0.460511
    34  O   -0.460278
 Sum of Mulliken charges =  -0.00000

 Dipole moment (field-independent basis, Debye):
    X=              3.9016    Y=             -1.4187    Z=              3.3348  Tot=              5.3251
 Quadrupole moment (field-independent basis, Debye-Ang):
   XX=           -113.8036   YY=            -94.4516   ZZ=            -93.7602
   XY=              6.9597   XZ=            -13.2923   YZ=             -1.8761

 Normal termination of Gaussian 16 at Wed May  5 23:41:43 2021.
