 Gaussian 16, Revision A.03,
 Gaussian 16:  EM64L-G16RevA.03 25-Dec-2016

 -------------
 #p 6-31g* mp2
 -------------

 ------------------------------------------------------
 Input file generated by CHIRIPA (05-May-2021 14:57:24)
 ------------------------------------------------------
 Symbolic Z-matrix:
 Charge =  0 Multiplicity = 1

                         Standard orientation:
 ---------------------------------------------------------------------
 Center     Atomic      Atomic             Coordinates (Angstroms)
 Number     Number       Type             X           Y           Z
 ---------------------------------------------------------------------
      1          6           0        2.686226    1.686518   -0.909730
      2          6           0        2.284501    0.358472   -0.732444
      3          6           0        3.191394   -0.602775   -0.276267
      4          6           0        4.498069   -0.199345   -0.005831
      5          6           0        4.928616    1.116006   -0.172481
      6          6           0        4.004677    2.060388   -0.629676
      7          1           0        1.975109    2.426688   -1.264495
      8          1           0        1.261216    0.065259   -0.949143
      9          1           0        2.907126   -1.637800   -0.130208
     10          1           0        5.955432    1.378147    0.051905
     11          1           0        4.319465    3.091043   -0.766435
     12          7           0        5.467179   -1.208047    0.477642
     13          8           0        6.612659   -0.827172    0.708830
     14          8           0        5.062938   -2.360442    0.616246
     15          6           0       -2.303752    1.478598    0.455474
     16          6           0       -3.495594    1.761502    1.130750
     17          6           0       -4.629150    0.967350    0.933469
     18          6           0       -4.535046   -0.106646    0.049747
     19          6           0       -3.361985   -0.414089   -0.637784
     20          6           0       -2.240862    0.393618   -0.425085
     21          1           0       -1.428007    2.100780    0.614714
     22          1           0       -3.547344    2.603466    1.815196
     23          1           0       -5.564542    1.163797    1.443243
     24          1           0       -3.341045   -1.260217   -1.313837
     25          1           0       -1.316593    0.171546   -0.950876
     26          7           0       -5.728509   -0.954556   -0.167267
     27          8           0       -5.619729   -1.894992   -0.951092
     28          8           0       -6.750128   -0.662654    0.450573
 ---------------------------------------------------------------------

 SCF Done:  E(RHF) =  -868.336282312     A.U. after   16 cycles
 E2 =    -0.2599621646D+01 EUMP2 =    -0.87093590395827D+03

 The electronic state is 1-A.
 Alpha  occ. eigenvalues --  -20.61302 -20.61297 -20.61237 -20.61231 -15.86364
 Alpha  occ. eigenvalues --  -15.86298 -11.31889 -11.31804 -11.28518 -11.28461
 Alpha  occ. eigenvalues --  -11.28444 -11.28376 -11.28337 -11.28243 -11.27672
 Alpha  occ. eigenvalues --  -11.27592 -11.27512 -11.27415  -1.60375  -1.60310
 Alpha  occ. eigenvalues --   -1.39924  -1.39859  -1.20099  -1.20013  -1.09479
 Alpha  occ. eigenvalues --   -1.09393  -1.05534  -1.05446  -0.96276  -0.96194
 Alpha  occ. eigenvalues --   -0.86959  -0.86833  -0.83111  -0.83026  -0.78133
 Alpha  occ. eigenvalues --   -0.78027  -0.72579  -0.72514  -0.71701  -0.71635
 Alpha  occ. eigenvalues --   -0.71234  -0.71135  -0.65786  -0.65747  -0.65668
 Alpha  occ. eigenvalues --   -0.65331  -0.62959  -0.62707  -0.56090  -0.55960
 Alpha  occ. eigenvalues --   -0.53846  -0.53780  -0.53744  -0.53434  -0.49355
 Alpha  occ. eigenvalues --   -0.49322  -0.49283  -0.49258  -0.45293  -0.45233
 Alpha  occ. eigenvalues --   -0.38111  -0.38011  -0.37130  -0.37042
 Alpha virt. eigenvalues --    0.04436   0.04516   0.10471   0.10610   0.15872
 Alpha virt. eigenvalues --    0.15953   0.17378   0.22039   0.24194   0.26557
 Alpha virt. eigenvalues --    0.27798   0.29009   0.29207   0.31478   0.31624

 Mulliken charges:
               1
     1  C   -0.173514
     2  C   -0.222365
     3  C   -0.170726
     4  C    0.159389
     5  C   -0.169750
     6  C   -0.218138
     7  H    0.222678
     8  H    0.219494
     9  H    0.278355
    10  H    0.278094
    11  H    0.225494
    12  N    0.487927
    13  O   -0.458501
    14  O   -0.458466
    15  C   -0.171257
    16  C   -0.218129
    17  C   -0.169589
    18  C    0.159359
    19  C   -0.170499
    20  C   -0.221659
    21  H    0.222473
    22  H    0.225551
    23  H    0.277998
    24  H    0.277564
    25  H    0.217755
    26  N    0.487958
    27  O   -0.458996
    28  O   -0.458501
 Sum of Mulliken charges =  -0.00000

 Dipole moment (field-independent basis, Debye):
    X=              0.8068    Y=              6.5191    Z=             -0.8383  Tot=              6.6221
 Quadrupole moment (field-independent basis, Debye-Ang):
   XX=           -168.4052   YY=           -103.4327   ZZ=           -104.0072
   XY=              3.8781   XZ=            -12.8139   YZ=              2.7730

 Normal termination of Gaussian 16 at Thu May  6 14:39:06 2021.
