 Gaussian 16, Revision A.03,
 Gaussian 16:  EM64L-G16RevA.03 25-Dec-2016

 -------------
 #p 6-31g* mp2
 -------------

 ------------------------------------------------------
 Input file generated by CHIRIPA (05-May-2021 14:51:12)
 ------------------------------------------------------
 Symbolic Z-matrix:
 Charge =  0 Multiplicity = 1

                         Standard orientation:
 ---------------------------------------------------------------------
 Center     Atomic      Atomic             Coordinates (Angstroms)
 Number     Number       Type             X           Y           Z
 ---------------------------------------------------------------------
      1          6           0        2.719139   -1.075080   -0.271667
      2          6           0        1.565200   -1.557055    0.608168
      3          6           0        0.822889   -2.751310    0.007732
      4          1           0        2.328531   -0.805412   -1.262449
      5          1           0        3.422814   -1.904375   -0.428214
      6          1           0        0.864620   -0.726710    0.764149
      7          1           0        1.958572   -1.825425    1.597032
      8          1           0        1.503594   -3.597278   -0.132189
      9          1           0        0.403427   -2.492320   -0.969804
     10          1           0        0.002024   -3.079486    0.652978
     11          6           0        3.470901    0.118303    0.315207
     12          6           0        4.624840    0.600278   -0.564629
     13          6           0        5.367151    1.794533    0.035807
     14          1           0        2.767226    0.947598    0.471753
     15          1           0        3.861509   -0.151364    1.305989
     16          1           0        4.231468    0.868648   -1.553493
     17          1           0        5.325420   -0.230067   -0.720610
     18          1           0        5.786613    1.535544    1.013344
     19          1           0        4.686446    2.640502    0.175729
     20          1           0        6.188016    2.122709   -0.609438
     21          6           0       -2.754912    1.107498    0.246519
     22          6           0       -3.328973    2.400998   -0.332529
     23          6           0       -2.638278    3.650902    0.213799
     24          1           0       -2.847361    1.130475    1.340992
     25          1           0       -1.679789    1.060062    0.024580
     26          1           0       -4.402971    2.445319   -0.110763
     27          1           0       -3.235320    2.374857   -1.425763
     28          1           0       -1.568916    3.633514   -0.020219
     29          1           0       -2.743202    3.704377    1.302253
     30          1           0       -3.064242    4.564107   -0.213369
     31          6           0       -3.435129   -0.150722   -0.290058
     32          6           0       -2.861066   -1.444221    0.288989
     33          6           0       -3.551762   -2.694126   -0.257338
     34          1           0       -4.510251   -0.103285   -0.068120
     35          1           0       -3.342678   -0.173697   -1.384531
     36          1           0       -2.954720   -1.418079    1.382223
     37          1           0       -1.787068   -1.488542    0.067224
     38          1           0       -3.446838   -2.747600   -1.345792
     39          1           0       -4.621124   -2.676738   -0.023321
     40          1           0       -3.125798   -3.607330    0.169829
 ---------------------------------------------------------------------

 SCF Done:  E(RHF) =  -470.732873632     A.U. after   11 cycles
 E2 =    -0.1583408033D+01 EUMP2 =    -0.47231628166458D+03

 The electronic state is 1-A.
 Alpha  occ. eigenvalues --  -11.21637 -11.21622 -11.21618 -11.21487 -11.21435
 Alpha  occ. eigenvalues --  -11.21408 -11.21375 -11.21334 -11.21092 -11.21089
 Alpha  occ. eigenvalues --  -11.21085 -11.21032  -1.08470  -1.08409  -1.03593
 Alpha  occ. eigenvalues --   -1.03482  -0.96036  -0.95946  -0.87038  -0.86975
 Alpha  occ. eigenvalues --   -0.79651  -0.79548  -0.78281  -0.78228  -0.65198
 Alpha  occ. eigenvalues --   -0.64968  -0.61146  -0.60768  -0.59523  -0.59200
 Alpha  occ. eigenvalues --   -0.57708  -0.57478  -0.55375  -0.55188  -0.52734
 Alpha  occ. eigenvalues --   -0.52623  -0.52430  -0.52389  -0.50024  -0.49849
 Alpha  occ. eigenvalues --   -0.47952  -0.47858  -0.46707  -0.46526  -0.45883
 Alpha  occ. eigenvalues --   -0.45782  -0.45734  -0.45583  -0.43808  -0.43759
 Alpha virt. eigenvalues --    0.20738   0.23239   0.23465   0.24435   0.25820
 Alpha virt. eigenvalues --    0.26861   0.26948   0.27131   0.28068   0.29195
 Alpha virt. eigenvalues --    0.30140   0.31454   0.31600   0.31872   0.32313

 Mulliken charges:
               1
     1  C   -0.298115
     2  C   -0.303667
     3  C   -0.480137
     4  H    0.149242
     5  H    0.149817
     6  H    0.154533
     7  H    0.152574
     8  H    0.156610
     9  H    0.154490
    10  H    0.163875
    11  C   -0.298271
    12  C   -0.299670
    13  C   -0.475727
    14  H    0.149406
    15  H    0.149873
    16  H    0.151821
    17  H    0.152007
    18  H    0.155267
    19  H    0.155246
    20  H    0.160313
    21  C   -0.299326
    22  C   -0.299615
    23  C   -0.475629
    24  H    0.149845
    25  H    0.149243
    26  H    0.152235
    27  H    0.151848
    28  H    0.154701
    29  H    0.155322
    30  H    0.160357
    31  C   -0.297673
    32  C   -0.310132
    33  C   -0.475544
    34  H    0.149321
    35  H    0.149039
    36  H    0.150741
    37  H    0.165755
    38  H    0.154849
    39  H    0.154986
    40  H    0.160190
 Sum of Mulliken charges =  -0.00000

 Dipole moment (field-independent basis, Debye):
    X=              0.0266    Y=             -0.0186    Z=              0.0102  Tot=              0.0340
 Quadrupole moment (field-independent basis, Debye-Ang):
   XX=            -84.5694   YY=            -86.0939   ZZ=            -84.1479
   XY=             -1.4146   XZ=             -0.4997   YZ=             -0.8617

 Normal termination of Gaussian 16 at Wed May  5 16:47:49 2021.
