 Gaussian 16, Revision A.03,
 Gaussian 16:  EM64L-G16RevA.03 25-Dec-2016

 -------------
 #p 6-31g* mp2
 -------------

 ------------------------------------------------------
 Input file generated by CHIRIPA (05-May-2021 14:53:15)
 ------------------------------------------------------
 Symbolic Z-matrix:
 Charge =  0 Multiplicity = 1

                         Standard orientation:
 ---------------------------------------------------------------------
 Center     Atomic      Atomic             Coordinates (Angstroms)
 Number     Number       Type             X           Y           Z
 ---------------------------------------------------------------------
      1          6           0       -2.705852    1.476928    0.170680
      2          6           0       -1.387412    2.088137   -0.304847
      3          6           0       -1.123650    3.467845    0.299000
      4          1           0       -3.530940    2.155162   -0.086563
      5          1           0       -2.692966    1.402067    1.266866
      6          1           0       -1.402224    2.160545   -1.399905
      7          1           0       -0.565387    1.408279   -0.046613
      8          1           0       -1.082121    3.408711    1.391419
      9          1           0       -1.923712    4.165251    0.030437
     10          1           0       -0.176063    3.886253   -0.054376
     11          6           0       -2.983596    0.097592   -0.424314
     12          6           0       -4.302036   -0.513617    0.051213
     13          6           0       -4.565798   -1.893324   -0.552634
     14          1           0       -2.996482    0.172453   -1.520500
     15          1           0       -2.158509   -0.580642   -0.167071
     16          1           0       -5.124061    0.166241   -0.207021
     17          1           0       -4.287225   -0.586025    1.146272
     18          1           0       -3.765736   -2.590731   -0.284071
     19          1           0       -4.607327   -1.834191   -1.645053
     20          1           0       -5.513385   -2.311733   -0.199258
     21          6           0        0.126890   -1.757019    0.917912
     22          6           0        0.974905   -1.115135    1.826415
     23          6           0        2.138660   -0.479165    1.383964
     24          6           0        2.425031   -0.504646    0.019914
     25          6           0        1.600122   -1.135719   -0.909904
     26          6           0        0.441651   -1.765249   -0.444945
     27          1           0       -0.775090   -2.248554    1.270360
     28          1           0        0.732976   -1.107145    2.885401
     29          1           0        2.812802    0.025218    2.065543
     30          1           0        1.867828   -1.126841   -1.959509
     31          1           0       -0.215080   -2.262963   -1.152781
     32          7           0        3.654249    0.165218   -0.460403
     33          8           0        3.884136    0.128550   -1.667236
     34          8           0        4.364548    0.714243    0.379051
 ---------------------------------------------------------------------

 SCF Done:  E(RHF) =  -669.534332038     A.U. after   15 cycles
 E2 =    -0.2094733399D+01 EUMP2 =    -0.67162906543736D+03

 The electronic state is 1-A.
 Alpha  occ. eigenvalues --  -20.60839 -20.60833 -15.85894 -11.31304 -11.27878
 Alpha  occ. eigenvalues --  -11.27846 -11.27611 -11.26899 -11.26861 -11.22274
 Alpha  occ. eigenvalues --  -11.21915 -11.21897 -11.21782 -11.21718 -11.21176
 Alpha  occ. eigenvalues --   -1.59913  -1.39465  -1.19487  -1.08971  -1.08815
 Alpha  occ. eigenvalues --   -1.04882  -1.03981  -0.96449  -0.95700  -0.87463
 Alpha  occ. eigenvalues --   -0.86284  -0.82522  -0.80060  -0.78710  -0.77556
 Alpha  occ. eigenvalues --   -0.72111  -0.71237  -0.70607  -0.65610  -0.65119
 Alpha  occ. eigenvalues --   -0.64858  -0.62222  -0.61387  -0.59827  -0.58042
 Alpha  occ. eigenvalues --   -0.55784  -0.55382  -0.53369  -0.53043  -0.52968
 Alpha  occ. eigenvalues --   -0.52865  -0.50417  -0.48874  -0.48863  -0.48373
 Alpha  occ. eigenvalues --   -0.47121  -0.46218  -0.46099  -0.44861  -0.44220
 Alpha  occ. eigenvalues --   -0.37369  -0.36450
 Alpha virt. eigenvalues --    0.04936   0.11082   0.16350   0.19612   0.22912
 Alpha virt. eigenvalues --    0.23774   0.25858   0.26426   0.27625   0.27786
 Alpha virt. eigenvalues --    0.28812   0.30370   0.31148   0.31639   0.32053

 Mulliken charges:
               1
     1  C   -0.296536
     2  C   -0.305057
     3  C   -0.476041
     4  H    0.150915
     5  H    0.146431
     6  H    0.151784
     7  H    0.158872
     8  H    0.153216
     9  H    0.155024
    10  H    0.164335
    11  C   -0.305420
    12  C   -0.299856
    13  C   -0.474445
    14  H    0.149385
    15  H    0.150158
    16  H    0.155586
    17  H    0.149427
    18  H    0.144420
    19  H    0.157570
    20  H    0.163653
    21  C   -0.172613
    22  C   -0.219350
    23  C   -0.171613
    24  C    0.158989
    25  C   -0.171608
    26  C   -0.215216
    27  H    0.227229
    28  H    0.224136
    29  H    0.276269
    30  H    0.276335
    31  H    0.225979
    32  N    0.488049
    33  O   -0.459904
    34  O   -0.460101
 Sum of Mulliken charges =  -0.00000

 Dipole moment (field-independent basis, Debye):
    X=             -4.2500    Y=             -2.3219    Z=              1.6619  Tot=              5.1201
 Quadrupole moment (field-independent basis, Debye-Ang):
   XX=           -116.0904   YY=            -93.5616   ZZ=            -89.8207
   XY=             -3.8362   XZ=              5.5992   YZ=             -0.1957

 Normal termination of Gaussian 16 at Thu May  6 13:50:49 2021.
