 Gaussian 16, Revision A.03,
 Gaussian 16:  EM64L-G16RevA.03 25-Dec-2016

 -------------
 #p 6-31g* mp2
 -------------

 ------------------------------------------------------
 Input file generated by CHIRIPA (05-May-2021 14:53:13)
 ------------------------------------------------------
 Symbolic Z-matrix:
 Charge =  0 Multiplicity = 1

                         Standard orientation:
 ---------------------------------------------------------------------
 Center     Atomic      Atomic             Coordinates (Angstroms)
 Number     Number       Type             X           Y           Z
 ---------------------------------------------------------------------
      1          6           0        5.043472    0.281247    0.136607
      2          6           0        6.341008   -0.481230   -0.133604
      3          6           0        7.576579    0.417993   -0.083042
      4          1           0        4.940628    1.089854   -0.599955
      5          1           0        5.107697    0.762605    1.122287
      6          1           0        6.273807   -0.962147   -1.117890
      7          1           0        6.440680   -1.288235    0.603569
      8          1           0        7.671413    0.887361    0.901490
      9          1           0        7.503592    1.215301   -0.829750
     10          1           0        8.492937   -0.147477   -0.278985
     11          6           0        3.799460   -0.604157    0.089480
     12          6           0        2.501924    0.158320    0.359692
     13          6           0        1.266353   -0.740903    0.309129
     14          1           0        3.735236   -1.085515   -0.896200
     15          1           0        3.902304   -1.412763    0.826043
     16          1           0        2.402252    0.965325   -0.377481
     17          1           0        2.569125    0.639237    1.343978
     18          1           0        1.339341   -1.538211    1.055838
     19          1           0        1.171520   -1.210270   -0.675402
     20          1           0        0.349996   -0.175433    0.505072
     21          6           0       -2.819010    2.567229   -0.146947
     22          6           0       -1.911729    1.597081   -0.585325
     23          6           0       -2.252979    0.241606   -0.557344
     24          6           0       -3.515686   -0.109859   -0.082647
     25          6           0       -4.441509    0.833197    0.360957
     26          6           0       -4.078784    2.182867    0.323965
     27          1           0       -2.545577    3.617939   -0.172184
     28          1           0       -0.932672    1.892669   -0.951552
     29          1           0       -1.569896   -0.530206   -0.890690
     30          1           0       -5.410111    0.507859    0.720655
     31          1           0       -4.785414    2.934121    0.665048
     32          7           0       -3.888319   -1.541767   -0.048255
     33          8           0       -5.006986   -1.825506    0.374492
     34          8           0       -3.054668   -2.353245   -0.444696
 ---------------------------------------------------------------------

 SCF Done:  E(RHF) =  -669.534737385     A.U. after   15 cycles
 E2 =    -0.2092127377D+01 EUMP2 =    -0.67162686476192D+03

 The electronic state is 1-A.
 Alpha  occ. eigenvalues --  -20.60728 -20.60721 -15.85781 -11.31149 -11.27747
 Alpha  occ. eigenvalues --  -11.27676 -11.27493 -11.26758 -11.26739 -11.22098
 Alpha  occ. eigenvalues --  -11.21817 -11.21719 -11.21649 -11.21505 -11.21265
 Alpha  occ. eigenvalues --   -1.59803  -1.39355  -1.19344  -1.08762  -1.08733
 Alpha  occ. eigenvalues --   -1.04760  -1.03873  -0.96329  -0.95562  -0.87352
 Alpha  occ. eigenvalues --   -0.86137  -0.82400  -0.79951  -0.78561  -0.77439
 Alpha  occ. eigenvalues --   -0.72001  -0.71127  -0.70456  -0.65392  -0.65000
 Alpha  occ. eigenvalues --   -0.64748  -0.62193  -0.61254  -0.59666  -0.57928
 Alpha  occ. eigenvalues --   -0.55606  -0.55239  -0.53354  -0.52972  -0.52708
 Alpha  occ. eigenvalues --   -0.52612  -0.50246  -0.48761  -0.48752  -0.48251
 Alpha  occ. eigenvalues --   -0.46974  -0.46104  -0.46021  -0.44761  -0.44125
 Alpha  occ. eigenvalues --   -0.37330  -0.36303
 Alpha virt. eigenvalues --    0.05053   0.11283   0.16433   0.20617   0.22700
 Alpha virt. eigenvalues --    0.23953   0.26060   0.26547   0.26871   0.28092
 Alpha virt. eigenvalues --    0.29338   0.29717   0.31226   0.31730   0.32123

 Mulliken charges:
               1
     1  C   -0.298377
     2  C   -0.299998
     3  C   -0.475853
     4  H    0.148254
     5  H    0.149716
     6  H    0.152632
     7  H    0.153228
     8  H    0.155288
     9  H    0.154721
    10  H    0.161313
    11  C   -0.298767
    12  C   -0.299343
    13  C   -0.485851
    14  H    0.150788
    15  H    0.152636
    16  H    0.144994
    17  H    0.153545
    18  H    0.164045
    19  H    0.155098
    20  H    0.160045
    21  C   -0.170799
    22  C   -0.221313
    23  C   -0.172926
    24  C    0.156564
    25  C   -0.170800
    26  C   -0.218827
    27  H    0.225631
    28  H    0.225147
    29  H    0.282956
    30  H    0.275589
    31  H    0.223374
    32  N    0.487962
    33  O   -0.460783
    34  O   -0.459889
 Sum of Mulliken charges =  -0.00000

 Dipole moment (field-independent basis, Debye):
    X=              1.3874    Y=              4.9754    Z=             -0.0791  Tot=              5.1658
 Quadrupole moment (field-independent basis, Debye-Ang):
   XX=           -100.7483   YY=            -96.3334   ZZ=            -93.7651
   XY=            -20.0502   XZ=             -1.4228   YZ=             -0.1245

 Normal termination of Gaussian 16 at Thu May  6 08:54:27 2021.
