 Gaussian 16, Revision A.03,
 Gaussian 16:  EM64L-G16RevA.03 25-Dec-2016

 -------------
 #p 6-31g* mp2
 -------------

 ------------------------------------------------------
 Input file generated by CHIRIPA (05-May-2021 14:53:11)
 ------------------------------------------------------
 Symbolic Z-matrix:
 Charge =  0 Multiplicity = 1

                         Standard orientation:
 ---------------------------------------------------------------------
 Center     Atomic      Atomic             Coordinates (Angstroms)
 Number     Number       Type             X           Y           Z
 ---------------------------------------------------------------------
      1          6           0        3.650636   -0.119600   -0.068656
      2          6           0        4.691197    1.000212   -0.033452
      3          6           0        5.587022    1.013924   -1.272445
      4          1           0        4.164464   -1.086138   -0.162084
      5          1           0        3.031002   -0.006696   -0.969046
      6          1           0        5.307793    0.886033    0.867319
      7          1           0        4.174840    1.964183    0.060095
      8          1           0        4.988675    1.151149   -2.178950
      9          1           0        6.128066    0.066873   -1.367139
     10          1           0        6.323475    1.822245   -1.226454
     11          6           0        2.747523   -0.146334    1.163172
     12          6           0        1.706962   -1.266146    1.127968
     13          6           0        0.811136   -1.279858    2.366960
     14          1           0        3.367157   -0.259238    2.063561
     15          1           0        2.233694    0.820204    1.256599
     16          1           0        2.223319   -2.230117    1.034420
     17          1           0        1.090366   -1.151967    0.227197
     18          1           0        0.270093   -0.332807    2.461655
     19          1           0        1.409483   -1.417082    3.273465
     20          1           0        0.074684   -2.088179    2.320969
     21          6           0       -1.456884   -1.930553   -1.495447
     22          6           0       -0.883158   -0.669018   -1.684887
     23          6           0       -1.452183    0.465139   -1.097992
     24          6           0       -2.600055    0.300562   -0.324305
     25          6           0       -3.195141   -0.942884   -0.116929
     26          6           0       -2.609014   -2.063226   -0.713451
     27          1           0       -1.008209   -2.806228   -1.955100
     28          1           0        0.011598   -0.562987   -2.291693
     29          1           0       -1.028730    1.453647   -1.228213
     30          1           0       -4.087100   -1.017014    0.493259
     31          1           0       -3.056748   -3.041707   -0.564606
     32          7           0       -3.211509    1.493931    0.302111
     33          8           0       -4.222769    1.322287    0.979260
     34          8           0       -2.667931    2.578340    0.104084
 ---------------------------------------------------------------------

 SCF Done:  E(RHF) =  -669.535004841     A.U. after   15 cycles
 E2 =    -0.2093273667D+01 EUMP2 =    -0.67162827850783D+03

 The electronic state is 1-A.
 Alpha  occ. eigenvalues --  -20.60840 -20.60834 -15.85895 -11.31290 -11.27862
 Alpha  occ. eigenvalues --  -11.27850 -11.27598 -11.26876 -11.26866 -11.21912
 Alpha  occ. eigenvalues --  -11.21806 -11.21728 -11.21606 -11.21392 -11.21183
 Alpha  occ. eigenvalues --   -1.59915  -1.39467  -1.19469  -1.08864  -1.08719
 Alpha  occ. eigenvalues --   -1.04882  -1.03772  -0.96233  -0.95682  -0.87246
 Alpha  occ. eigenvalues --   -0.86273  -0.82516  -0.79851  -0.78557  -0.77557
 Alpha  occ. eigenvalues --   -0.72112  -0.71239  -0.70560  -0.65391  -0.65119
 Alpha  occ. eigenvalues --   -0.64865  -0.62221  -0.61197  -0.59611  -0.57855
 Alpha  occ. eigenvalues --   -0.55548  -0.55363  -0.53216  -0.52968  -0.52868
 Alpha  occ. eigenvalues --   -0.52653  -0.50176  -0.48874  -0.48865  -0.48165
 Alpha  occ. eigenvalues --   -0.46896  -0.46091  -0.46026  -0.44866  -0.44050
 Alpha  occ. eigenvalues --   -0.37394  -0.36401
 Alpha virt. eigenvalues --    0.04970   0.11093   0.16406   0.20496   0.22795
 Alpha virt. eigenvalues --    0.24029   0.25305   0.26764   0.27512   0.28304
 Alpha virt. eigenvalues --    0.28787   0.30924   0.31236   0.31650   0.31753

 Mulliken charges:
               1
     1  C   -0.296395
     2  C   -0.300120
     3  C   -0.475570
     4  H    0.149503
     5  H    0.140020
     6  H    0.154002
     7  H    0.153777
     8  H    0.152847
     9  H    0.155027
    10  H    0.162246
    11  C   -0.298814
    12  C   -0.307404
    13  C   -0.474539
    14  H    0.151167
    15  H    0.151819
    16  H    0.147779
    17  H    0.156580
    18  H    0.158153
    19  H    0.155492
    20  H    0.157833
    21  C   -0.168395
    22  C   -0.221844
    23  C   -0.170246
    24  C    0.159290
    25  C   -0.170151
    26  C   -0.218309
    27  H    0.226895
    28  H    0.225679
    29  H    0.275826
    30  H    0.276159
    31  H    0.224067
    32  N    0.487924
    33  O   -0.459866
    34  O   -0.460431
 Sum of Mulliken charges =  -0.00000

 Dipole moment (field-independent basis, Debye):
    X=              2.0745    Y=             -4.1826    Z=             -2.1936  Tot=              5.1585
 Quadrupole moment (field-independent basis, Debye-Ang):
   XX=           -103.7222   YY=            -95.7100   ZZ=            -93.6322
   XY=             13.7988   XZ=              4.4704   YZ=             -0.6173

 Normal termination of Gaussian 16 at Wed May  5 20:04:34 2021.
