 Gaussian 16, Revision A.03,
 Gaussian 16:  EM64L-G16RevA.03 25-Dec-2016

 -------------
 #p 6-31g* mp2
 -------------

 ------------------------------------------------------
 Input file generated by CHIRIPA (05-May-2021 14:57:23)
 ------------------------------------------------------
 Symbolic Z-matrix:
 Charge =  0 Multiplicity = 1

                         Standard orientation:
 ---------------------------------------------------------------------
 Center     Atomic      Atomic             Coordinates (Angstroms)
 Number     Number       Type             X           Y           Z
 ---------------------------------------------------------------------
      1          6           0       -2.988508   -2.389282    0.619626
      2          6           0       -3.716237   -1.561960    1.481293
      3          6           0       -3.847947   -0.196506    1.211599
      4          6           0       -3.236151    0.310471    0.066186
      5          6           0       -2.504607   -0.488034   -0.811608
      6          6           0       -2.386078   -1.850628   -0.522062
      7          1           0       -2.891312   -3.448888    0.836842
      8          1           0       -4.185163   -1.977539    2.368676
      9          1           0       -4.405603    0.466723    1.861649
     10          1           0       -2.048442   -0.044823   -1.688475
     11          1           0       -1.820314   -2.490753   -1.193028
     12          7           0       -3.368610    1.754502   -0.229836
     13          8           0       -2.820090    2.176715   -1.245463
     14          8           0       -4.018442    2.436778    0.559376
     15          6           0        5.006923    1.294294    1.018355
     16          6           0        3.962452    1.932960    0.341816
     17          6           0        2.963776    1.185738   -0.289733
     18          6           0        3.041019   -0.204612   -0.224539
     19          6           0        4.068887   -0.870157    0.441663
     20          6           0        5.056720   -0.102763    1.066035
     21          1           0        5.778508    1.882589    1.506169
     22          1           0        3.921224    3.017787    0.303150
     23          1           0        2.143918    1.654384   -0.820415
     24          1           0        4.083058   -1.953099    0.462968
     25          1           0        5.866690   -0.601462    1.590718
     26          7           0        1.989504   -1.006339   -0.889334
     27          8           0        2.080289   -2.229946   -0.817344
     28          8           0        1.094453   -0.395946   -1.469799
 ---------------------------------------------------------------------

 SCF Done:  E(RHF) =  -868.340531697     A.U. after   16 cycles
 E2 =    -0.2598724859D+01 EUMP2 =    -0.87093925655547D+03

 The electronic state is 1-A.
 Alpha  occ. eigenvalues --  -20.61333 -20.61313 -20.60031 -20.60018 -15.86344
 Alpha  occ. eigenvalues --  -15.85068 -11.31429 -11.30167 -11.27995 -11.27919
 Alpha  occ. eigenvalues --  -11.27673 -11.26949 -11.26889 -11.26810 -11.26552
 Alpha  occ. eigenvalues --  -11.26448 -11.25800 -11.25508  -1.60386  -1.59110
 Alpha  occ. eigenvalues --   -1.39945  -1.38667  -1.19580  -1.18330  -1.09033
 Alpha  occ. eigenvalues --   -1.07789  -1.04937  -1.03660  -0.95913  -0.94657
 Alpha  occ. eigenvalues --   -0.86350  -0.85087  -0.82754  -0.81476  -0.77824
 Alpha  occ. eigenvalues --   -0.76544  -0.72595  -0.71679  -0.71295  -0.70686
 Alpha  occ. eigenvalues --   -0.70431  -0.69443  -0.65237  -0.64939  -0.63972
 Alpha  occ. eigenvalues --   -0.63649  -0.62280  -0.60985  -0.55460  -0.54225
 Alpha  occ. eigenvalues --   -0.53288  -0.53023  -0.52056  -0.51729  -0.49345
 Alpha  occ. eigenvalues --   -0.49331  -0.48058  -0.48029  -0.45407  -0.44130
 Alpha  occ. eigenvalues --   -0.37554  -0.36528  -0.36349  -0.35232
 Alpha virt. eigenvalues --    0.04664   0.05955   0.11129   0.12387   0.16223
 Alpha virt. eigenvalues --    0.17485   0.21292   0.22547   0.27244   0.28078
 Alpha virt. eigenvalues --    0.28618   0.29362   0.30899   0.32045   0.32415

 Mulliken charges:
               1
     1  C   -0.172418
     2  C   -0.220038
     3  C   -0.173521
     4  C    0.154059
     5  C   -0.165523
     6  C   -0.218380
     7  H    0.223442
     8  H    0.218620
     9  H    0.270949
    10  H    0.284563
    11  H    0.235314
    12  N    0.487888
    13  O   -0.461273
    14  O   -0.465541
    15  C   -0.169953
    16  C   -0.218841
    17  C   -0.170644
    18  C    0.157358
    19  C   -0.170934
    20  C   -0.218844
    21  H    0.226928
    22  H    0.226818
    23  H    0.280602
    24  H    0.274261
    25  H    0.223695
    26  N    0.490780
    27  O   -0.464039
    28  O   -0.465327
 Sum of Mulliken charges =  -0.00000

 Dipole moment (field-independent basis, Debye):
    X=              4.5611    Y=             -2.2738    Z=              3.2018  Tot=              6.0187
 Quadrupole moment (field-independent basis, Debye-Ang):
   XX=            -84.7167   YY=           -106.3531   ZZ=           -102.9647
   XY=             22.7586   XZ=              1.9940   YZ=             -1.8221

 Normal termination of Gaussian 16 at Thu May  6 09:45:32 2021.
