 Gaussian 16, Revision A.03,
 Gaussian 16:  EM64L-G16RevA.03 25-Dec-2016

 -------------
 #p 6-31g* mp2
 -------------

 ------------------------------------------------------
 Input file generated by CHIRIPA (05-May-2021 14:57:22)
 ------------------------------------------------------
 Symbolic Z-matrix:
 Charge =  0 Multiplicity = 1

                         Standard orientation:
 ---------------------------------------------------------------------
 Center     Atomic      Atomic             Coordinates (Angstroms)
 Number     Number       Type             X           Y           Z
 ---------------------------------------------------------------------
      1          6           0       -3.895597    2.617038    0.217581
      2          6           0       -4.997057    1.755072    0.235564
      3          6           0       -4.826347    0.380765    0.044031
      4          6           0       -3.534324   -0.099642   -0.163758
      5          6           0       -2.416997    0.733618   -0.187147
      6          6           0       -2.611347    2.104464    0.006655
      7          1           0       -4.037391    3.683288    0.367250
      8          1           0       -5.995578    2.150343    0.399154
      9          1           0       -5.661487   -0.309074    0.053124
     10          1           0       -1.433797    0.310079   -0.352525
     11          1           0       -1.754098    2.771516   -0.007817
     12          7           0       -3.341088   -1.552727   -0.367727
     13          8           0       -2.192535   -1.951049   -0.548844
     14          8           0       -4.341841   -2.265819   -0.342618
     15          6           0        1.622988   -1.284189    1.261705
     16          6           0        1.724946   -1.293368   -0.133301
     17          6           0        2.797303   -0.662541   -0.770996
     18          6           0        3.754031   -0.029213    0.020746
     19          6           0        3.680282   -0.002736    1.412562
     20          6           0        2.599261   -0.640039    2.028831
     21          1           0        0.786591   -1.776747    1.748760
     22          1           0        0.968235   -1.792843   -0.731599
     23          1           0        2.900792   -0.654354   -1.849254
     24          1           0        4.450158    0.503404    1.982237
     25          1           0        2.522654   -0.631307    3.112390
     26          7           0        4.893874    0.642044   -0.643013
     27          8           0        5.723626    1.193049    0.077087
     28          8           0        4.935947    0.604459   -1.870797
 ---------------------------------------------------------------------

 SCF Done:  E(RHF) =  -868.340276486     A.U. after   16 cycles
 E2 =    -0.2598984804D+01 EUMP2 =    -0.87093926129008D+03

 The electronic state is 1-A.
 Alpha  occ. eigenvalues --  -20.61704 -20.61632 -20.60697 -20.60690 -15.86714
 Alpha  occ. eigenvalues --  -15.85745 -11.31824 -11.31042 -11.28364 -11.28345
 Alpha  occ. eigenvalues --  -11.28035 -11.27619 -11.27553 -11.27309 -11.27297
 Alpha  occ. eigenvalues --  -11.27219 -11.26592 -11.26405  -1.60732  -1.59775
 Alpha  occ. eigenvalues --   -1.40299  -1.39329  -1.19969  -1.19191  -1.09406
 Alpha  occ. eigenvalues --   -1.08574  -1.05331  -1.04565  -0.96285  -0.95426
 Alpha  occ. eigenvalues --   -0.86742  -0.85939  -0.83130  -0.82252  -0.78214
 Alpha  occ. eigenvalues --   -0.77324  -0.72948  -0.72042  -0.71958  -0.71102
 Alpha  occ. eigenvalues --   -0.71068  -0.70231  -0.65626  -0.65325  -0.64813
 Alpha  occ. eigenvalues --   -0.64489  -0.62683  -0.61880  -0.55830  -0.54987
 Alpha  occ. eigenvalues --   -0.53679  -0.53426  -0.52914  -0.52599  -0.49703
 Alpha  occ. eigenvalues --   -0.49651  -0.48724  -0.48708  -0.45759  -0.44750
 Alpha  occ. eigenvalues --   -0.37932  -0.37162  -0.36922  -0.36196
 Alpha virt. eigenvalues --    0.04301   0.05181   0.10725   0.11337   0.15856
 Alpha virt. eigenvalues --    0.16700   0.20654   0.21871   0.26336   0.27179
 Alpha virt. eigenvalues --    0.28291   0.28760   0.30545   0.31358   0.31875

 Mulliken charges:
               1
     1  C   -0.169981
     2  C   -0.218548
     3  C   -0.170554
     4  C    0.157655
     5  C   -0.173258
     6  C   -0.219327
     7  H    0.228302
     8  H    0.225536
     9  H    0.276471
    10  H    0.273068
    11  H    0.227275
    12  N    0.491761
    13  O   -0.474383
    14  O   -0.455132
    15  C   -0.175881
    16  C   -0.231141
    17  C   -0.174246
    18  C    0.157814
    19  C   -0.172537
    20  C   -0.219693
    21  H    0.233734
    22  H    0.244869
    23  H    0.275739
    24  H    0.274283
    25  H    0.222479
    26  N    0.487975
    27  O   -0.461551
    28  O   -0.460733
 Sum of Mulliken charges =  -0.00000

 Dipole moment (field-independent basis, Debye):
    X=             -5.0000    Y=              2.7553    Z=              3.0620  Tot=              6.4782
 Quadrupole moment (field-independent basis, Debye-Ang):
   XX=           -124.9780   YY=           -106.0412   ZZ=           -101.9463
   XY=            -26.1061   XZ=              7.4873   YZ=              0.2753

 Normal termination of Gaussian 16 at Fri May  7 07:55:58 2021.
