 Gaussian 16, Revision A.03,
 Gaussian 16:  EM64L-G16RevA.03 25-Dec-2016

 -------------
 #p 6-31g* mp2
 -------------

 ------------------------------------------------------
 Input file generated by CHIRIPA (05-May-2021 14:55:21)
 ------------------------------------------------------
 Symbolic Z-matrix:
 Charge =  0 Multiplicity = 1

                         Standard orientation:
 ---------------------------------------------------------------------
 Center     Atomic      Atomic             Coordinates (Angstroms)
 Number     Number       Type             X           Y           Z
 ---------------------------------------------------------------------
      1          6           0       -2.740736   -0.164818   -2.194177
      2          6           0       -3.251661    0.642945   -1.172905
      3          6           0       -2.799317    0.496340    0.141796
      4          6           0       -1.830897   -0.472355    0.400800
      5          6           0       -1.302436   -1.292339   -0.595014
      6          6           0       -1.769466   -1.128184   -1.902486
      7          1           0       -3.097832   -0.044115   -3.212661
      8          1           0       -4.006028    1.391927   -1.396512
      9          1           0       -3.177727    1.108280    0.951582
     10          1           0       -0.551147   -2.030317   -0.341300
     11          1           0       -1.370880   -1.756908   -2.693612
     12          7           0       -1.344247   -0.636849    1.788789
     13          8           0       -0.490476   -1.497569    1.990958
     14          8           0       -1.825797    0.098055    2.648243
     15          6           0        1.872696    1.066637   -0.308398
     16          6           0        2.237685    2.493453    0.102652
     17          6           0        1.080074    3.475566   -0.079517
     18          1           0        1.550800    1.065440   -1.358792
     19          1           0        1.009661    0.731426    0.283379
     20          1           0        3.100640    2.825370   -0.488751
     21          1           0        2.558932    2.491223    1.152133
     22          1           0        0.218278    3.171328    0.523267
     23          1           0        0.763064    3.507374   -1.126939
     24          1           0        1.362832    4.489478    0.220302
     25          6           0        3.019728    0.073190   -0.132030
     26          6           0        2.654740   -1.353627   -0.543079
     27          6           0        3.812350   -2.335740   -0.360911
     28          1           0        3.882763    0.408400   -0.723807
     29          1           0        3.341624    0.074387    0.918363
     30          1           0        2.333492   -1.351397   -1.592561
     31          1           0        1.791785   -1.685544    0.048322
     32          1           0        4.129360   -2.367548    0.686511
     33          1           0        4.674146   -2.031502   -0.963696
     34          1           0        3.529592   -3.349651   -0.660730
 ---------------------------------------------------------------------

 SCF Done:  E(RHF) =  -669.535331353     A.U. after   15 cycles
 E2 =    -0.2094656630D+01 EUMP2 =    -0.67162998798338D+03

 The electronic state is 1-A.
 Alpha  occ. eigenvalues --  -20.60955 -20.60944 -15.85967 -11.31207 -11.27800
 Alpha  occ. eigenvalues --  -11.27754 -11.27526 -11.26784 -11.26769 -11.21436
 Alpha  occ. eigenvalues --  -11.21388 -11.21185 -11.21112 -11.20943 -11.20886
 Alpha  occ. eigenvalues --   -1.60011  -1.39568  -1.19396  -1.08818  -1.08225
 Alpha  occ. eigenvalues --   -1.04781  -1.03351  -0.95796  -0.95666  -0.86818
 Alpha  occ. eigenvalues --   -0.86194  -0.82499  -0.79449  -0.78122  -0.77519
 Alpha  occ. eigenvalues --   -0.72196  -0.71338  -0.70515  -0.65075  -0.64889
 Alpha  occ. eigenvalues --   -0.64715  -0.62156  -0.60720  -0.59174  -0.57430
 Alpha  occ. eigenvalues --   -0.55302  -0.55072  -0.53153  -0.52902  -0.52485
 Alpha  occ. eigenvalues --   -0.52221  -0.49733  -0.48978  -0.48943  -0.47746
 Alpha  occ. eigenvalues --   -0.46437  -0.45690  -0.45552  -0.44795  -0.43597
 Alpha  occ. eigenvalues --   -0.37339  -0.36341
 Alpha virt. eigenvalues --    0.04921   0.11198   0.16419   0.21081   0.23118
 Alpha virt. eigenvalues --    0.24315   0.26016   0.26755   0.27783   0.28107
 Alpha virt. eigenvalues --    0.28779   0.30358   0.31360   0.31871   0.32122

 Mulliken charges:
               1
     1  C   -0.170296
     2  C   -0.218283
     3  C   -0.171193
     4  C    0.154257
     5  C   -0.167498
     6  C   -0.219912
     7  H    0.225715
     8  H    0.223627
     9  H    0.275491
    10  H    0.279328
    11  H    0.223926
    12  N    0.490788
    13  O   -0.462056
    14  O   -0.458882
    15  C   -0.299606
    16  C   -0.299886
    17  C   -0.475663
    18  H    0.145053
    19  H    0.150681
    20  H    0.150274
    21  H    0.156449
    22  H    0.156130
    23  H    0.151391
    24  H    0.160159
    25  C   -0.296121
    26  C   -0.312397
    27  C   -0.474575
    28  H    0.147213
    29  H    0.156171
    30  H    0.142178
    31  H    0.166453
    32  H    0.160607
    33  H    0.153431
    34  H    0.157045
 Sum of Mulliken charges =  -0.00000

 Dipole moment (field-independent basis, Debye):
    X=             -1.7661    Y=              0.5620    Z=             -4.7458  Tot=              5.0949
 Quadrupole moment (field-independent basis, Debye-Ang):
   XX=            -87.4505   YY=            -93.8753   ZZ=            -97.9478
   XY=             -2.1949   XZ=              7.4813   YZ=              3.7013

 Normal termination of Gaussian 16 at Thu May  6 06:13:59 2021.
