 Gaussian 16, Revision A.03,
 Gaussian 16:  EM64L-G16RevA.03 25-Dec-2016

 -------------
 #p 6-31g* mp2
 -------------

 ------------------------------------------------------
 Input file generated by CHIRIPA (05-May-2021 14:55:20)
 ------------------------------------------------------
 Symbolic Z-matrix:
 Charge =  0 Multiplicity = 1

                         Standard orientation:
 ---------------------------------------------------------------------
 Center     Atomic      Atomic             Coordinates (Angstroms)
 Number     Number       Type             X           Y           Z
 ---------------------------------------------------------------------
      1          6           0        1.029067   -2.177540    0.773076
      2          6           0        0.654477   -0.878752    1.132731
      3          6           0        1.455377    0.213160    0.785117
      4          6           0        2.629542   -0.031191    0.074541
      5          6           0        3.029788   -1.313422   -0.298255
      6          6           0        2.213439   -2.390355    0.059988
      7          1           0        0.400908   -3.019946    1.047239
      8          1           0       -0.264781   -0.710488    1.686534
      9          1           0        1.189234    1.229036    1.050789
     10          1           0        3.951854   -1.449659   -0.850207
     11          1           0        2.506851   -3.397921   -0.220662
     12          7           0        3.485597    1.116839   -0.299088
     13          8           0        4.515221    0.874975   -0.925198
     14          8           0        3.110739    2.236791    0.041245
     15          6           0       -2.769928    0.917999   -0.092927
     16          6           0       -3.616602    2.188329   -0.006969
     17          6           0       -2.771508    3.452135    0.155523
     18          1           0       -2.152853    0.834322    0.812149
     19          1           0       -2.073984    1.006090   -0.938678
     20          1           0       -4.311696    2.097290    0.837526
     21          1           0       -4.231874    2.268892   -0.912268
     22          1           0       -2.088488    3.570429   -0.691880
     23          1           0       -2.168764    3.397853    1.067857
     24          1           0       -3.396873    4.348380    0.214890
     25          6           0       -3.600514   -0.353776   -0.255539
     26          6           0       -2.753840   -1.624107   -0.341496
     27          6           0       -3.598935   -2.887912   -0.503989
     28          1           0       -4.296459   -0.441867    0.590213
     29          1           0       -4.217589   -0.270099   -1.160614
     30          1           0       -2.138568   -1.704669    0.563803
     31          1           0       -2.058746   -1.533066   -1.185991
     32          1           0       -4.201679   -2.833629   -1.416323
     33          1           0       -4.281955   -3.006206    0.343414
     34          1           0       -2.973570   -3.784157   -0.563355
 ---------------------------------------------------------------------

 SCF Done:  E(RHF) =  -669.534381245     A.U. after   15 cycles
 E2 =    -0.2093206919D+01 EUMP2 =    -0.67162758816371D+03

 The electronic state is 1-A.
 Alpha  occ. eigenvalues --  -20.60724 -20.60718 -15.85776 -11.31131 -11.27698
 Alpha  occ. eigenvalues --  -11.27676 -11.27427 -11.26719 -11.26674 -11.22432
 Alpha  occ. eigenvalues --  -11.22108 -11.22062 -11.22020 -11.21851 -11.21373
 Alpha  occ. eigenvalues --   -1.59800  -1.39353  -1.19302  -1.09112  -1.08695
 Alpha  occ. eigenvalues --   -1.04705  -1.04149  -0.96585  -0.95536  -0.87598
 Alpha  occ. eigenvalues --   -0.86115  -0.82372  -0.80232  -0.78944  -0.77402
 Alpha  occ. eigenvalues --   -0.71995  -0.71123  -0.70409  -0.65820  -0.64957
 Alpha  occ. eigenvalues --   -0.64676  -0.62071  -0.61527  -0.59974  -0.58203
 Alpha  occ. eigenvalues --   -0.55867  -0.55201  -0.53314  -0.53027  -0.52993
 Alpha  occ. eigenvalues --   -0.52806  -0.50527  -0.48769  -0.48750  -0.48522
 Alpha  occ. eigenvalues --   -0.47264  -0.46433  -0.46341  -0.44761  -0.44415
 Alpha  occ. eigenvalues --   -0.37247  -0.36267
 Alpha virt. eigenvalues --    0.05094   0.11275   0.16516   0.19535   0.22855
 Alpha virt. eigenvalues --    0.23156   0.24905   0.26493   0.26697   0.27829
 Alpha virt. eigenvalues --    0.29980   0.30606   0.31022   0.31422   0.31973

 Mulliken charges:
               1
     1  C   -0.169892
     2  C   -0.215096
     3  C   -0.172549
     4  C    0.157977
     5  C   -0.171336
     6  C   -0.219220
     7  H    0.225613
     8  H    0.224605
     9  H    0.275562
    10  H    0.275284
    11  H    0.223091
    12  N    0.488040
    13  O   -0.460741
    14  O   -0.460417
    15  C   -0.298913
    16  C   -0.300318
    17  C   -0.476392
    18  H    0.139174
    19  H    0.155047
    20  H    0.151927
    21  H    0.154462
    22  H    0.159803
    23  H    0.152893
    24  H    0.162993
    25  C   -0.299309
    26  C   -0.299818
    27  C   -0.475882
    28  H    0.149812
    29  H    0.153523
    30  H    0.140022
    31  H    0.157756
    32  H    0.159334
    33  H    0.156081
    34  H    0.156884
 Sum of Mulliken charges =  -0.00000

 Dipole moment (field-independent basis, Debye):
    X=             -3.1484    Y=             -3.9622    Z=              1.1824  Tot=              5.1971
 Quadrupole moment (field-independent basis, Debye-Ang):
   XX=           -108.9336   YY=            -93.7340   ZZ=            -93.2214
   XY=            -13.6130   XZ=              1.8573   YZ=              1.0096

 Normal termination of Gaussian 16 at Thu May  6 10:51:17 2021.
