 Gaussian 16, Revision A.03,
 Gaussian 16:  EM64L-G16RevA.03 25-Dec-2016

 -------------
 #p 6-31g* mp2
 -------------

 ------------------------------------------------------
 Input file generated by CHIRIPA (05-May-2021 14:53:14)
 ------------------------------------------------------
 Symbolic Z-matrix:
 Charge =  0 Multiplicity = 1

                         Standard orientation:
 ---------------------------------------------------------------------
 Center     Atomic      Atomic             Coordinates (Angstroms)
 Number     Number       Type             X           Y           Z
 ---------------------------------------------------------------------
      1          6           0        3.728759    0.806387    0.293089
      2          6           0        2.530330    1.697328   -0.035511
      3          6           0        2.633308    3.084507    0.599252
      4          1           0        3.815273    0.706612    1.383733
      5          1           0        4.648685    1.300062   -0.049572
      6          1           0        1.612811    1.201490    0.306427
      7          1           0        2.446544    1.794838   -1.125505
      8          1           0        3.532196    3.602447    0.249480
      9          1           0        2.693726    3.005728    1.689548
     10          1           0        1.766285    3.704769    0.351451
     11          6           0        3.640357   -0.583652   -0.334371
     12          6           0        4.838786   -1.474592   -0.005772
     13          6           0        4.735807   -2.861771   -0.640534
     14          1           0        2.720431   -1.077326    0.008290
     15          1           0        3.553843   -0.483876   -1.425016
     16          1           0        4.922572   -1.572102    1.084222
     17          1           0        5.756304   -0.978754   -0.347709
     18          1           0        4.675390   -2.782992   -1.730830
     19          1           0        3.836920   -3.379712   -0.290762
     20          1           0        5.602831   -3.482033   -0.392733
     21          6           0       -3.707257   -2.438847    0.400874
     22          6           0       -2.427752   -2.068842    0.828058
     23          6           0       -1.958184   -0.768521    0.620166
     24          6           0       -2.798446    0.140362   -0.021070
     25          6           0       -4.078168   -0.197949   -0.458272
     26          6           0       -4.526936   -1.503868   -0.239798
     27          1           0       -4.063949   -3.451142    0.566480
     28          1           0       -1.788996   -2.792863    1.325883
     29          1           0       -0.971977   -0.455308    0.940652
     30          1           0       -4.691917    0.545876   -0.951684
     31          1           0       -5.521070   -1.788413   -0.572627
     32          7           0       -2.312345    1.519916   -0.246758
     33          8           0       -3.072030    2.301997   -0.814088
     34          8           0       -1.180859    1.793007    0.147953
 ---------------------------------------------------------------------

 SCF Done:  E(RHF) =  -669.535919190     A.U. after   15 cycles
 E2 =    -0.2091341620D+01 EUMP2 =    -0.67162726081020D+03

 The electronic state is 1-A.
 Alpha  occ. eigenvalues --  -20.60906 -20.60897 -15.85941 -11.31276 -11.27848
 Alpha  occ. eigenvalues --  -11.27837 -11.27579 -11.26852 -11.26842 -11.21447
 Alpha  occ. eigenvalues --  -11.21122 -11.21041 -11.20811 -11.20580 -11.19981
 Alpha  occ. eigenvalues --   -1.59968  -1.39523  -1.19446  -1.08847  -1.07971
 Alpha  occ. eigenvalues --   -1.04845  -1.02967  -0.95691  -0.95446  -0.86475
 Alpha  occ. eigenvalues --   -0.86245  -0.82525  -0.79091  -0.77763  -0.77520
 Alpha  occ. eigenvalues --   -0.72168  -0.71281  -0.70556  -0.65106  -0.64852
 Alpha  occ. eigenvalues --   -0.64615  -0.62196  -0.60372  -0.58855  -0.56996
 Alpha  occ. eigenvalues --   -0.55348  -0.54772  -0.53174  -0.52939  -0.52106
 Alpha  occ. eigenvalues --   -0.51872  -0.49445  -0.48938  -0.48914  -0.47374
 Alpha  occ. eigenvalues --   -0.46156  -0.45299  -0.45181  -0.44835  -0.43234
 Alpha  occ. eigenvalues --   -0.37423  -0.36446
 Alpha virt. eigenvalues --    0.04952   0.11205   0.16445   0.20693   0.23014
 Alpha virt. eigenvalues --    0.24505   0.25660   0.27414   0.27600   0.28467
 Alpha virt. eigenvalues --    0.29122   0.30540   0.31596   0.32039   0.32826

 Mulliken charges:
               1
     1  C   -0.298710
     2  C   -0.302004
     3  C   -0.476697
     4  H    0.146239
     5  H    0.148026
     6  H    0.163641
     7  H    0.151098
     8  H    0.148876
     9  H    0.150120
    10  H    0.174441
    11  C   -0.295396
    12  C   -0.299109
    13  C   -0.474815
    14  H    0.141397
    15  H    0.150427
    16  H    0.150519
    17  H    0.152899
    18  H    0.155583
    19  H    0.151214
    20  H    0.159586
    21  C   -0.170483
    22  C   -0.219013
    23  C   -0.170854
    24  C    0.157767
    25  C   -0.170720
    26  C   -0.218604
    27  H    0.225976
    28  H    0.223835
    29  H    0.276801
    30  H    0.275806
    31  H    0.223777
    32  N    0.492595
    33  O   -0.459556
    34  O   -0.464662
 Sum of Mulliken charges =  -0.00000

 Dipole moment (field-independent basis, Debye):
    X=             -1.9419    Y=             -4.7461    Z=              0.7531  Tot=              5.1830
 Quadrupole moment (field-independent basis, Debye-Ang):
   XX=            -81.9859   YY=            -97.3450   ZZ=            -94.0842
   XY=             12.7632   XZ=             -0.4895   YZ=             -1.2088

 Normal termination of Gaussian 16 at Wed May  5 15:35:10 2021.
