 Gaussian 16, Revision A.03,
 Gaussian 16:  EM64L-G16RevA.03 25-Dec-2016

 -------------
 #p 6-31g* mp2
 -------------

 ------------------------------------------------------
 Input file generated by CHIRIPA (05-May-2021 14:55:22)
 ------------------------------------------------------
 Symbolic Z-matrix:
 Charge =  0 Multiplicity = 1

                         Standard orientation:
 ---------------------------------------------------------------------
 Center     Atomic      Atomic             Coordinates (Angstroms)
 Number     Number       Type             X           Y           Z
 ---------------------------------------------------------------------
      1          6           0        1.498275    1.310725   -0.517481
      2          6           0        1.420846    0.069216    0.122192
      3          6           0        2.573521   -0.692504    0.335896
      4          6           0        3.792617   -0.179961   -0.105006
      5          6           0        3.902270    1.053412   -0.745363
      6          6           0        2.736557    1.798002   -0.948457
      7          1           0        0.597785    1.895794   -0.679370
      8          1           0        0.460533   -0.311712    0.457958
      9          1           0        2.542262   -1.656791    0.828432
     10          1           0        4.873820    1.406771   -1.068854
     11          1           0        2.799696    2.761843   -1.445516
     12          7           0        5.019805   -0.977292    0.115616
     13          8           0        6.081789   -0.503479   -0.282289
     14          8           0        4.896454   -2.060956    0.682268
     15          6           0       -4.969615   -0.360780   -0.333565
     16          6           0       -6.447848   -0.558855    0.003453
     17          6           0       -7.182467   -1.407012   -1.035179
     18          1           0       -4.885540    0.112536   -1.321415
     19          1           0       -4.484538   -1.343324   -0.415438
     20          1           0       -6.929686    0.423809    0.086030
     21          1           0       -6.528419   -1.031580    0.990699
     22          1           0       -6.728219   -2.400122   -1.112594
     23          1           0       -7.131767   -0.936463   -2.022405
     24          1           0       -8.237613   -1.535948   -0.774593
     25          6           0       -4.221712    0.485071    0.695465
     26          6           0       -2.743479    0.683147    0.358447
     27          6           0       -2.008860    1.531304    1.397080
     28          1           0       -4.706789    1.467614    0.777340
     29          1           0       -4.305787    0.011755    1.683316
     30          1           0       -2.662908    1.155871   -0.628799
     31          1           0       -2.261641   -0.299517    0.275871
     32          1           0       -2.059560    1.060755    2.384306
     33          1           0       -2.463108    2.524413    1.474495
     34          1           0       -0.953715    1.660239    1.136494
 ---------------------------------------------------------------------

 SCF Done:  E(RHF) =  -669.534828251     A.U. after   15 cycles
 E2 =    -0.2092206942D+01 EUMP2 =    -0.67162703519303D+03

 The electronic state is 1-A.
 Alpha  occ. eigenvalues --  -20.60738 -20.60733 -15.85791 -11.31157 -11.27720
 Alpha  occ. eigenvalues --  -11.27710 -11.27437 -11.26736 -11.26694 -11.22826
 Alpha  occ. eigenvalues --  -11.22289 -11.22279 -11.22172 -11.22075 -11.21535
 Alpha  occ. eigenvalues --   -1.59814  -1.39367  -1.19325  -1.09287  -1.08722
 Alpha  occ. eigenvalues --   -1.04731  -1.04402  -0.96845  -0.95556  -0.87855
 Alpha  occ. eigenvalues --   -0.86123  -0.82389  -0.80491  -0.79044  -0.77437
 Alpha  occ. eigenvalues --   -0.72011  -0.71136  -0.70470  -0.65922  -0.64990
 Alpha  occ. eigenvalues --   -0.64784  -0.62158  -0.61756  -0.60195  -0.58424
 Alpha  occ. eigenvalues --   -0.56104  -0.55237  -0.53572  -0.53289  -0.52987
 Alpha  occ. eigenvalues --   -0.52766  -0.50758  -0.48801  -0.48766  -0.48760
 Alpha  occ. eigenvalues --   -0.47522  -0.46589  -0.46481  -0.44773  -0.44642
 Alpha  occ. eigenvalues --   -0.37290  -0.36321
 Alpha virt. eigenvalues --    0.05077   0.11248   0.16546   0.19408   0.22502
 Alpha virt. eigenvalues --    0.24006   0.25000   0.26184   0.26733   0.27135
 Alpha virt. eigenvalues --    0.29227   0.29717   0.30702   0.31292   0.31577

 Mulliken charges:
               1
     1  C   -0.174984
     2  C   -0.222001
     3  C   -0.172234
     4  C    0.158688
     5  C   -0.171129
     6  C   -0.218819
     7  H    0.228543
     8  H    0.231093
     9  H    0.275672
    10  H    0.275465
    11  H    0.223390
    12  N    0.488067
    13  O   -0.460498
    14  O   -0.460462
    15  C   -0.299054
    16  C   -0.300394
    17  C   -0.476190
    18  H    0.150236
    19  H    0.150282
    20  H    0.152814
    21  H    0.153149
    22  H    0.156070
    23  H    0.155691
    24  H    0.162140
    25  C   -0.298228
    26  C   -0.304605
    27  C   -0.484443
    28  H    0.152189
    29  H    0.152418
    30  H    0.151257
    31  H    0.148807
    32  H    0.161138
    33  H    0.160746
    34  H    0.155187
 Sum of Mulliken charges =  -0.00000

 Dipole moment (field-independent basis, Debye):
    X=             -4.5658    Y=              2.8070    Z=             -0.7499  Tot=              5.4118
 Quadrupole moment (field-independent basis, Debye-Ang):
   XX=           -125.8672   YY=            -93.1498   ZZ=            -94.3792
   XY=             13.1511   XZ=             -4.3527   YZ=             -2.8479

 Normal termination of Gaussian 16 at Thu May  6 06:13:01 2021.
