 Gaussian 16, Revision A.03,
 Gaussian 16:  EM64L-G16RevA.03 25-Dec-2016

 -------------
 #p 6-31g* mp2
 -------------

 ------------------------------------------------------
 Input file generated by CHIRIPA (05-May-2021 14:53:15)
 ------------------------------------------------------
 Symbolic Z-matrix:
 Charge =  0 Multiplicity = 1

                         Standard orientation:
 ---------------------------------------------------------------------
 Center     Atomic      Atomic             Coordinates (Angstroms)
 Number     Number       Type             X           Y           Z
 ---------------------------------------------------------------------
      1          6           0        3.228506    0.746567    0.027277
      2          6           0        2.209301    1.828570   -0.331156
      3          6           0        2.697590    3.236828    0.009694
      4          1           0        3.456412    0.807488    1.100260
      5          1           0        4.169005    0.948149   -0.503967
      6          1           0        1.270561    1.624232    0.199531
      7          1           0        1.983651    1.764943   -1.403374
      8          1           0        3.621813    3.465453   -0.530810
      9          1           0        2.904671    3.323942    1.081202
     10          1           0        1.953576    3.994694   -0.254769
     11          6           0        2.754798   -0.666669   -0.307524
     12          6           0        3.774003   -1.748672    0.050910
     13          6           0        3.285713   -3.156929   -0.289941
     14          1           0        1.814299   -0.868251    0.223721
     15          1           0        2.526892   -0.727590   -1.380507
     16          1           0        3.999653   -1.685045    1.123127
     17          1           0        4.712743   -1.544334   -0.479777
     18          1           0        3.078633   -3.244044   -1.361449
     19          1           0        2.361491   -3.385555    0.250563
     20          1           0        4.029728   -3.914796   -0.025477
     21          6           0       -1.978227    2.466197    0.109095
     22          6           0       -2.782248    1.874432   -0.870642
     23          6           0       -2.988145    0.491658   -0.880143
     24          6           0       -2.371935   -0.272650    0.109507
     25          6           0       -1.565345    0.287428    1.098959
     26          6           0       -1.373407    1.672206    1.089041
     27          1           0       -1.823703    3.541147    0.108934
     28          1           0       -3.253217    2.488580   -1.632911
     29          1           0       -3.605717    0.007493   -1.626874
     30          1           0       -1.109127   -0.350869    1.845860
     31          1           0       -0.748484    2.129048    1.851149
     32          7           0       -2.582521   -1.737592    0.109728
     33          8           0       -2.028437   -2.388926    0.992560
     34          8           0       -3.297672   -2.206740   -0.772935
 ---------------------------------------------------------------------

 SCF Done:  E(RHF) =  -669.534982011     A.U. after   15 cycles
 E2 =    -0.2093077402D+01 EUMP2 =    -0.67162805941309D+03

 The electronic state is 1-A.
 Alpha  occ. eigenvalues --  -20.60833 -20.60825 -15.85886 -11.31276 -11.27847
 Alpha  occ. eigenvalues --  -11.27827 -11.27573 -11.26861 -11.26850 -11.21839
 Alpha  occ. eigenvalues --  -11.21601 -11.21576 -11.21515 -11.21395 -11.20774
 Alpha  occ. eigenvalues --   -1.59905  -1.39458  -1.19450  -1.08840  -1.08550
 Alpha  occ. eigenvalues --   -1.04865  -1.03643  -0.96100  -0.95666  -0.87110
 Alpha  occ. eigenvalues --   -0.86254  -0.82505  -0.79718  -0.78340  -0.77544
 Alpha  occ. eigenvalues --   -0.72104  -0.71226  -0.70543  -0.65236  -0.65101
 Alpha  occ. eigenvalues --   -0.64846  -0.62212  -0.61048  -0.59512  -0.57698
 Alpha  occ. eigenvalues --   -0.55390  -0.55344  -0.53237  -0.52950  -0.52783
 Alpha  occ. eigenvalues --   -0.52504  -0.50029  -0.48864  -0.48857  -0.48016
 Alpha  occ. eigenvalues --   -0.46759  -0.45876  -0.45801  -0.44855  -0.43898
 Alpha  occ. eigenvalues --   -0.37391  -0.36371
 Alpha virt. eigenvalues --    0.04965   0.11086   0.16394   0.20575   0.23019
 Alpha virt. eigenvalues --    0.24095   0.26025   0.27040   0.27307   0.28376
 Alpha virt. eigenvalues --    0.28704   0.30100   0.31379   0.31753   0.32307

 Mulliken charges:
               1
     1  C   -0.297873
     2  C   -0.306732
     3  C   -0.475602
     4  H    0.147037
     5  H    0.150056
     6  H    0.155430
     7  H    0.152827
     8  H    0.158463
     9  H    0.152656
    10  H    0.153538
    11  C   -0.298736
    12  C   -0.299705
    13  C   -0.477353
    14  H    0.149511
    15  H    0.150836
    16  H    0.150752
    17  H    0.150969
    18  H    0.155556
    19  H    0.162395
    20  H    0.159840
    21  C   -0.169445
    22  C   -0.218119
    23  C   -0.170651
    24  C    0.159436
    25  C   -0.170642
    26  C   -0.219137
    27  H    0.226407
    28  H    0.223922
    29  H    0.275952
    30  H    0.275580
    31  H    0.225215
    32  N    0.488268
    33  O   -0.460789
    34  O   -0.459861
 Sum of Mulliken charges =  -0.00000

 Dipole moment (field-independent basis, Debye):
    X=              0.6367    Y=              5.0666    Z=             -0.0424  Tot=              5.1066
 Quadrupole moment (field-independent basis, Debye-Ang):
   XX=            -97.1179   YY=            -99.4017   ZZ=            -90.9219
   XY=            -13.3499   XZ=              2.3468   YZ=             -0.1470

 Normal termination of Gaussian 16 at Thu May  6 20:24:47 2021.
