 Gaussian 16, Revision A.03,
 Gaussian 16:  EM64L-G16RevA.03 25-Dec-2016

 -------------
 #p 6-31g* mp2
 -------------

 ------------------------------------------------------
 Input file generated by CHIRIPA (05-May-2021 14:57:22)
 ------------------------------------------------------
 Symbolic Z-matrix:
 Charge =  0 Multiplicity = 1

                         Standard orientation:
 ---------------------------------------------------------------------
 Center     Atomic      Atomic             Coordinates (Angstroms)
 Number     Number       Type             X           Y           Z
 ---------------------------------------------------------------------
      1          6           0       -4.188602   -1.437645   -1.784580
      2          6           0       -5.062784   -0.636775   -1.042331
      3          6           0       -4.584128    0.152924    0.007342
      4          6           0       -3.219265    0.117380    0.288720
      5          6           0       -2.323130   -0.670106   -0.432458
      6          6           0       -2.823971   -1.451730   -1.477815
      7          1           0       -4.569050   -2.047966   -2.598314
      8          1           0       -6.123060   -0.623847   -1.278325
      9          1           0       -5.238686    0.782143    0.598151
     10          1           0       -1.271309   -0.662029   -0.173566
     11          1           0       -2.142742   -2.072730   -2.052559
     12          7           0       -2.700790    0.949124    1.397677
     13          8           0       -1.494026    0.900110    1.625613
     14          8           0       -3.510992    1.634310    2.017944
     15          6           0        2.865561    2.123945   -1.427021
     16          6           0        4.160804    1.600985   -1.353666
     17          6           0        4.415760    0.435658   -0.624585
     18          6           0        3.347171   -0.183728    0.021765
     19          6           0        2.045698    0.312774   -0.032454
     20          6           0        1.813996    1.479308   -0.767344
     21          1           0        2.676537    3.029668   -1.995644
     22          1           0        4.979395    2.099502   -1.864971
     23          1           0        5.408794    0.009151   -0.551149
     24          1           0        1.250042   -0.206472    0.487865
     25          1           0        0.807077    1.883176   -0.822568
     26          7           0        3.604773   -1.418047    0.796685
     27          8           0        2.646159   -1.944900    1.357151
     28          8           0        4.760417   -1.835280    0.828930
 ---------------------------------------------------------------------

 SCF Done:  E(RHF) =  -868.338785579     A.U. after   16 cycles
 E2 =    -0.2599838592D+01 EUMP2 =    -0.87093862417088D+03

 The electronic state is 1-A.
 Alpha  occ. eigenvalues --  -20.61408 -20.61369 -20.60529 -20.60522 -15.86423
 Alpha  occ. eigenvalues --  -15.85577 -11.31667 -11.30886 -11.28261 -11.28179
 Alpha  occ. eigenvalues --  -11.27888 -11.27470 -11.27394 -11.27184 -11.27180
 Alpha  occ. eigenvalues --  -11.27168 -11.26489 -11.26390  -1.60448  -1.59604
 Alpha  occ. eigenvalues --   -1.40011  -1.39159  -1.19814  -1.19053  -1.09223
 Alpha  occ. eigenvalues --   -1.08463  -1.05197  -1.04435  -0.96086  -0.95305
 Alpha  occ. eigenvalues --   -0.86603  -0.85842  -0.82922  -0.82129  -0.78014
 Alpha  occ. eigenvalues --   -0.77171  -0.72646  -0.71796  -0.71759  -0.70932
 Alpha  occ. eigenvalues --   -0.70921  -0.70161  -0.65466  -0.65198  -0.64699
 Alpha  occ. eigenvalues --   -0.64429  -0.62592  -0.61730  -0.55686  -0.54956
 Alpha  occ. eigenvalues --   -0.53529  -0.53289  -0.52781  -0.52510  -0.49414
 Alpha  occ. eigenvalues --   -0.49371  -0.48554  -0.48550  -0.45434  -0.44576
 Alpha  occ. eigenvalues --   -0.37773  -0.37045  -0.36791  -0.36037
 Alpha virt. eigenvalues --    0.04516   0.05317   0.10839   0.11593   0.16054
 Alpha virt. eigenvalues --    0.16810   0.19713   0.22027   0.24988   0.27363
 Alpha virt. eigenvalues --    0.28131   0.29239   0.30990   0.31244   0.31792

 Mulliken charges:
               1
     1  C   -0.170125
     2  C   -0.218466
     3  C   -0.170005
     4  C    0.156923
     5  C   -0.172947
     6  C   -0.220535
     7  H    0.227808
     8  H    0.225219
     9  H    0.276662
    10  H    0.275394
    11  H    0.227457
    12  N    0.489652
    13  O   -0.470073
    14  O   -0.455556
    15  C   -0.171298
    16  C   -0.218826
    17  C   -0.171240
    18  C    0.160382
    19  C   -0.181949
    20  C   -0.220304
    21  H    0.224794
    22  H    0.222203
    23  H    0.274420
    24  H    0.286860
    25  H    0.227903
    26  N    0.487566
    27  O   -0.460279
    28  O   -0.461642
 Sum of Mulliken charges =  -0.00000

 Dipole moment (field-independent basis, Debye):
    X=             -3.0293    Y=              1.4233    Z=             -6.6234  Tot=              7.4211
 Quadrupole moment (field-independent basis, Debye-Ang):
   XX=            -89.6352   YY=           -107.7614   ZZ=           -108.0794
   XY=             22.9087   XZ=              0.9010   YZ=             -0.2105

 Normal termination of Gaussian 16 at Fri May  7 00:11:28 2021.
