 Gaussian 16, Revision A.03,
 Gaussian 16:  EM64L-G16RevA.03 25-Dec-2016

 -------------
 #p 6-31g* mp2
 -------------

 ------------------------------------------------------
 Input file generated by CHIRIPA (05-May-2021 14:53:16)
 ------------------------------------------------------
 Symbolic Z-matrix:
 Charge =  0 Multiplicity = 1

                         Standard orientation:
 ---------------------------------------------------------------------
 Center     Atomic      Atomic             Coordinates (Angstroms)
 Number     Number       Type             X           Y           Z
 ---------------------------------------------------------------------
      1          6           0       -2.255926    1.444249   -0.499803
      2          6           0       -0.796737    1.893375   -0.415910
      3          6           0       -0.525387    3.172402   -1.208535
      4          1           0       -2.524944    1.288362   -1.553498
      5          1           0       -2.902597    2.251164   -0.128188
      6          1           0       -0.152923    1.085326   -0.786282
      7          1           0       -0.531105    2.048027    0.637721
      8          1           0       -1.143404    3.995382   -0.835226
      9          1           0       -0.763074    3.027211   -2.267320
     10          1           0        0.523700    3.475452   -1.134800
     11          6           0       -2.542862    0.166941    0.287521
     12          6           0       -4.002051   -0.282186    0.203627
     13          6           0       -4.273401   -1.561212    0.996253
     14          1           0       -1.896190   -0.639975   -0.084095
     15          1           0       -2.273844    0.322828    1.341216
     16          1           0       -4.267683   -0.436837   -0.850004
     17          1           0       -4.645865    0.525864    0.573999
     18          1           0       -4.035714   -1.416021    2.055038
     19          1           0       -3.655383   -2.384192    0.622944
     20          1           0       -5.322488   -1.864262    0.922517
     21          6           0        2.695434    0.985320    1.839285
     22          6           0        3.027734    1.184528    0.495256
     23          6           0        2.578431    0.296265   -0.486407
     24          6           0        1.795164   -0.785474   -0.086876
     25          6           0        1.447228   -1.010934    1.244063
     26          6           0        1.907629   -0.109844    2.208747
     27          1           0        3.048774    1.680326    2.595270
     28          1           0        3.639400    2.034177    0.205420
     29          1           0        2.820813    0.426674   -1.534101
     30          1           0        0.835888   -1.867067    1.502358
     31          1           0        1.648001   -0.267047    3.251784
     32          7           0        1.313633   -1.732627   -1.117131
     33          8           0        0.624924   -2.677904   -0.739285
     34          8           0        1.634035   -1.511795   -2.282984
 ---------------------------------------------------------------------

 SCF Done:  E(RHF) =  -669.534673130     A.U. after   15 cycles
 E2 =    -0.2095409463D+01 EUMP2 =    -0.67163008259315D+03

 The electronic state is 1-A.
 Alpha  occ. eigenvalues --  -20.60931 -20.60926 -15.85949 -11.31198 -11.27818
 Alpha  occ. eigenvalues --  -11.27803 -11.27588 -11.26845 -11.26835 -11.21412
 Alpha  occ. eigenvalues --  -11.21328 -11.21185 -11.21117 -11.21092 -11.20773
 Alpha  occ. eigenvalues --   -1.59990  -1.39545  -1.19438  -1.08848  -1.08227
 Alpha  occ. eigenvalues --   -1.04830  -1.03347  -0.95811  -0.95684  -0.86830
 Alpha  occ. eigenvalues --   -0.86233  -0.82520  -0.79432  -0.78064  -0.77567
 Alpha  occ. eigenvalues --   -0.72176  -0.71318  -0.70549  -0.65092  -0.64855
 Alpha  occ. eigenvalues --   -0.64836  -0.62177  -0.60760  -0.59230  -0.57448
 Alpha  occ. eigenvalues --   -0.55344  -0.55095  -0.53270  -0.52923  -0.52470
 Alpha  occ. eigenvalues --   -0.52225  -0.49749  -0.48940  -0.48931  -0.47683
 Alpha  occ. eigenvalues --   -0.46489  -0.45548  -0.45530  -0.44892  -0.43600
 Alpha  occ. eigenvalues --   -0.37308  -0.36387
 Alpha virt. eigenvalues --    0.04930   0.11140   0.16391   0.21240   0.23003
 Alpha virt. eigenvalues --    0.24328   0.26523   0.26971   0.27384   0.28157
 Alpha virt. eigenvalues --    0.28430   0.30751   0.31484   0.31899   0.32110

 Mulliken charges:
               1
     1  C   -0.298130
     2  C   -0.301365
     3  C   -0.475079
     4  H    0.152771
     5  H    0.146968
     6  H    0.155162
     7  H    0.148703
     8  H    0.154129
     9  H    0.158047
    10  H    0.152573
    11  C   -0.302521
    12  C   -0.298889
    13  C   -0.477317
    14  H    0.156940
    15  H    0.143131
    16  H    0.154878
    17  H    0.149535
    18  H    0.150486
    19  H    0.162176
    20  H    0.159730
    21  C   -0.170801
    22  C   -0.214353
    23  C   -0.172917
    24  C    0.158018
    25  C   -0.168642
    26  C   -0.217888
    27  H    0.226044
    28  H    0.223813
    29  H    0.275549
    30  H    0.276175
    31  H    0.223821
    32  N    0.489651
    33  O   -0.460675
    34  O   -0.459721
 Sum of Mulliken charges =  -0.00000

 Dipole moment (field-independent basis, Debye):
    X=              1.7962    Y=              3.2087    Z=              3.5972  Tot=              5.1441
 Quadrupole moment (field-independent basis, Debye-Ang):
   XX=            -88.3132   YY=            -99.9410   ZZ=            -92.7620
   XY=              5.9576   XZ=              4.9260   YZ=             -4.2802

 Normal termination of Gaussian 16 at Thu May  6 01:10:57 2021.
