 Gaussian 16, Revision A.03,
 Gaussian 16:  EM64L-G16RevA.03 25-Dec-2016

 -------------
 #p 6-31g* mp2
 -------------

 ------------------------------------------------------
 Input file generated by CHIRIPA (05-May-2021 14:51:14)
 ------------------------------------------------------
 Symbolic Z-matrix:
 Charge =  0 Multiplicity = 1

                         Standard orientation:
 ---------------------------------------------------------------------
 Center     Atomic      Atomic             Coordinates (Angstroms)
 Number     Number       Type             X           Y           Z
 ---------------------------------------------------------------------
      1          6           0        2.356269    1.102429   -0.113478
      2          6           0        2.464212    2.570974    0.298482
      3          6           0        1.142541    3.325262    0.150064
      4          1           0        2.014641    1.044826   -1.156032
      5          1           0        1.583636    0.613682    0.496080
      6          1           0        3.237377    3.056466   -0.310720
      7          1           0        2.805806    2.625091    1.340116
      8          1           0        0.365732    2.867167    0.770805
      9          1           0        0.799756    3.300994   -0.889412
     10          1           0        1.242425    4.373086    0.449981
     11          6           0        3.669474    0.335076    0.029313
     12          6           0        3.561531   -1.133468   -0.382648
     13          6           0        4.883202   -1.887757   -0.234230
     14          1           0        4.442106    0.823823   -0.580245
     15          1           0        4.011101    0.392680    1.071866
     16          1           0        3.219937   -1.187585   -1.424281
     17          1           0        2.788366   -1.618960    0.226555
     18          1           0        5.225987   -1.863488    0.805246
     19          1           0        5.660010   -1.429661   -0.854970
     20          1           0        4.783318   -2.935580   -0.534146
     21          6           0       -3.482361   -0.279905   -0.370741
     22          6           0       -4.794455    0.044385    0.344262
     23          6           0       -5.723151    0.923077   -0.494319
     24          1           0       -2.970170    0.657707   -0.626651
     25          1           0       -3.705709   -0.783612   -1.321421
     26          1           0       -4.568652    0.546092    1.293956
     27          1           0       -5.303490   -0.894112    0.598669
     28          1           0       -5.977452    0.425937   -1.436010
     29          1           0       -5.238438    1.874324   -0.736773
     30          1           0       -6.655115    1.142637    0.035867
     31          6           0       -2.543381   -1.157601    0.454907
     32          6           0       -1.231288   -1.481892   -0.260097
     33          6           0       -0.302591   -2.360583    0.578484
     34          1           0       -2.320034   -0.653894    1.405586
     35          1           0       -3.055573   -2.095213    0.710816
     36          1           0       -0.722252   -0.543394   -0.514504
     37          1           0       -1.457091   -1.983599   -1.209791
     38          1           0       -0.787304   -3.311830    0.820938
     39          1           0       -0.048290   -1.863443    1.520176
     40          1           0        0.629372   -2.580144    0.048298
 ---------------------------------------------------------------------

 SCF Done:  E(RHF) =  -470.733042406     A.U. after   11 cycles
 E2 =    -0.1583577384D+01 EUMP2 =    -0.47231661978988D+03

 The electronic state is 1-A.
 Alpha  occ. eigenvalues --  -11.21638 -11.21582 -11.21560 -11.21546 -11.21422
 Alpha  occ. eigenvalues --  -11.21380 -11.21360 -11.21321 -11.21129 -11.21060
 Alpha  occ. eigenvalues --  -11.21052 -11.21039  -1.08459  -1.08394  -1.03552
 Alpha  occ. eigenvalues --   -1.03501  -0.95999  -0.95962  -0.87035  -0.86963
 Alpha  occ. eigenvalues --   -0.79672  -0.79512  -0.78294  -0.78193  -0.65149
 Alpha  occ. eigenvalues --   -0.64977  -0.60963  -0.60906  -0.59470  -0.59238
 Alpha  occ. eigenvalues --   -0.57621  -0.57559  -0.55320  -0.55222  -0.52766
 Alpha  occ. eigenvalues --   -0.52634  -0.52446  -0.52342  -0.49951  -0.49897
 Alpha  occ. eigenvalues --   -0.48070  -0.47750  -0.46695  -0.46541  -0.45905
 Alpha  occ. eigenvalues --   -0.45745  -0.45703  -0.45547  -0.43810  -0.43703
 Alpha virt. eigenvalues --    0.20764   0.23180   0.23821   0.24083   0.26302
 Alpha virt. eigenvalues --    0.26514   0.27180   0.27444   0.28041   0.29761
 Alpha virt. eigenvalues --    0.30110   0.31443   0.31569   0.31710   0.32079

 Mulliken charges:
               1
     1  C   -0.302851
     2  C   -0.299518
     3  C   -0.475993
     4  H    0.149900
     5  H    0.154169
     6  H    0.152233
     7  H    0.151983
     8  H    0.154398
     9  H    0.155234
    10  H    0.160670
    11  C   -0.297645
    12  C   -0.307052
    13  C   -0.475219
    14  H    0.149490
    15  H    0.149452
    16  H    0.151226
    17  H    0.160160
    18  H    0.155141
    19  H    0.155042
    20  H    0.160052
    21  C   -0.298459
    22  C   -0.299577
    23  C   -0.475732
    24  H    0.150136
    25  H    0.149439
    26  H    0.151806
    27  H    0.151842
    28  H    0.155107
    29  H    0.155359
    30  H    0.160164
    31  C   -0.298091
    32  C   -0.303472
    33  C   -0.480600
    34  H    0.148753
    35  H    0.149523
    36  H    0.156460
    37  H    0.151668
    38  H    0.154928
    39  H    0.153329
    40  H    0.166541
 Sum of Mulliken charges =  -0.00000

 Dipole moment (field-independent basis, Debye):
    X=              0.0205    Y=              0.0028    Z=             -0.0079  Tot=              0.0221
 Quadrupole moment (field-independent basis, Debye-Ang):
   XX=            -86.0255   YY=            -84.8719   ZZ=            -83.9491
   XY=              1.5029   XZ=             -0.4343   YZ=              0.4554

 Normal termination of Gaussian 16 at Wed May  5 18:25:58 2021.
