 Gaussian 16, Revision A.03,
 Gaussian 16:  EM64L-G16RevA.03 25-Dec-2016

 -------------
 #p 6-31g* mp2
 -------------

 ------------------------------------------------------
 Input file generated by CHIRIPA (05-May-2021 14:51:11)
 ------------------------------------------------------
 Symbolic Z-matrix:
 Charge =  0 Multiplicity = 1

                         Standard orientation:
 ---------------------------------------------------------------------
 Center     Atomic      Atomic             Coordinates (Angstroms)
 Number     Number       Type             X           Y           Z
 ---------------------------------------------------------------------
      1          6           0        3.459275   -0.580174   -0.476034
      2          6           0        4.658702    0.349412   -0.288336
      3          6           0        5.528053    0.453175   -1.541833
      4          1           0        3.818431   -1.579219   -0.758631
      5          1           0        2.851056   -0.217452   -1.316210
      6          1           0        5.263731   -0.014171    0.552119
      7          1           0        4.296658    1.346311   -0.005966
      8          1           0        4.944486    0.837514   -2.384646
      9          1           0        5.917053   -0.530698   -1.823391
     10          1           0        6.379652    1.122650   -1.385494
     11          6           0        2.580635   -0.694243    0.768437
     12          6           0        1.381209   -1.623829    0.580738
     13          6           0        0.511858   -1.727592    1.834236
     14          1           0        3.188855   -1.056966    1.608613
     15          1           0        2.221479    0.304802    1.051033
     16          1           0        1.743253   -2.620728    0.298368
     17          1           0        0.776180   -1.260246   -0.259716
     18          1           0        0.122857   -0.743720    2.115793
     19          1           0        1.095425   -2.111932    2.677049
     20          1           0       -0.339741   -2.397067    1.677897
     21          6           0       -2.504676    1.179379   -0.301024
     22          6           0       -1.866786    1.784605    0.949890
     23          6           0       -0.838079    2.867771    0.623838
     24          1           0       -1.716281    0.757986   -0.939621
     25          1           0       -2.984308    1.978643   -0.882851
     26          1           0       -1.389689    0.984234    1.529889
     27          1           0       -2.656808    2.204436    1.585674
     28          1           0       -1.304042    3.685941    0.065199
     29          1           0       -0.029724    2.458804    0.009096
     30          1           0       -0.394578    3.286783    1.532461
     31          6           0       -3.535235    0.095039    0.008621
     32          6           0       -4.173125   -0.510188   -1.242292
     33          6           0       -5.201831   -1.593353   -0.916240
     34          1           0       -3.055602   -0.704226    0.590449
     35          1           0       -4.323630    0.516432    0.647219
     36          1           0       -3.383103   -0.930019   -1.878076
     37          1           0       -4.650223    0.290184   -1.822291
     38          1           0       -6.010187   -1.184386   -0.301498
     39          1           0       -4.735869   -2.411523   -0.357601
     40          1           0       -5.645332   -2.012366   -1.824863
 ---------------------------------------------------------------------

 SCF Done:  E(RHF) =  -470.733364534     A.U. after   11 cycles
 E2 =    -0.1583379923D+01 EUMP2 =    -0.47231674445729D+03

 The electronic state is 1-A.
 Alpha  occ. eigenvalues --  -11.21676 -11.21620 -11.21615 -11.21604 -11.21445
 Alpha  occ. eigenvalues --  -11.21420 -11.21385 -11.21354 -11.21141 -11.21132
 Alpha  occ. eigenvalues --  -11.21084 -11.21072  -1.08483  -1.08436  -1.03592
 Alpha  occ. eigenvalues --   -1.03535  -0.96026  -0.96001  -0.87054  -0.87007
 Alpha  occ. eigenvalues --   -0.79672  -0.79583  -0.78300  -0.78240  -0.65264
 Alpha  occ. eigenvalues --   -0.64942  -0.61168  -0.60759  -0.59399  -0.59363
 Alpha  occ. eigenvalues --   -0.57660  -0.57587  -0.55325  -0.55288  -0.52724
 Alpha  occ. eigenvalues --   -0.52692  -0.52471  -0.52411  -0.50096  -0.49848
 Alpha  occ. eigenvalues --   -0.48043  -0.47853  -0.46835  -0.46492  -0.45888
 Alpha  occ. eigenvalues --   -0.45808  -0.45733  -0.45563  -0.43829  -0.43801
 Alpha virt. eigenvalues --    0.19174   0.22965   0.23847   0.24888   0.25726
 Alpha virt. eigenvalues --    0.26135   0.26575   0.28240   0.28638   0.29608
 Alpha virt. eigenvalues --    0.29685   0.31508   0.31670   0.31790   0.32182

 Mulliken charges:
               1
     1  C   -0.298259
     2  C   -0.299788
     3  C   -0.475740
     4  H    0.149762
     5  H    0.149186
     6  H    0.151997
     7  H    0.152320
     8  H    0.155251
     9  H    0.155158
    10  H    0.160409
    11  C   -0.299812
    12  C   -0.300329
    13  C   -0.481806
    14  H    0.149840
    15  H    0.151135
    16  H    0.152423
    17  H    0.151803
    18  H    0.160757
    19  H    0.155937
    20  H    0.160044
    21  C   -0.298294
    22  C   -0.307265
    23  C   -0.476397
    24  H    0.149574
    25  H    0.149605
    26  H    0.158990
    27  H    0.152378
    28  H    0.155704
    29  H    0.154777
    30  H    0.160280
    31  C   -0.299496
    32  C   -0.299676
    33  C   -0.475672
    34  H    0.151160
    35  H    0.149679
    36  H    0.151848
    37  H    0.151873
    38  H    0.155217
    39  H    0.155169
    40  H    0.160259
 Sum of Mulliken charges =  -0.00000

 Dipole moment (field-independent basis, Debye):
    X=              0.0089    Y=             -0.0036    Z=              0.0178  Tot=              0.0202
 Quadrupole moment (field-independent basis, Debye-Ang):
   XX=            -84.9600   YY=            -84.3252   ZZ=            -85.3555
   XY=             -1.7459   XZ=              0.8166   YZ=             -0.0377

 Normal termination of Gaussian 16 at Thu May  6 07:02:34 2021.
