 Gaussian 16, Revision A.03,
 Gaussian 16:  EM64L-G16RevA.03 25-Dec-2016

 -------------
 #p 6-31g* mp2
 -------------

 ------------------------------------------------------
 Input file generated by CHIRIPA (05-May-2021 14:51:08)
 ------------------------------------------------------
 Symbolic Z-matrix:
 Charge =  0 Multiplicity = 1

                         Standard orientation:
 ---------------------------------------------------------------------
 Center     Atomic      Atomic             Coordinates (Angstroms)
 Number     Number       Type             X           Y           Z
 ---------------------------------------------------------------------
      1          6           0        2.439599   -0.681833    0.041285
      2          6           0        1.467712   -0.532762    1.212267
      3          6           0        0.074706   -1.078913    0.897549
      4          1           0        2.029837   -0.161944   -0.835502
      5          1           0        2.514051   -1.743652   -0.231467
      6          1           0        1.396175    0.528304    1.483627
      7          1           0        1.879926   -1.052905    2.086422
      8          1           0        0.125741   -2.143610    0.647717
      9          1           0       -0.360758   -0.553416    0.041496
     10          1           0       -0.603905   -0.962209    1.748270
     11          6           0        3.836379   -0.140403    0.340593
     12          6           0        4.808266   -0.289474   -0.830390
     13          6           0        6.201272    0.256676   -0.515672
     14          1           0        3.761927    0.921415    0.613344
     15          1           0        4.246141   -0.660293    1.217379
     16          1           0        4.396052    0.230669   -1.704545
     17          1           0        4.879803   -1.350541   -1.101750
     18          1           0        6.636736   -0.268820    0.340381
     19          1           0        6.150237    1.321373   -0.265840
     20          1           0        6.879883    0.139972   -1.366393
     21          6           0       -2.958970    1.024859    0.227041
     22          6           0       -2.372935    2.170763   -0.598460
     23          6           0       -2.019826    3.391496    0.251788
     24          1           0       -3.856655    1.380609    0.751014
     25          1           0       -2.237665    0.735577    1.003847
     26          1           0       -3.094560    2.456873   -1.374356
     27          1           0       -1.476649    1.812191   -1.120680
     28          1           0       -1.282012    3.127966    1.016498
     29          1           0       -2.909115    3.776311    0.761381
     30          1           0       -1.602548    4.198617   -0.358374
     31          6           0       -3.317008   -0.202622   -0.608918
     32          6           0       -3.903043   -1.348526    0.216582
     33          6           0       -4.256152   -2.569260   -0.633664
     34          1           0       -4.038314    0.086660   -1.385725
     35          1           0       -2.419323   -0.558373   -1.132891
     36          1           0       -4.799328   -0.989954    0.738803
     37          1           0       -3.181418   -1.634636    0.992478
     38          1           0       -3.366863   -2.954074   -1.143258
     39          1           0       -4.993966   -2.305729   -1.398375
     40          1           0       -4.673430   -3.376380   -0.023503
 ---------------------------------------------------------------------

 SCF Done:  E(RHF) =  -470.731641657     A.U. after   11 cycles
 E2 =    -0.1584739032D+01 EUMP2 =    -0.47231638068963D+03

 The electronic state is 1-A.
 Alpha  occ. eigenvalues --  -11.21687 -11.21638 -11.21591 -11.21500 -11.21469
 Alpha  occ. eigenvalues --  -11.21404 -11.21290 -11.21212 -11.21143 -11.21098
 Alpha  occ. eigenvalues --  -11.21075 -11.20998  -1.08511  -1.08351  -1.03600
 Alpha  occ. eigenvalues --   -1.03476  -0.96103  -0.95884  -0.87085  -0.86941
 Alpha  occ. eigenvalues --   -0.79683  -0.79538  -0.78306  -0.78180  -0.65337
 Alpha  occ. eigenvalues --   -0.64890  -0.61041  -0.60813  -0.59436  -0.59288
 Alpha  occ. eigenvalues --   -0.57703  -0.57504  -0.55635  -0.54948  -0.52789
 Alpha  occ. eigenvalues --   -0.52596  -0.52476  -0.52344  -0.50005  -0.49834
 Alpha  occ. eigenvalues --   -0.48005  -0.47857  -0.46755  -0.46522  -0.45918
 Alpha  occ. eigenvalues --   -0.45782  -0.45637  -0.45537  -0.43792  -0.43698
 Alpha virt. eigenvalues --    0.20511   0.22905   0.23754   0.24563   0.25578
 Alpha virt. eigenvalues --    0.26269   0.26893   0.27731   0.27999   0.29874
 Alpha virt. eigenvalues --    0.30364   0.31494   0.31603   0.31923   0.32498

 Mulliken charges:
               1
     1  C   -0.298683
     2  C   -0.300718
     3  C   -0.482593
     4  H    0.149461
     5  H    0.149802
     6  H    0.151895
     7  H    0.152385
     8  H    0.155460
     9  H    0.162748
    10  H    0.161398
    11  C   -0.298364
    12  C   -0.299713
    13  C   -0.475755
    14  H    0.149761
    15  H    0.149840
    16  H    0.152033
    17  H    0.151985
    18  H    0.155236
    19  H    0.155303
    20  H    0.160397
    21  C   -0.305002
    22  C   -0.300117
    23  C   -0.475553
    24  H    0.149570
    25  H    0.157190
    26  H    0.152181
    27  H    0.150242
    28  H    0.154700
    29  H    0.155483
    30  H    0.159939
    31  C   -0.299926
    32  C   -0.302310
    33  C   -0.475670
    34  H    0.149471
    35  H    0.150822
    36  H    0.151323
    37  H    0.155880
    38  H    0.155335
    39  H    0.154783
    40  H    0.159780
 Sum of Mulliken charges =  -0.00000

 Dipole moment (field-independent basis, Debye):
    X=              0.0405    Y=             -0.0232    Z=              0.0230  Tot=              0.0521
 Quadrupole moment (field-independent basis, Debye-Ang):
   XX=            -85.1736   YY=            -84.9050   ZZ=            -84.8975
   XY=             -1.2661   XZ=             -0.0533   YZ=             -0.8731

 Normal termination of Gaussian 16 at Wed May  5 15:05:29 2021.
