 Gaussian 16, Revision A.03,
 Gaussian 16:  EM64L-G16RevA.03 25-Dec-2016

 -------------
 #p 6-31g* mp2
 -------------

 ------------------------------------------------------
 Input file generated by CHIRIPA (05-May-2021 14:57:23)
 ------------------------------------------------------
 Symbolic Z-matrix:
 Charge =  0 Multiplicity = 1

                         Standard orientation:
 ---------------------------------------------------------------------
 Center     Atomic      Atomic             Coordinates (Angstroms)
 Number     Number       Type             X           Y           Z
 ---------------------------------------------------------------------
      1          6           0        5.363952    1.238585   -1.029464
      2          6           0        5.227316    1.240393    0.362602
      3          6           0        4.305501    0.394594    0.986644
      4          6           0        3.533039   -0.443851    0.184396
      5          6           0        3.645926   -0.468743   -1.204822
      6          6           0        4.574213    0.385526   -1.807362
      7          1           0        6.082554    1.898912   -1.505883
      8          1           0        5.839308    1.901828    0.969244
      9          1           0        4.179210    0.375619    2.062334
     10          1           0        3.021854   -1.139281   -1.783036
     11          1           0        4.678177    0.381987   -2.888669
     12          7           0        2.553728   -1.343744    0.833659
     13          8           0        1.885015   -2.072970    0.104490
     14          8           0        2.473401   -1.302814    2.059428
     15          6           0       -1.349851    1.193578    0.172301
     16          6           0       -2.432944    1.910171    0.691844
     17          6           0       -3.736333    1.422149    0.559330
     18          6           0       -3.921107    0.208718   -0.101529
     19          6           0       -2.862535   -0.528479   -0.629975
     20          6           0       -1.567719   -0.021318   -0.485790
     21          1           0       -0.340677    1.580118    0.279774
     22          1           0       -2.266731    2.853951    1.203407
     23          1           0       -4.592950    1.956407    0.952003
     24          1           0       -3.059695   -1.466362   -1.134871
     25          1           0       -0.728474   -0.579982   -0.890275
     26          7           0       -5.296409   -0.318059   -0.247992
     27          8           0       -5.432624   -1.389562   -0.834476
     28          8           0       -6.212112    0.350531    0.226465
 ---------------------------------------------------------------------

 SCF Done:  E(RHF) =  -868.338856386     A.U. after   16 cycles
 E2 =    -0.2599040422D+01 EUMP2 =    -0.87093789680733D+03

 The electronic state is 1-A.
 Alpha  occ. eigenvalues --  -20.61834 -20.61785 -20.60258 -20.60249 -15.86839
 Alpha  occ. eigenvalues --  -15.85304 -11.32101 -11.30585 -11.28655 -11.28625
 Alpha  occ. eigenvalues --  -11.28324 -11.27610 -11.27596 -11.27163 -11.27075
 Alpha  occ. eigenvalues --  -11.26883 -11.26202 -11.26021  -1.60876  -1.59332
 Alpha  occ. eigenvalues --   -1.40432  -1.38888  -1.20253  -1.18738  -1.09659
 Alpha  occ. eigenvalues --   -1.08159  -1.05627  -1.04116  -0.96511  -0.95013
 Alpha  occ. eigenvalues --   -0.87027  -0.85526  -0.83339  -0.81836  -0.78413
 Alpha  occ. eigenvalues --   -0.76889  -0.73046  -0.72208  -0.71526  -0.71332
 Alpha  occ. eigenvalues --   -0.70651  -0.69881  -0.65893  -0.65607  -0.64394
 Alpha  occ. eigenvalues --   -0.64105  -0.62969  -0.61458  -0.56104  -0.54666
 Alpha  occ. eigenvalues --   -0.53975  -0.53702  -0.52461  -0.52201  -0.49819
 Alpha  occ. eigenvalues --   -0.49791  -0.48285  -0.48277  -0.45840  -0.44312
 Alpha  occ. eigenvalues --   -0.38222  -0.37232  -0.36728  -0.35705
 Alpha virt. eigenvalues --    0.04065   0.05624   0.10415   0.11941   0.15569
 Alpha virt. eigenvalues --    0.17145   0.20586   0.21981   0.26465   0.27185
 Alpha virt. eigenvalues --    0.28166   0.28719   0.30245   0.31139   0.32251

 Mulliken charges:
               1
     1  C   -0.170404
     2  C   -0.218594
     3  C   -0.172175
     4  C    0.155166
     5  C   -0.173747
     6  C   -0.218237
     7  H    0.228701
     8  H    0.226199
     9  H    0.277159
    10  H    0.274718
    11  H    0.226297
    12  N    0.487068
    13  O   -0.464273
    14  O   -0.454703
    15  C   -0.170418
    16  C   -0.218097
    17  C   -0.172246
    18  C    0.158580
    19  C   -0.171567
    20  C   -0.218502
    21  H    0.220681
    22  H    0.220275
    23  H    0.273424
    24  H    0.276084
    25  H    0.233613
    26  N    0.488108
    27  O   -0.460666
    28  O   -0.462447
 Sum of Mulliken charges =  -0.00000

 Dipole moment (field-independent basis, Debye):
    X=              8.6702    Y=              4.9688    Z=             -1.7627  Tot=             10.1474
 Quadrupole moment (field-independent basis, Debye-Ang):
   XX=           -118.1993   YY=           -104.0843   ZZ=           -101.1047
   XY=              3.0043   XZ=             -9.6986   YZ=              5.5140

 Normal termination of Gaussian 16 at Thu May  6 05:01:24 2021.
