 Gaussian 16, Revision A.03,
 Gaussian 16:  EM64L-G16RevA.03 25-Dec-2016

 -------------
 #p 6-31g* mp2
 -------------

 ------------------------------------------------------
 Input file generated by CHIRIPA (05-May-2021 14:53:13)
 ------------------------------------------------------
 Symbolic Z-matrix:
 Charge =  0 Multiplicity = 1

                         Standard orientation:
 ---------------------------------------------------------------------
 Center     Atomic      Atomic             Coordinates (Angstroms)
 Number     Number       Type             X           Y           Z
 ---------------------------------------------------------------------
      1          6           0       -4.934172    0.398813   -0.200379
      2          6           0       -5.582577   -0.980049   -0.328034
      3          6           0       -7.110020   -0.920475   -0.293904
      4          1           0       -5.263437    0.866381    0.737656
      5          1           0       -5.295200    1.042831   -1.014194
      6          1           0       -5.219373   -1.621699    0.484975
      7          1           0       -5.251580   -1.444469   -1.265782
      8          1           0       -7.489875   -0.302676   -1.114047
      9          1           0       -7.457484   -0.480913    0.646658
     10          1           0       -7.552832   -1.917057   -0.386642
     11          6           0       -3.407472    0.355689   -0.232831
     12          6           0       -2.759067    1.734551   -0.105176
     13          6           0       -1.231624    1.674976   -0.139306
     14          1           0       -3.046444   -0.288330    0.580984
     15          1           0       -3.078207   -0.111880   -1.170866
     16          1           0       -3.090063    2.198970    0.832572
     17          1           0       -3.122271    2.376200   -0.918185
     18          1           0       -0.884160    1.235414   -1.079868
     19          1           0       -0.851769    1.057177    0.680838
     20          1           0       -0.788812    2.671558   -0.046568
     21          6           0        1.143743   -0.891778    1.409161
     22          6           0        1.752806   -1.831512    0.571031
     23          6           0        2.924759   -1.511648   -0.120896
     24          6           0        3.462897   -0.237006    0.049350
     25          6           0        2.879595    0.721017    0.877141
     26          6           0        1.708085    0.379246    1.559276
     27          1           0        0.233515   -1.148765    1.942863
     28          1           0        1.316763   -2.819373    0.452537
     29          1           0        3.417031   -2.219974   -0.776152
     30          1           0        3.337781    1.697688    0.975106
     31          1           0        1.237253    1.111068    2.209507
     32          7           0        4.703356    0.113215   -0.677979
     33          8           0        5.157602    1.242996   -0.510974
     34          8           0        5.197892   -0.748695   -1.401292
 ---------------------------------------------------------------------

 SCF Done:  E(RHF) =  -669.533939715     A.U. after   15 cycles
 E2 =    -0.2092651892D+01 EUMP2 =    -0.67162659160752D+03

 The electronic state is 1-A.
 Alpha  occ. eigenvalues --  -20.60745 -20.60739 -15.85798 -11.31165 -11.27728
 Alpha  occ. eigenvalues --  -11.27711 -11.27475 -11.26755 -11.26735 -11.22143
 Alpha  occ. eigenvalues --  -11.22090 -11.22009 -11.21881 -11.21584 -11.21478
 Alpha  occ. eigenvalues --   -1.59820  -1.39373  -1.19341  -1.08979  -1.08744
 Alpha  occ. eigenvalues --   -1.04748  -1.04044  -0.96503  -0.95575  -0.87527
 Alpha  occ. eigenvalues --   -0.86145  -0.82404  -0.80115  -0.78796  -0.77446
 Alpha  occ. eigenvalues --   -0.72018  -0.71142  -0.70468  -0.65624  -0.65001
 Alpha  occ. eigenvalues --   -0.64765  -0.62114  -0.61432  -0.59868  -0.58121
 Alpha  occ. eigenvalues --   -0.55822  -0.55263  -0.53432  -0.53142  -0.52837
 Alpha  occ. eigenvalues --   -0.52621  -0.50426  -0.48776  -0.48771  -0.48414
 Alpha  occ. eigenvalues --   -0.47153  -0.46333  -0.46265  -0.44779  -0.44312
 Alpha  occ. eigenvalues --   -0.37242  -0.36298
 Alpha virt. eigenvalues --    0.05058   0.11249   0.16494   0.20424   0.22589
 Alpha virt. eigenvalues --    0.23995   0.25737   0.26718   0.26723   0.28074
 Alpha virt. eigenvalues --    0.28798   0.30562   0.31203   0.31440   0.31680

 Mulliken charges:
               1
     1  C   -0.298447
     2  C   -0.299700
     3  C   -0.475935
     4  H    0.149746
     5  H    0.151812
     6  H    0.149756
     7  H    0.152640
     8  H    0.156533
     9  H    0.155469
    10  H    0.161095
    11  C   -0.296743
    12  C   -0.300801
    13  C   -0.474914
    14  H    0.141755
    15  H    0.151457
    16  H    0.150328
    17  H    0.154754
    18  H    0.159802
    19  H    0.148727
    20  H    0.159437
    21  C   -0.169544
    22  C   -0.218894
    23  C   -0.171396
    24  C    0.158514
    25  C   -0.172457
    26  C   -0.213755
    27  H    0.225049
    28  H    0.223446
    29  H    0.275449
    30  H    0.275483
    31  H    0.224260
    32  N    0.488060
    33  O   -0.460414
    34  O   -0.460573
 Sum of Mulliken charges =  -0.00000

 Dipole moment (field-independent basis, Debye):
    X=             -4.4202    Y=             -1.2162    Z=              2.4986  Tot=              5.2211
 Quadrupole moment (field-independent basis, Debye-Ang):
   XX=           -126.8300   YY=            -90.1408   ZZ=            -93.2848
   XY=             -3.4742   XZ=              8.8961   YZ=              1.3437

 Normal termination of Gaussian 16 at Thu May  6 15:22:45 2021.
