 Gaussian 16, Revision A.03,
 Gaussian 16:  EM64L-G16RevA.03 25-Dec-2016

 -------------
 #p 6-31g* mp2
 -------------

 ------------------------------------------------------
 Input file generated by CHIRIPA (05-May-2021 14:53:16)
 ------------------------------------------------------
 Symbolic Z-matrix:
 Charge =  0 Multiplicity = 1

                         Standard orientation:
 ---------------------------------------------------------------------
 Center     Atomic      Atomic             Coordinates (Angstroms)
 Number     Number       Type             X           Y           Z
 ---------------------------------------------------------------------
      1          6           0        4.214237   -0.370827    0.156039
      2          6           0        4.899642    0.414031   -0.962979
      3          6           0        6.264205   -0.163541   -1.340035
      4          1           0        4.866328   -0.381788    1.040121
      5          1           0        4.096389   -1.417067   -0.158424
      6          1           0        5.014913    1.458787   -0.647047
      7          1           0        4.245760    0.423288   -1.844437
      8          1           0        6.163432   -1.199161   -1.680530
      9          1           0        6.936956   -0.157778   -0.476337
     10          1           0        6.736438    0.412748   -2.141750
     11          6           0        2.849094    0.194419    0.544127
     12          6           0        2.163689   -0.590439    1.663146
     13          6           0        0.799126   -0.012867    2.040201
     14          1           0        2.966942    1.240660    0.858591
     15          1           0        2.197003    0.205380   -0.339955
     16          1           0        2.817572   -0.599696    2.544603
     17          1           0        2.048418   -1.635195    1.347213
     18          1           0        0.126375   -0.018630    1.176503
     19          1           0        0.899899    1.022753    2.380697
     20          1           0        0.326893   -0.589155    2.841917
     21          6           0       -2.458862    2.565275   -0.063912
     22          6           0       -2.484019    1.764543    1.082699
     23          6           0       -2.649808    0.380272    0.978506
     24          6           0       -2.788141   -0.172431   -0.293765
     25          6           0       -2.767248    0.598702   -1.454889
     26          6           0       -2.600308    1.980829   -1.326819
     27          1           0       -2.329625    3.639778    0.026301
     28          1           0       -2.374410    2.215695    2.064786
     29          1           0       -2.672967   -0.263149    1.849650
     30          1           0       -2.879040    0.120129   -2.420233
     31          1           0       -2.581155    2.600222   -2.219025
     32          7           0       -2.964265   -1.636761   -0.416708
     33          8           0       -3.084002   -2.099342   -1.549103
     34          8           0       -2.979237   -2.294196    0.621653
 ---------------------------------------------------------------------

 SCF Done:  E(RHF) =  -669.534636835     A.U. after   15 cycles
 E2 =    -0.2092484885D+01 EUMP2 =    -0.67162712171955D+03

 The electronic state is 1-A.
 Alpha  occ. eigenvalues --  -20.60780 -20.60773 -15.85834 -11.31183 -11.27774
 Alpha  occ. eigenvalues --  -11.27738 -11.27504 -11.26770 -11.26738 -11.21656
 Alpha  occ. eigenvalues --  -11.21607 -11.21452 -11.21381 -11.21148 -11.21099
 Alpha  occ. eigenvalues --   -1.59857  -1.39409  -1.19378  -1.08763  -1.08470
 Alpha  occ. eigenvalues --   -1.04778  -1.03575  -0.96049  -0.95596  -0.87074
 Alpha  occ. eigenvalues --   -0.86165  -0.82428  -0.79654  -0.78286  -0.77472
 Alpha  occ. eigenvalues --   -0.72050  -0.71186  -0.70476  -0.65102  -0.65018
 Alpha  occ. eigenvalues --   -0.64762  -0.62116  -0.60982  -0.59406  -0.57664
 Alpha  occ. eigenvalues --   -0.55395  -0.55265  -0.53320  -0.52877  -0.52697
 Alpha  occ. eigenvalues --   -0.52293  -0.49953  -0.48809  -0.48805  -0.47952
 Alpha  occ. eigenvalues --   -0.46666  -0.45828  -0.45746  -0.44812  -0.43842
 Alpha  occ. eigenvalues --   -0.37355  -0.36276
 Alpha virt. eigenvalues --    0.05048   0.11255   0.16507   0.21241   0.22828
 Alpha virt. eigenvalues --    0.24201   0.26522   0.26764   0.27423   0.28021
 Alpha virt. eigenvalues --    0.28526   0.30399   0.31473   0.31568   0.31940

 Mulliken charges:
               1
     1  C   -0.298600
     2  C   -0.299518
     3  C   -0.475777
     4  H    0.149571
     5  H    0.151872
     6  H    0.150375
     7  H    0.151722
     8  H    0.156444
     9  H    0.155177
    10  H    0.159798
    11  C   -0.298076
    12  C   -0.300019
    13  C   -0.480503
    14  H    0.146641
    15  H    0.149983
    16  H    0.151173
    17  H    0.157001
    18  H    0.162081
    19  H    0.148290
    20  H    0.159213
    21  C   -0.170985
    22  C   -0.214382
    23  C   -0.172337
    24  C    0.158701
    25  C   -0.171769
    26  C   -0.218680
    27  H    0.225692
    28  H    0.224159
    29  H    0.276832
    30  H    0.275537
    31  H    0.223401
    32  N    0.488135
    33  O   -0.460807
    34  O   -0.460344
 Sum of Mulliken charges =  -0.00000

 Dipole moment (field-independent basis, Debye):
    X=              0.5929    Y=              5.1290    Z=              0.4206  Tot=              5.1803
 Quadrupole moment (field-independent basis, Debye-Ang):
   XX=            -99.9209   YY=            -96.8354   ZZ=            -89.8772
   XY=            -14.3138   XZ=             -0.5808   YZ=             -1.8558

 Normal termination of Gaussian 16 at Wed May  5 17:12:48 2021.
