 Gaussian 16, Revision A.03,
 Gaussian 16:  EM64L-G16RevA.03 25-Dec-2016

 -------------
 #p 6-31g* mp2
 -------------

 ------------------------------------------------------
 Input file generated by CHIRIPA (05-May-2021 14:55:21)
 ------------------------------------------------------
 Symbolic Z-matrix:
 Charge =  0 Multiplicity = 1

                         Standard orientation:
 ---------------------------------------------------------------------
 Center     Atomic      Atomic             Coordinates (Angstroms)
 Number     Number       Type             X           Y           Z
 ---------------------------------------------------------------------
      1          6           0        0.709484    0.646669    0.715647
      2          6           0        1.055370    0.500002   -0.631711
      3          6           0        2.355808    0.138037   -0.995564
      4          6           0        3.289402   -0.070435    0.018454
      5          6           0        2.975460    0.067854    1.369604
      6          6           0        1.668942    0.430508    1.710251
      7          1           0       -0.303089    0.928120    0.989283
      8          1           0        0.312308    0.667237   -1.406267
      9          1           0        2.650646    0.017575   -2.030928
     10          1           0        3.737950   -0.105574    2.119237
     11          1           0        1.403160    0.543687    2.757435
     12          7           0        4.669336   -0.453995   -0.354458
     13          8           0        5.473453   -0.631985    0.557875
     14          8           0        4.920681   -0.569378   -1.552018
     15          6           0       -4.430818   -0.550345   -0.009172
     16          6           0       -3.821876   -1.949901   -0.100908
     17          6           0       -4.857630   -3.058746    0.087427
     18          1           0       -4.921211   -0.434031    0.967009
     19          1           0       -5.218621   -0.450330   -0.768618
     20          1           0       -3.034511   -2.046774    0.657569
     21          1           0       -3.332710   -2.062829   -1.076911
     22          1           0       -5.638401   -2.990477   -0.676993
     23          1           0       -5.338507   -2.974331    1.067341
     24          1           0       -4.400752   -4.050869    0.018062
     25          6           0       -3.407830    0.568825   -0.195408
     26          6           0       -4.016772    1.968382   -0.103671
     27          6           0       -2.981018    3.077227   -0.292007
     28          1           0       -2.620027    0.468811    0.564038
     29          1           0       -2.917437    0.452512   -1.171590
     30          1           0       -4.505937    2.081310    0.872331
     31          1           0       -4.804137    2.065255   -0.862149
     32          1           0       -2.500140    2.992811   -1.271922
     33          1           0       -2.200247    3.008958    0.472413
     34          1           0       -3.437896    4.069350   -0.222642
 ---------------------------------------------------------------------

 SCF Done:  E(RHF) =  -669.535478695     A.U. after   15 cycles
 E2 =    -0.2091715976D+01 EUMP2 =    -0.67162719467091D+03

 The electronic state is 1-A.
 Alpha  occ. eigenvalues --  -20.60707 -20.60702 -15.85760 -11.31110 -11.27680
 Alpha  occ. eigenvalues --  -11.27671 -11.27372 -11.26688 -11.26665 -11.22677
 Alpha  occ. eigenvalues --  -11.22617 -11.22371 -11.22277 -11.22210 -11.21671
 Alpha  occ. eigenvalues --   -1.59783  -1.39337  -1.19277  -1.09442  -1.08670
 Alpha  occ. eigenvalues --   -1.04680  -1.04449  -0.96916  -0.95512  -0.87925
 Alpha  occ. eigenvalues --   -0.86074  -0.82351  -0.80526  -0.79270  -0.77397
 Alpha  occ. eigenvalues --   -0.71978  -0.71106  -0.70400  -0.66069  -0.64926
 Alpha  occ. eigenvalues --   -0.64682  -0.62030  -0.61839  -0.60289  -0.58522
 Alpha  occ. eigenvalues --   -0.56226  -0.55201  -0.53556  -0.53347  -0.52999
 Alpha  occ. eigenvalues --   -0.52770  -0.50861  -0.48828  -0.48737  -0.48733
 Alpha  occ. eigenvalues --   -0.47559  -0.46771  -0.46695  -0.44746  -0.44727
 Alpha  occ. eigenvalues --   -0.37246  -0.36286
 Alpha virt. eigenvalues --    0.05122   0.11361   0.16571   0.18868   0.22559
 Alpha virt. eigenvalues --    0.23775   0.23861   0.25684   0.27063   0.27878
 Alpha virt. eigenvalues --    0.29447   0.30033   0.30988   0.31381   0.31822

 Mulliken charges:
               1
     1  C   -0.176252
     2  C   -0.221581
     3  C   -0.171085
     4  C    0.158391
     5  C   -0.170765
     6  C   -0.220157
     7  H    0.234909
     8  H    0.224517
     9  H    0.275243
    10  H    0.275188
    11  H    0.223121
    12  N    0.488027
    13  O   -0.460681
    14  O   -0.460673
    15  C   -0.298214
    16  C   -0.300366
    17  C   -0.476372
    18  H    0.151808
    19  H    0.153143
    20  H    0.151318
    21  H    0.152510
    22  H    0.156687
    23  H    0.156099
    24  H    0.163107
    25  C   -0.303114
    26  C   -0.300346
    27  C   -0.477866
    28  H    0.142603
    29  H    0.148026
    30  H    0.154824
    31  H    0.156799
    32  H    0.154743
    33  H    0.149621
    34  H    0.166786
 Sum of Mulliken charges =  -0.00000

 Dipole moment (field-independent basis, Debye):
    X=             -5.1502    Y=              1.3371    Z=              1.2769  Tot=              5.4720
 Quadrupole moment (field-independent basis, Debye-Ang):
   XX=           -126.4100   YY=            -96.1872   ZZ=            -89.0573
   XY=              4.1471   XZ=              6.0142   YZ=             -0.1573

 Normal termination of Gaussian 16 at Thu May  6 07:45:50 2021.
