 Gaussian 16, Revision A.03,
 Gaussian 16:  EM64L-G16RevA.03 25-Dec-2016

 -------------
 #p 6-31g* mp2
 -------------

 ------------------------------------------------------
 Input file generated by CHIRIPA (05-May-2021 14:55:23)
 ------------------------------------------------------
 Symbolic Z-matrix:
 Charge =  0 Multiplicity = 1

                         Standard orientation:
 ---------------------------------------------------------------------
 Center     Atomic      Atomic             Coordinates (Angstroms)
 Number     Number       Type             X           Y           Z
 ---------------------------------------------------------------------
      1          6           0        2.600283    0.175004    2.444819
      2          6           0        2.323476    1.205659    1.540579
      3          6           0        2.125609    0.926789    0.184988
      4          6           0        2.212157   -0.400018   -0.233800
      5          6           0        2.486387   -1.448770    0.642675
      6          6           0        2.680714   -1.146591    1.993776
      7          1           0        2.752616    0.400690    3.496131
      8          1           0        2.260419    2.232958    1.888035
      9          1           0        1.909936    1.705377   -0.536610
     10          1           0        2.542994   -2.463019    0.266495
     11          1           0        2.895542   -1.949035    2.693760
     12          7           0        2.004559   -0.707583   -1.666527
     13          8           0        2.086085   -1.884786   -2.010304
     14          8           0        1.764247    0.234375   -2.418592
     15          6           0       -3.120137   -0.264576   -0.133274
     16          6           0       -4.358120   -0.638876    0.682375
     17          6           0       -4.835808   -2.065705    0.410774
     18          1           0       -3.344525   -0.380371   -1.202473
     19          1           0       -2.311448   -0.972650    0.094861
     20          1           0       -5.163801    0.070525    0.453805
     21          1           0       -4.130819   -0.521991    1.749750
     22          1           0       -4.050802   -2.788137    0.656656
     23          1           0       -5.089653   -2.192254   -0.646651
     24          1           0       -5.721749   -2.312273    1.004215
     25          6           0       -2.630575    1.158855    0.127307
     26          6           0       -1.392592    1.533154   -0.688342
     27          6           0       -0.914906    2.959984   -0.416741
     28          1           0       -3.439265    1.866930   -0.100829
     29          1           0       -2.406188    1.274650    1.196506
     30          1           0       -1.619894    1.416270   -1.755716
     31          1           0       -0.586912    0.823753   -0.459772
     32          1           0       -0.661061    3.086533    0.640684
     33          1           0       -1.699912    3.682416   -0.662623
     34          1           0       -0.028965    3.206551   -1.010182
 ---------------------------------------------------------------------

 SCF Done:  E(RHF) =  -669.534444750     A.U. after   15 cycles
 E2 =    -0.2094266740D+01 EUMP2 =    -0.67162871148996D+03

 The electronic state is 1-A.
 Alpha  occ. eigenvalues --  -20.60833 -20.60809 -15.85859 -11.31209 -11.27812
 Alpha  occ. eigenvalues --  -11.27762 -11.27552 -11.26806 -11.26787 -11.21511
 Alpha  occ. eigenvalues --  -11.21396 -11.21299 -11.21282 -11.21210 -11.20960
 Alpha  occ. eigenvalues --   -1.59887  -1.39442  -1.19414  -1.08803  -1.08329
 Alpha  occ. eigenvalues --   -1.04819  -1.03473  -0.95981  -0.95623  -0.86984
 Alpha  occ. eigenvalues --   -0.86212  -0.82464  -0.79526  -0.78133  -0.77506
 Alpha  occ. eigenvalues --   -0.72084  -0.71215  -0.70531  -0.65057  -0.65010
 Alpha  occ. eigenvalues --   -0.64786  -0.62232  -0.60859  -0.59305  -0.57554
 Alpha  occ. eigenvalues --   -0.55376  -0.55203  -0.53135  -0.52962  -0.52613
 Alpha  occ. eigenvalues --   -0.52332  -0.49906  -0.48851  -0.48839  -0.47852
 Alpha  occ. eigenvalues --   -0.46562  -0.45715  -0.45597  -0.44756  -0.43723
 Alpha  occ. eigenvalues --   -0.37366  -0.36358
 Alpha virt. eigenvalues --    0.04996   0.11182   0.16443   0.20717   0.23051
 Alpha virt. eigenvalues --    0.24104   0.26492   0.26614   0.27200   0.27932
 Alpha virt. eigenvalues --    0.29298   0.29822   0.31399   0.31545   0.32172

 Mulliken charges:
               1
     1  C   -0.170749
     2  C   -0.220406
     3  C   -0.173419
     4  C    0.158126
     5  C   -0.171209
     6  C   -0.219038
     7  H    0.225836
     8  H    0.224551
     9  H    0.281815
    10  H    0.275781
    11  H    0.223536
    12  N    0.489376
    13  O   -0.460090
    14  O   -0.459917
    15  C   -0.298373
    16  C   -0.299452
    17  C   -0.475574
    18  H    0.153555
    19  H    0.149349
    20  H    0.151759
    21  H    0.149527
    22  H    0.154911
    23  H    0.157021
    24  H    0.159180
    25  C   -0.297999
    26  C   -0.300934
    27  C   -0.482083
    28  H    0.148942
    29  H    0.145609
    30  H    0.162080
    31  H    0.152610
    32  H    0.147526
    33  H    0.159106
    34  H    0.159050
 Sum of Mulliken charges =  -0.00000

 Dipole moment (field-independent basis, Debye):
    X=              0.7433    Y=              1.0382    Z=              4.9309  Tot=              5.0935
 Quadrupole moment (field-independent basis, Debye-Ang):
   XX=            -92.0888   YY=            -92.0384   ZZ=            -96.8998
   XY=              0.6203   XZ=             12.0482   YZ=             -3.8062

 Normal termination of Gaussian 16 at Wed May  5 22:21:47 2021.
