 Gaussian 16, Revision A.03,
 Gaussian 16:  EM64L-G16RevA.03 25-Dec-2016

 -------------
 #p 6-31g* mp2
 -------------

 ------------------------------------------------------
 Input file generated by CHIRIPA (05-May-2021 14:53:12)
 ------------------------------------------------------
 Symbolic Z-matrix:
 Charge =  0 Multiplicity = 1

                         Standard orientation:
 ---------------------------------------------------------------------
 Center     Atomic      Atomic             Coordinates (Angstroms)
 Number     Number       Type             X           Y           Z
 ---------------------------------------------------------------------
      1          6           0        3.796751   -0.219842   -0.248742
      2          6           0        3.868805   -1.591276    0.423540
      3          6           0        4.753554   -2.577790   -0.339221
      4          1           0        3.416472   -0.339893   -1.272421
      5          1           0        4.812096    0.190518   -0.338601
      6          1           0        2.853490   -1.998320    0.513356
      7          1           0        4.248776   -1.467925    1.445803
      8          1           0        5.777020   -2.196896   -0.416923
      9          1           0        4.373806   -2.730305   -1.354668
     10          1           0        4.790889   -3.551640    0.158857
     11          6           0        2.915982    0.777334    0.502000
     12          6           0        2.843927    2.148768   -0.170281
     13          6           0        1.959179    3.135282    0.592480
     14          1           0        1.900637    0.366974    0.591859
     15          1           0        3.296261    0.897385    1.525680
     16          1           0        2.463956    2.025416   -1.192545
     17          1           0        3.859242    2.555812   -0.260098
     18          1           0        2.338926    3.287797    1.607926
     19          1           0        0.935713    2.754388    0.670181
     20          1           0        1.921843    4.109132    0.094401
     21          6           0       -2.828216   -2.714930    0.197140
     22          6           0       -1.637923   -2.163427   -0.288214
     23          6           0       -1.512523   -0.781188   -0.456258
     24          6           0       -2.602241    0.023646   -0.127552
     25          6           0       -3.801230   -0.495775    0.358159
     26          6           0       -3.904173   -1.880815    0.518211
     27          1           0       -2.916908   -3.789775    0.324576
     28          1           0       -0.800682   -2.808788   -0.538378
     29          1           0       -0.602571   -0.327714   -0.830113
     30          1           0       -4.618570    0.173101    0.598947
     31          1           0       -4.829779   -2.306339    0.895342
     32          7           0       -2.481372    1.488443   -0.301221
     33          8           0       -3.455990    2.175932   -0.004380
     34          8           0       -1.414306    1.921324   -0.730896
 ---------------------------------------------------------------------

 SCF Done:  E(RHF) =  -669.536152485     A.U. after   15 cycles
 E2 =    -0.2091698686D+01 EUMP2 =    -0.67162785117120D+03

 The electronic state is 1-A.
 Alpha  occ. eigenvalues --  -20.60965 -20.60951 -15.85987 -11.31306 -11.27871
 Alpha  occ. eigenvalues --  -11.27862 -11.27599 -11.26876 -11.26865 -11.21824
 Alpha  occ. eigenvalues --  -11.21403 -11.21313 -11.21193 -11.20999 -11.19998
 Alpha  occ. eigenvalues --   -1.60019  -1.39576  -1.19473  -1.08877  -1.08302
 Alpha  occ. eigenvalues --   -1.04869  -1.03267  -0.95736  -0.95683  -0.86718
 Alpha  occ. eigenvalues --   -0.86268  -0.82554  -0.79393  -0.78060  -0.77605
 Alpha  occ. eigenvalues --   -0.72214  -0.71331  -0.70581  -0.65132  -0.64972
 Alpha  occ. eigenvalues --   -0.64849  -0.62216  -0.60652  -0.59155  -0.57298
 Alpha  occ. eigenvalues --   -0.55372  -0.54974  -0.53198  -0.52961  -0.52374
 Alpha  occ. eigenvalues --   -0.52121  -0.49663  -0.48975  -0.48951  -0.47680
 Alpha  occ. eigenvalues --   -0.46468  -0.45618  -0.45529  -0.44859  -0.43548
 Alpha  occ. eigenvalues --   -0.37447  -0.36467
 Alpha virt. eigenvalues --    0.04867   0.11151   0.16348   0.19902   0.22868
 Alpha virt. eigenvalues --    0.24193   0.25717   0.27184   0.27881   0.28397
 Alpha virt. eigenvalues --    0.29635   0.30265   0.31696   0.31888   0.32219

 Mulliken charges:
               1
     1  C   -0.298400
     2  C   -0.297591
     3  C   -0.475541
     4  H    0.146865
     5  H    0.151472
     6  H    0.143329
     7  H    0.153860
     8  H    0.157486
     9  H    0.153376
    10  H    0.158928
    11  C   -0.298965
    12  C   -0.298647
    13  C   -0.481762
    14  H    0.144324
    15  H    0.149895
    16  H    0.154112
    17  H    0.148581
    18  H    0.147592
    19  H    0.175411
    20  H    0.161407
    21  C   -0.170498
    22  C   -0.218941
    23  C   -0.173329
    24  C    0.158226
    25  C   -0.170615
    26  C   -0.218447
    27  H    0.226186
    28  H    0.224204
    29  H    0.278014
    30  H    0.275913
    31  H    0.223938
    32  N    0.489138
    33  O   -0.458327
    34  O   -0.461195
 Sum of Mulliken charges =  -0.00000

 Dipole moment (field-independent basis, Debye):
    X=             -0.6057    Y=             -5.0707    Z=              0.5992  Tot=              5.1417
 Quadrupole moment (field-independent basis, Debye-Ang):
   XX=            -87.9339   YY=            -96.0237   ZZ=            -95.1600
   XY=             13.7100   XZ=             -2.7610   YZ=              0.5732

 Normal termination of Gaussian 16 at Thu May  6 15:21:16 2021.
