 Gaussian 16, Revision A.03,
 Gaussian 16:  EM64L-G16RevA.03 25-Dec-2016

 -------------
 #p 6-31g* mp2
 -------------

 ------------------------------------------------------
 Input file generated by CHIRIPA (05-May-2021 14:55:23)
 ------------------------------------------------------
 Symbolic Z-matrix:
 Charge =  0 Multiplicity = 1

                         Standard orientation:
 ---------------------------------------------------------------------
 Center     Atomic      Atomic             Coordinates (Angstroms)
 Number     Number       Type             X           Y           Z
 ---------------------------------------------------------------------
      1          6           0       -2.091685    2.455417   -0.767611
      2          6           0       -1.234888    1.495622   -1.316440
      3          6           0       -1.476742    0.132718   -1.120102
      4          6           0       -2.589651   -0.236651   -0.366252
      5          6           0       -3.461766    0.695745    0.193518
      6          6           0       -3.200435    2.053124   -0.015710
      7          1           0       -1.896242    3.512007   -0.925138
      8          1           0       -0.373056    1.805139   -1.900812
      9          1           0       -0.829732   -0.631386   -1.533552
     10          1           0       -4.312857    0.356559    0.771457
     11          1           0       -3.867543    2.796306    0.411716
     12          7           0       -2.856001   -1.676572   -0.151575
     13          8           0       -3.843250   -1.976115    0.516444
     14          8           0       -2.072472   -2.478374   -0.655395
     15          6           0        3.611840   -0.279263   -0.103254
     16          6           0        5.101742    0.060710   -0.154221
     17          6           0        5.794644   -0.503163   -1.395078
     18          1           0        3.490254   -1.370829   -0.128676
     19          1           0        3.122748    0.110839   -1.006583
     20          1           0        5.587624   -0.328712    0.749595
     21          1           0        5.219802    1.151588   -0.128482
     22          1           0        5.336520   -0.105334   -2.306370
     23          1           0        5.706430   -1.594046   -1.423304
     24          1           0        6.858908   -0.248327   -1.411275
     25          6           0        2.905289    0.277560    1.131436
     26          6           0        1.415387   -0.062413    1.182403
     27          6           0        0.722483    0.501461    2.423260
     28          1           0        3.394380   -0.112542    2.034766
     29          1           0        3.026875    1.369127    1.156858
     30          1           0        1.297326   -1.153291    1.156664
     31          1           0        0.929505    0.327010    0.278587
     32          1           0        0.810699    1.592343    2.451486
     33          1           0        1.180609    0.103632    3.334552
     34          1           0       -0.341779    0.246624    2.439457
 ---------------------------------------------------------------------

 SCF Done:  E(RHF) =  -669.534536544     A.U. after   15 cycles
 E2 =    -0.2093563273D+01 EUMP2 =    -0.67162809981730D+03

 The electronic state is 1-A.
 Alpha  occ. eigenvalues --  -20.60803 -20.60798 -15.85859 -11.31236 -11.27822
 Alpha  occ. eigenvalues --  -11.27810 -11.27566 -11.26820 -11.26810 -11.21795
 Alpha  occ. eigenvalues --  -11.21617 -11.21592 -11.21503 -11.21242 -11.21114
 Alpha  occ. eigenvalues --   -1.59879  -1.39431  -1.19428  -1.08810  -1.08591
 Alpha  occ. eigenvalues --   -1.04845  -1.03649  -0.96111  -0.95643  -0.87125
 Alpha  occ. eigenvalues --   -0.86224  -0.82484  -0.79733  -0.78430  -0.77508
 Alpha  occ. eigenvalues --   -0.72075  -0.71205  -0.70528  -0.65258  -0.65060
 Alpha  occ. eigenvalues --   -0.64828  -0.62188  -0.61064  -0.59492  -0.57745
 Alpha  occ. eigenvalues --   -0.55422  -0.55325  -0.53190  -0.52920  -0.52717
 Alpha  occ. eigenvalues --   -0.52524  -0.50058  -0.48837  -0.48828  -0.48047
 Alpha  occ. eigenvalues --   -0.46768  -0.45966  -0.45884  -0.44828  -0.43921
 Alpha  occ. eigenvalues --   -0.37402  -0.36302
 Alpha virt. eigenvalues --    0.05002   0.11182   0.16377   0.20862   0.22825
 Alpha virt. eigenvalues --    0.24167   0.25733   0.26758   0.27626   0.28040
 Alpha virt. eigenvalues --    0.29139   0.30628   0.31434   0.31599   0.31919

 Mulliken charges:
               1
     1  C   -0.170501
     2  C   -0.218330
     3  C   -0.168097
     4  C    0.158353
     5  C   -0.171733
     6  C   -0.218303
     7  H    0.225881
     8  H    0.223625
     9  H    0.277485
    10  H    0.275972
    11  H    0.223741
    12  N    0.487909
    13  O   -0.460436
    14  O   -0.460145
    15  C   -0.297272
    16  C   -0.299566
    17  C   -0.475704
    18  H    0.153715
    19  H    0.141608
    20  H    0.153696
    21  H    0.150437
    22  H    0.153263
    23  H    0.157124
    24  H    0.160803
    25  C   -0.297714
    26  C   -0.306001
    27  C   -0.474552
    28  H    0.151297
    29  H    0.146355
    30  H    0.158492
    31  H    0.149470
    32  H    0.151051
    33  H    0.156663
    34  H    0.161413
 Sum of Mulliken charges =  -0.00000

 Dipole moment (field-independent basis, Debye):
    X=              0.8847    Y=              5.0123    Z=             -0.7419  Tot=              5.1436
 Quadrupole moment (field-independent basis, Debye-Ang):
   XX=            -96.8894   YY=            -96.8276   ZZ=            -93.8435
   XY=            -14.8245   XZ=             -0.1605   YZ=             -1.8170

 Normal termination of Gaussian 16 at Thu May  6 09:25:28 2021.
