 Gaussian 16, Revision A.03,
 Gaussian 16:  EM64L-G16RevA.03 25-Dec-2016

 -------------
 #p 6-31g* mp2
 -------------

 ------------------------------------------------------
 Input file generated by CHIRIPA (05-May-2021 14:55:25)
 ------------------------------------------------------
 Symbolic Z-matrix:
 Charge =  0 Multiplicity = 1

                         Standard orientation:
 ---------------------------------------------------------------------
 Center     Atomic      Atomic             Coordinates (Angstroms)
 Number     Number       Type             X           Y           Z
 ---------------------------------------------------------------------
      1          6           0        4.947305    1.180492    0.604208
      2          6           0        5.068796    0.124065   -0.304484
      3          6           0        3.948322   -0.624509   -0.676938
      4          6           0        2.716146   -0.287691   -0.118740
      5          6           0        2.562860    0.759076    0.789045
      6          6           0        3.696929    1.494073    1.147115
      7          1           0        5.822997    1.756729    0.887953
      8          1           0        6.038596   -0.121722   -0.727712
      9          1           0        4.013928   -1.447458   -1.378271
     10          1           0        1.582857    0.980319    1.194092
     11          1           0        3.599596    2.313974    1.853043
     12          7           0        1.522753   -1.072986   -0.505426
     13          8           0        0.448398   -0.756183    0.000571
     14          8           0        1.684325   -1.990435   -1.307187
     15          6           0       -4.057012    0.811510   -0.253110
     16          6           0       -3.241525    2.095416   -0.096422
     17          6           0       -3.911892    3.304851   -0.748854
     18          1           0       -4.214533    0.612888   -1.322073
     19          1           0       -5.052599    0.961761    0.186917
     20          1           0       -2.247294    1.942332   -0.535383
     21          1           0       -3.085764    2.290899    0.972287
     22          1           0       -4.896187    3.485755   -0.304963
     23          1           0       -4.052952    3.135207   -1.821199
     24          1           0       -3.311947    4.211801   -0.624887
     25          6           0       -3.399835   -0.406351    0.393933
     26          6           0       -4.215322   -1.690257    0.237245
     27          6           0       -3.544955   -2.899693    0.889677
     28          1           0       -2.404248   -0.556601   -0.046095
     29          1           0       -3.242315   -0.207730    1.462896
     30          1           0       -4.371083   -1.885741   -0.831465
     31          1           0       -5.209554   -1.537174    0.676205
     32          1           0       -3.403896   -2.730048    1.962021
     33          1           0       -2.560662   -3.080596    0.445786
     34          1           0       -4.144901   -3.806642    0.765709
 ---------------------------------------------------------------------

 SCF Done:  E(RHF) =  -669.536352426     A.U. after   15 cycles
 E2 =    -0.2091068703D+01 EUMP2 =    -0.67162742112893D+03

 The electronic state is 1-A.
 Alpha  occ. eigenvalues --  -20.61001 -20.60993 -15.86031 -11.31320 -11.27881
 Alpha  occ. eigenvalues --  -11.27873 -11.27615 -11.26882 -11.26871 -11.20843
 Alpha  occ. eigenvalues --  -11.20518 -11.20426 -11.20412 -11.19945 -11.19826
 Alpha  occ. eigenvalues --   -1.60060  -1.39616  -1.19486  -1.08897  -1.07361
 Alpha  occ. eigenvalues --   -1.04878  -1.02552  -0.95744  -0.94989  -0.86280
 Alpha  occ. eigenvalues --   -0.86010  -0.82579  -0.78644  -0.77642  -0.77105
 Alpha  occ. eigenvalues --   -0.72253  -0.71371  -0.70595  -0.65144  -0.64881
 Alpha  occ. eigenvalues --   -0.63985  -0.62224  -0.59950  -0.58394  -0.56597
 Alpha  occ. eigenvalues --   -0.55385  -0.54266  -0.53212  -0.52969  -0.51748
 Alpha  occ. eigenvalues --   -0.51407  -0.49074  -0.49008  -0.48874  -0.46954
 Alpha  occ. eigenvalues --   -0.45679  -0.45056  -0.44702  -0.44436  -0.42767
 Alpha  occ. eigenvalues --   -0.37465  -0.36478
 Alpha virt. eigenvalues --    0.04887   0.11177   0.16385   0.21285   0.23874
 Alpha virt. eigenvalues --    0.25287   0.27194   0.27580   0.27949   0.28811
 Alpha virt. eigenvalues --    0.29038   0.30958   0.32330   0.32441   0.32559

 Mulliken charges:
               1
     1  C   -0.170496
     2  C   -0.218644
     3  C   -0.170404
     4  C    0.157327
     5  C   -0.170944
     6  C   -0.218579
     7  H    0.226110
     8  H    0.223883
     9  H    0.275853
    10  H    0.276461
    11  H    0.224051
    12  N    0.493524
    13  O   -0.465245
    14  O   -0.459156
    15  C   -0.297062
    16  C   -0.299350
    17  C   -0.474836
    18  H    0.148411
    19  H    0.144716
    20  H    0.155577
    21  H    0.147571
    22  H    0.153560
    23  H    0.154859
    24  H    0.155596
    25  C   -0.310654
    26  C   -0.297984
    27  C   -0.477379
    28  H    0.180890
    29  H    0.143154
    30  H    0.150364
    31  H    0.145460
    32  H    0.150726
    33  H    0.168245
    34  H    0.154398
 Sum of Mulliken charges =  -0.00000

 Dipole moment (field-independent basis, Debye):
    X=              4.5798    Y=              2.6670    Z=              1.2920  Tot=              5.4550
 Quadrupole moment (field-independent basis, Debye-Ang):
   XX=            -72.0066   YY=            -96.7324   ZZ=            -93.3950
   XY=              5.0382   XZ=              1.0201   YZ=              2.1093

 Normal termination of Gaussian 16 at Thu May  6 00:02:53 2021.
