 Gaussian 16, Revision A.03,
 Gaussian 16:  EM64L-G16RevA.03 25-Dec-2016

 -------------
 #p 6-31g* mp2
 -------------

 ------------------------------------------------------
 Input file generated by CHIRIPA (05-May-2021 14:57:27)
 ------------------------------------------------------
 Symbolic Z-matrix:
 Charge =  0 Multiplicity = 1

                         Standard orientation:
 ---------------------------------------------------------------------
 Center     Atomic      Atomic             Coordinates (Angstroms)
 Number     Number       Type             X           Y           Z
 ---------------------------------------------------------------------
      1          6           0       -3.635787    2.361206    0.090675
      2          6           0       -2.384332    2.178604   -0.506852
      3          6           0       -1.898355    0.892003   -0.757917
      4          6           0       -2.693785   -0.194405   -0.396947
      5          6           0       -3.944726   -0.045032    0.199815
      6          6           0       -4.410624    1.250763    0.441483
      7          1           0       -4.005507    3.364239    0.282058
      8          1           0       -1.780416    3.039143   -0.780353
      9          1           0       -0.933126    0.721911   -1.219239
     10          1           0       -4.523895   -0.922305    0.461294
     11          1           0       -5.382898    1.389563    0.905662
     12          7           0       -2.189932   -1.561338   -0.657765
     13          8           0       -2.909993   -2.502047   -0.330328
     14          8           0       -1.084490   -1.666148   -1.184691
     15          6           0        1.072653   -1.079273    1.891035
     16          6           0        1.442599    0.258464    2.064589
     17          6           0        2.385836    0.849736    1.218865
     18          6           0        2.941580    0.070472    0.205363
     19          6           0        2.593593   -1.264757    0.006978
     20          6           0        1.648316   -1.835281    0.864592
     21          1           0        0.339132   -1.530527    2.552632
     22          1           0        0.997178    0.847998    2.860891
     23          1           0        2.690410    1.883241    1.330754
     24          1           0        3.054960   -1.827063   -0.795749
     25          1           0        1.362917   -2.874409    0.727452
     26          7           0        3.941222    0.685443   -0.696261
     27          8           0        4.416184   -0.022509   -1.581616
     28          8           0        4.230852    1.863764   -0.500528
 ---------------------------------------------------------------------

 SCF Done:  E(RHF) =  -868.339057714     A.U. after   16 cycles
 E2 =    -0.2600769922D+01 EUMP2 =    -0.87093982763595D+03

 The electronic state is 1-A.
 Alpha  occ. eigenvalues --  -20.61404 -20.61358 -20.60526 -20.60499 -15.86402
 Alpha  occ. eigenvalues --  -15.85559 -11.31629 -11.30791 -11.28209 -11.28144
 Alpha  occ. eigenvalues --  -11.27906 -11.27364 -11.27180 -11.27176 -11.27127
 Alpha  occ. eigenvalues --  -11.26968 -11.26409 -11.26142  -1.60458  -1.59595
 Alpha  occ. eigenvalues --   -1.40010  -1.39151  -1.19796  -1.18915  -1.09220
 Alpha  occ. eigenvalues --   -1.08341  -1.05167  -1.04269  -0.96075  -0.95204
 Alpha  occ. eigenvalues --   -0.86570  -0.85680  -0.82906  -0.82025  -0.77969
 Alpha  occ. eigenvalues --   -0.77098  -0.72642  -0.71801  -0.71763  -0.70923
 Alpha  occ. eigenvalues --   -0.70890  -0.70020  -0.65444  -0.65160  -0.64556
 Alpha  occ. eigenvalues --   -0.64255  -0.62505  -0.61616  -0.55677  -0.54789
 Alpha  occ. eigenvalues --   -0.53525  -0.53254  -0.52630  -0.52349  -0.49404
 Alpha  occ. eigenvalues --   -0.49391  -0.48544  -0.48521  -0.45448  -0.44585
 Alpha  occ. eigenvalues --   -0.37792  -0.36943  -0.36727  -0.35773
 Alpha virt. eigenvalues --    0.04489   0.05422   0.10869   0.11823   0.16055
 Alpha virt. eigenvalues --    0.16963   0.21065   0.21929   0.26986   0.27855
 Alpha virt. eigenvalues --    0.27970   0.28741   0.30628   0.31488   0.32100

 Mulliken charges:
               1
     1  C   -0.170879
     2  C   -0.220530
     3  C   -0.168888
     4  C    0.155627
     5  C   -0.172389
     6  C   -0.219308
     7  H    0.227121
     8  H    0.226804
     9  H    0.279259
    10  H    0.275065
    11  H    0.224164
    12  N    0.486650
    13  O   -0.462782
    14  O   -0.459485
    15  C   -0.178202
    16  C   -0.219203
    17  C   -0.178005
    18  C    0.155314
    19  C   -0.169950
    20  C   -0.200544
    21  H    0.225450
    22  H    0.219395
    23  H    0.270906
    24  H    0.277135
    25  H    0.233075
    26  N    0.487702
    27  O   -0.458844
    28  O   -0.464659
 Sum of Mulliken charges =  -0.00000

 Dipole moment (field-independent basis, Debye):
    X=             -5.4017    Y=              2.4324    Z=              3.9724  Tot=              7.1326
 Quadrupole moment (field-independent basis, Debye-Ang):
   XX=           -113.9117   YY=           -102.7936   ZZ=           -103.7255
   XY=            -18.9056   XZ=              4.5261   YZ=             -0.9020

 Normal termination of Gaussian 16 at Thu May  6 16:30:00 2021.
