 Gaussian 16, Revision A.03,
 Gaussian 16:  EM64L-G16RevA.03 25-Dec-2016

 -------------
 #p 6-31g* mp2
 -------------

 ------------------------------------------------------
 Input file generated by CHIRIPA (05-May-2021 14:51:14)
 ------------------------------------------------------
 Symbolic Z-matrix:
 Charge =  0 Multiplicity = 1

                         Standard orientation:
 ---------------------------------------------------------------------
 Center     Atomic      Atomic             Coordinates (Angstroms)
 Number     Number       Type             X           Y           Z
 ---------------------------------------------------------------------
      1          6           0        2.556427   -0.479247    0.046217
      2          6           0        1.890524   -1.260344    1.179551
      3          6           0        0.402473   -1.509114    0.931335
      4          1           0        2.038987    0.481372   -0.081891
      5          1           0        2.428047   -1.031398   -0.895082
      6          1           0        2.021321   -0.707562    2.118667
      7          1           0        2.409731   -2.219134    1.305102
      8          1           0        0.256039   -2.080914    0.009271
      9          1           0       -0.134578   -0.560754    0.827458
     10          1           0       -0.053627   -2.068966    1.753769
     11          6           0        4.044156   -0.222698    0.279825
     12          6           0        4.710059    0.558399   -0.853509
     13          6           0        6.198110    0.807169   -0.605293
     14          1           0        4.172536    0.329453    1.221124
     15          1           0        4.561597   -1.183317    0.407933
     16          1           0        4.190852    1.517189   -0.979060
     17          1           0        4.579262    0.005617   -1.792625
     18          1           0        6.735161   -0.141191   -0.501416
     19          1           0        6.344545    1.378969    0.316772
     20          1           0        6.654211    1.367021   -1.427726
     21          6           0       -3.743245   -0.235279   -0.371667
     22          6           0       -3.036378   -1.588636   -0.289514
     23          6           0       -3.935453   -2.751651   -0.710059
     24          1           0       -4.638549   -0.257169    0.264648
     25          1           0       -4.094713   -0.074874   -1.400324
     26          1           0       -2.685135   -1.745824    0.738365
     27          1           0       -2.142549   -1.563458   -0.925950
     28          1           0       -4.275521   -2.621858   -1.742585
     29          1           0       -4.821190   -2.805261   -0.068814
     30          1           0       -3.410138   -3.709517   -0.643759
     31          6           0       -2.857339    0.937224    0.045625
     32          6           0       -3.564205    2.290582   -0.036528
     33          6           0       -2.665130    3.453595    0.384017
     34          1           0       -2.505871    0.776820    1.074282
     35          1           0       -1.962035    0.959114   -0.590690
     36          1           0       -4.458034    2.265403    0.599907
     37          1           0       -3.915449    2.447770   -1.064407
     38          1           0       -1.779393    3.507206   -0.257228
     39          1           0       -2.325062    3.323802    1.416543
     40          1           0       -3.190445    4.411463    0.317717
 ---------------------------------------------------------------------

 SCF Done:  E(RHF) =  -470.732354985     A.U. after   11 cycles
 E2 =    -0.1583740383D+01 EUMP2 =    -0.47231609536842D+03

 The electronic state is 1-A.
 Alpha  occ. eigenvalues --  -11.21605 -11.21588 -11.21516 -11.21438 -11.21385
 Alpha  occ. eigenvalues --  -11.21378 -11.21318 -11.21306 -11.21093 -11.21060
 Alpha  occ. eigenvalues --  -11.20988 -11.20924  -1.08423  -1.08370  -1.03525
 Alpha  occ. eigenvalues --   -1.03446  -0.95950  -0.95937  -0.87016  -0.86913
 Alpha  occ. eigenvalues --   -0.79722  -0.79431  -0.78318  -0.78058  -0.65047
 Alpha  occ. eigenvalues --   -0.65009  -0.60929  -0.60848  -0.59366  -0.59265
 Alpha  occ. eigenvalues --   -0.57591  -0.57528  -0.55243  -0.55213  -0.52753
 Alpha  occ. eigenvalues --   -0.52606  -0.52386  -0.52306  -0.49921  -0.49853
 Alpha  occ. eigenvalues --   -0.48065  -0.47738  -0.46665  -0.46513  -0.45968
 Alpha  occ. eigenvalues --   -0.45716  -0.45616  -0.45350  -0.43765  -0.43689
 Alpha virt. eigenvalues --    0.21984   0.23117   0.23925   0.24327   0.25842
 Alpha virt. eigenvalues --    0.26255   0.26646   0.27657   0.27851   0.29642
 Alpha virt. eigenvalues --    0.30216   0.30584   0.31739   0.32054   0.32197

 Mulliken charges:
               1
     1  C   -0.298265
     2  C   -0.301241
     3  C   -0.478828
     4  H    0.149352
     5  H    0.148928
     6  H    0.151241
     7  H    0.151225
     8  H    0.155612
     9  H    0.162783
    10  H    0.158451
    11  C   -0.298133
    12  C   -0.299603
    13  C   -0.475678
    14  H    0.149545
    15  H    0.149616
    16  H    0.151841
    17  H    0.151750
    18  H    0.155154
    19  H    0.155204
    20  H    0.160164
    21  C   -0.297917
    22  C   -0.302477
    23  C   -0.475677
    24  H    0.149066
    25  H    0.148943
    26  H    0.156199
    27  H    0.154852
    28  H    0.154426
    29  H    0.154501
    30  H    0.159835
    31  C   -0.301085
    32  C   -0.299145
    33  C   -0.475815
    34  H    0.150535
    35  H    0.150398
    36  H    0.152031
    37  H    0.152035
    38  H    0.154827
    39  H    0.154913
    40  H    0.160438
 Sum of Mulliken charges =  -0.00000

 Dipole moment (field-independent basis, Debye):
    X=             -0.0214    Y=              0.0039    Z=              0.0033  Tot=              0.0220
 Quadrupole moment (field-independent basis, Debye-Ang):
   XX=            -86.3111   YY=            -85.0393   ZZ=            -83.7249
   XY=             -0.9577   XZ=             -0.6722   YZ=              0.0516

 Normal termination of Gaussian 16 at Thu May  6 02:25:01 2021.
