 Gaussian 16, Revision A.03,
 Gaussian 16:  EM64L-G16RevA.03 25-Dec-2016

 -------------
 #p 6-31g* mp2
 -------------

 ------------------------------------------------------
 Input file generated by CHIRIPA (05-May-2021 14:51:08)
 ------------------------------------------------------
 Symbolic Z-matrix:
 Charge =  0 Multiplicity = 1

                         Standard orientation:
 ---------------------------------------------------------------------
 Center     Atomic      Atomic             Coordinates (Angstroms)
 Number     Number       Type             X           Y           Z
 ---------------------------------------------------------------------
      1          6           0       -3.969266   -0.550778   -0.059057
      2          6           0       -5.348129   -1.121926   -0.391490
      3          6           0       -5.455246   -2.618169   -0.095560
      4          1           0       -3.206124   -1.094911   -0.632187
      5          1           0       -3.751217   -0.732057    1.002540
      6          1           0       -5.564098   -0.938397   -1.451816
      7          1           0       -6.108095   -0.576242    0.182354
      8          1           0       -5.265724   -2.815750    0.964461
      9          1           0       -4.718636   -3.179963   -0.678994
     10          1           0       -6.449062   -3.005717   -0.340504
     11          6           0       -3.846606    0.943991   -0.349486
     12          6           0       -2.467743    1.515138   -0.017052
     13          6           0       -2.360626    3.011382   -0.312983
     14          1           0       -4.064655    1.125270   -1.411083
     15          1           0       -4.609748    1.488124    0.223644
     16          1           0       -1.707777    0.969455   -0.590896
     17          1           0       -2.251774    1.331610    1.043273
     18          1           0       -3.097236    3.573175    0.270451
     19          1           0       -2.550148    3.208962   -1.373004
     20          1           0       -1.366810    3.398929   -0.068039
     21          6           0        3.260497    0.207837    0.230351
     22          6           0        2.208801   -0.390827    1.164975
     23          6           0        0.919194    0.429531    1.206430
     24          1           0        3.486870    1.233459    0.552533
     25          1           0        2.840449    0.283800   -0.782162
     26          1           0        2.631181   -0.466922    2.175134
     27          1           0        1.985046   -1.415211    0.840646
     28          1           0        0.472020    0.494966    0.209256
     29          1           0        1.121825    1.448643    1.551327
     30          1           0        0.181241   -0.016349    1.880577
     31          6           0        4.555375   -0.601049    0.178192
     32          6           0        5.607071   -0.002385   -0.756432
     33          6           0        6.896678   -0.822744   -0.797887
     34          1           0        4.975423   -0.677013    1.190706
     35          1           0        4.329003   -1.626671   -0.143990
     36          1           0        5.830825    1.021999   -0.432103
     37          1           0        5.184691    0.073709   -1.766591
     38          1           0        6.694046   -1.841855   -1.142784
     39          1           0        7.343852   -0.888178    0.199286
     40          1           0        7.634632   -0.376863   -1.472034
 ---------------------------------------------------------------------

 SCF Done:  E(RHF) =  -470.732669733     A.U. after   11 cycles
 E2 =    -0.1582907097D+01 EUMP2 =    -0.47231557682966D+03

 The electronic state is 1-A.
 Alpha  occ. eigenvalues --  -11.21596 -11.21581 -11.21555 -11.21485 -11.21392
 Alpha  occ. eigenvalues --  -11.21363 -11.21333 -11.21296 -11.21067 -11.21059
 Alpha  occ. eigenvalues --  -11.21002 -11.20978  -1.08419  -1.08378  -1.03537
 Alpha  occ. eigenvalues --   -1.03451  -0.95984  -0.95907  -0.87008  -0.86921
 Alpha  occ. eigenvalues --   -0.79714  -0.79420  -0.78271  -0.78138  -0.65069
 Alpha  occ. eigenvalues --   -0.64999  -0.60986  -0.60819  -0.59367  -0.59269
 Alpha  occ. eigenvalues --   -0.57655  -0.57463  -0.55289  -0.55186  -0.52701
 Alpha  occ. eigenvalues --   -0.52596  -0.52373  -0.52351  -0.49995  -0.49826
 Alpha  occ. eigenvalues --   -0.48008  -0.47742  -0.46726  -0.46462  -0.45854
 Alpha  occ. eigenvalues --   -0.45727  -0.45676  -0.45494  -0.43775  -0.43694
 Alpha virt. eigenvalues --    0.22078   0.23048   0.23618   0.24787   0.25791
 Alpha virt. eigenvalues --    0.26456   0.26774   0.27525   0.27942   0.29166
 Alpha virt. eigenvalues --    0.29964   0.31098   0.31205   0.32128   0.32436

 Mulliken charges:
               1
     1  C   -0.298010
     2  C   -0.299555
     3  C   -0.475652
     4  H    0.149210
     5  H    0.149233
     6  H    0.151841
     7  H    0.151933
     8  H    0.155113
     9  H    0.155032
    10  H    0.160180
    11  C   -0.298060
    12  C   -0.301193
    13  C   -0.476734
    14  H    0.148944
    15  H    0.149230
    16  H    0.153565
    17  H    0.154720
    18  H    0.154841
    19  H    0.154483
    20  H    0.161087
    21  C   -0.298309
    22  C   -0.300616
    23  C   -0.476559
    24  H    0.149521
    25  H    0.149131
    26  H    0.151439
    27  H    0.151640
    28  H    0.159501
    29  H    0.154093
    30  H    0.160030
    31  C   -0.298196
    32  C   -0.299614
    33  C   -0.475690
    34  H    0.149546
    35  H    0.149572
    36  H    0.151923
    37  H    0.151825
    38  H    0.155148
    39  H    0.155187
    40  H    0.160219
 Sum of Mulliken charges =  -0.00000

 Dipole moment (field-independent basis, Debye):
    X=             -0.0014    Y=              0.0057    Z=              0.0081  Tot=              0.0100
 Quadrupole moment (field-independent basis, Debye-Ang):
   XX=            -85.8113   YY=            -85.8946   ZZ=            -83.3280
   XY=              0.3882   XZ=              0.1027   YZ=              0.7821

 Normal termination of Gaussian 16 at Thu May  6 05:15:53 2021.
