 Gaussian 16, Revision A.03,
 Gaussian 16:  EM64L-G16RevA.03 25-Dec-2016

 -------------
 #p 6-31g* mp2
 -------------

 ------------------------------------------------------
 Input file generated by CHIRIPA (05-May-2021 14:55:25)
 ------------------------------------------------------
 Symbolic Z-matrix:
 Charge =  0 Multiplicity = 1

                         Standard orientation:
 ---------------------------------------------------------------------
 Center     Atomic      Atomic             Coordinates (Angstroms)
 Number     Number       Type             X           Y           Z
 ---------------------------------------------------------------------
      1          6           0        4.788097    1.151686   -0.210510
      2          6           0        3.482761    1.603954   -0.429760
      3          6           0        2.401097    0.723118   -0.336587
      4          6           0        2.662262   -0.609321   -0.020855
      5          6           0        3.951388   -1.090215    0.203169
      6          6           0        5.017840   -0.191587    0.104699
      7          1           0        5.622451    1.842851   -0.284946
      8          1           0        3.301355    2.646612   -0.674711
      9          1           0        1.380479    1.046525   -0.501401
     10          1           0        4.100775   -2.135335    0.445709
     11          1           0        6.030525   -0.545626    0.275488
     12          7           0        1.525206   -1.551241    0.080587
     13          8           0        1.781841   -2.720270    0.360131
     14          8           0        0.398876   -1.102652   -0.121368
     15          6           0       -3.859508   -0.140169   -0.086460
     16          6           0       -5.373616   -0.347017   -0.034736
     17          6           0       -5.782013   -1.795279   -0.305927
     18          1           0       -3.487114   -0.449095   -1.072783
     19          1           0       -3.380815   -0.801030    0.649414
     20          1           0       -5.849414    0.315042   -0.769522
     21          1           0       -5.742475   -0.037383    0.951513
     22          1           0       -5.334209   -2.466775    0.433779
     23          1           0       -5.441756   -2.112348   -1.297034
     24          1           0       -6.868478   -1.920583   -0.264077
     25          6           0       -3.435629    1.302619    0.182648
     26          6           0       -1.921521    1.509466    0.130924
     27          6           0       -1.513124    2.957728    0.402115
     28          1           0       -3.914322    1.963479   -0.553226
     29          1           0       -3.808022    1.611544    1.168972
     30          1           0       -1.552662    1.199832   -0.855324
     31          1           0       -1.445723    0.847407    0.865711
     32          1           0       -1.853381    3.274797    1.393222
     33          1           0       -1.960927    3.629224   -0.337591
     34          1           0       -0.426659    3.083033    0.360266
 ---------------------------------------------------------------------

 SCF Done:  E(RHF) =  -669.535553004     A.U. after   15 cycles
 E2 =    -0.2092042921D+01 EUMP2 =    -0.67162759592552D+03

 The electronic state is 1-A.
 Alpha  occ. eigenvalues --  -20.60849 -20.60838 -15.85883 -11.31224 -11.27796
 Alpha  occ. eigenvalues --  -11.27775 -11.27536 -11.26807 -11.26795 -11.20942
 Alpha  occ. eigenvalues --  -11.20896 -11.20835 -11.20716 -11.20465 -11.20377
 Alpha  occ. eigenvalues --   -1.59919  -1.39473  -1.19397  -1.08800  -1.07713
 Alpha  occ. eigenvalues --   -1.04796  -1.02934  -0.95642  -0.95420  -0.86430
 Alpha  occ. eigenvalues --   -0.86195  -0.82478  -0.78970  -0.77647  -0.77323
 Alpha  occ. eigenvalues --   -0.72102  -0.71236  -0.70507  -0.65052  -0.64803
 Alpha  occ. eigenvalues --   -0.64346  -0.62159  -0.60328  -0.58803  -0.57022
 Alpha  occ. eigenvalues --   -0.55297  -0.54709  -0.53129  -0.52885  -0.52158
 Alpha  occ. eigenvalues --   -0.51828  -0.49336  -0.48908  -0.48868  -0.47233
 Alpha  occ. eigenvalues --   -0.45994  -0.45092  -0.44999  -0.44674  -0.43164
 Alpha  occ. eigenvalues --   -0.37380  -0.36398
 Alpha virt. eigenvalues --    0.04975   0.11243   0.16458   0.20282   0.23374
 Alpha virt. eigenvalues --    0.24110   0.26534   0.27420   0.27686   0.28455
 Alpha virt. eigenvalues --    0.29382   0.30822   0.31587   0.31990   0.32536

 Mulliken charges:
               1
     1  C   -0.170369
     2  C   -0.220555
     3  C   -0.176284
     4  C    0.156845
     5  C   -0.170296
     6  C   -0.218910
     7  H    0.225784
     8  H    0.223952
     9  H    0.285591
    10  H    0.275571
    11  H    0.223556
    12  N    0.490195
    13  O   -0.460015
    14  O   -0.462563
    15  C   -0.297889
    16  C   -0.299558
    17  C   -0.475158
    18  H    0.152977
    19  H    0.158267
    20  H    0.148632
    21  H    0.149428
    22  H    0.157362
    23  H    0.155689
    24  H    0.157017
    25  C   -0.299170
    26  C   -0.302446
    27  C   -0.475949
    28  H    0.145015
    29  H    0.146577
    30  H    0.153917
    31  H    0.167759
    32  H    0.155930
    33  H    0.153552
    34  H    0.145546
 Sum of Mulliken charges =  -0.00000

 Dipole moment (field-independent basis, Debye):
    X=              4.1014    Y=              3.1010    Z=             -0.3373  Tot=              5.1529
 Quadrupole moment (field-independent basis, Debye-Ang):
   XX=            -72.6005   YY=            -97.9543   ZZ=            -94.3910
   XY=              3.7090   XZ=             -0.3359   YZ=             -1.2469

 Normal termination of Gaussian 16 at Thu May  6 17:44:58 2021.
