 Gaussian 16, Revision A.03,
 Gaussian 16:  EM64L-G16RevA.03 25-Dec-2016

 -------------
 #p 6-31g* mp2
 -------------

 ------------------------------------------------------
 Input file generated by CHIRIPA (05-May-2021 14:51:11)
 ------------------------------------------------------
 Symbolic Z-matrix:
 Charge =  0 Multiplicity = 1

                         Standard orientation:
 ---------------------------------------------------------------------
 Center     Atomic      Atomic             Coordinates (Angstroms)
 Number     Number       Type             X           Y           Z
 ---------------------------------------------------------------------
      1          6           0       -3.680221    0.001035   -0.014246
      2          6           0       -4.583084   -0.119966   -1.242327
      3          6           0       -5.555421   -1.296140   -1.147620
      4          1           0       -3.116428   -0.933391    0.111966
      5          1           0       -4.305550    0.112336    0.882398
      6          1           0       -3.956211   -0.229616   -2.136543
      7          1           0       -5.144652    0.814928   -1.365741
      8          1           0       -6.204937   -1.189538   -0.272769
      9          1           0       -5.009744   -2.240016   -1.047951
     10          1           0       -6.191180   -1.363978   -2.035916
     11          6           0       -2.702624    1.172214   -0.094073
     12          6           0       -1.799761    1.293215    1.134008
     13          6           0       -0.827424    2.469389    1.039301
     14          1           0       -2.077295    1.060914   -0.990718
     15          1           0       -3.266418    2.106640   -0.220285
     16          1           0       -1.238193    0.358322    1.257422
     17          1           0       -2.426634    1.402866    2.028224
     18          1           0       -1.373101    3.413266    0.939631
     19          1           0       -0.177908    2.362787    0.164449
     20          1           0       -0.191666    2.537228    1.927597
     21          6           0        2.726651   -1.184810    0.152111
     22          6           0        1.669539   -0.960602    1.233882
     23          6           0        0.747334   -2.166165    1.418137
     24          1           0        2.226259   -1.414180   -0.798648
     25          1           0        3.325042   -2.069088    0.411680
     26          1           0        1.074214   -0.076197    0.973052
     27          1           0        2.172502   -0.731550    2.182134
     28          1           0        1.323931   -3.052397    1.702266
     29          1           0        0.219403   -2.393320    0.486316
     30          1           0       -0.000630   -1.984260    2.196160
     31          6           0        3.656194    0.011560   -0.043791
     32          6           0        4.713306   -0.212648   -1.125563
     33          6           0        5.635511    0.992915   -1.309817
     34          1           0        3.057803    0.895838   -0.303360
     35          1           0        4.156587    0.240930    0.906967
     36          1           0        4.210343   -0.441699   -2.073814
     37          1           0        5.308631   -1.097052   -0.864734
     38          1           0        6.163443    1.220070   -0.377997
     39          1           0        5.058914    1.879148   -1.593948
     40          1           0        6.383476    0.811011   -2.087841
 ---------------------------------------------------------------------

 SCF Done:  E(RHF) =  -470.732986110     A.U. after   11 cycles
 E2 =    -0.1583618804D+01 EUMP2 =    -0.47231660491428D+03

 The electronic state is 1-A.
 Alpha  occ. eigenvalues --  -11.21611 -11.21604 -11.21587 -11.21569 -11.21419
 Alpha  occ. eigenvalues --  -11.21407 -11.21359 -11.21347 -11.21125 -11.21100
 Alpha  occ. eigenvalues --  -11.21075 -11.21070  -1.08470  -1.08412  -1.03603
 Alpha  occ. eigenvalues --   -1.03490  -0.96019  -0.95977  -0.87034  -0.86989
 Alpha  occ. eigenvalues --   -0.79642  -0.79574  -0.78296  -0.78211  -0.65267
 Alpha  occ. eigenvalues --   -0.64921  -0.61245  -0.60689  -0.59455  -0.59256
 Alpha  occ. eigenvalues --   -0.57690  -0.57510  -0.55337  -0.55241  -0.52718
 Alpha  occ. eigenvalues --   -0.52657  -0.52455  -0.52386  -0.49956  -0.49920
 Alpha  occ. eigenvalues --   -0.47939  -0.47909  -0.46779  -0.46496  -0.45886
 Alpha  occ. eigenvalues --   -0.45776  -0.45739  -0.45542  -0.43803  -0.43786
 Alpha virt. eigenvalues --    0.20489   0.23118   0.23716   0.24087   0.26235
 Alpha virt. eigenvalues --    0.26393   0.27042   0.27353   0.29057   0.29314
 Alpha virt. eigenvalues --    0.30955   0.31423   0.31560   0.31849   0.32285

 Mulliken charges:
               1
     1  C   -0.298854
     2  C   -0.299614
     3  C   -0.475725
     4  H    0.150318
     5  H    0.149575
     6  H    0.151693
     7  H    0.151944
     8  H    0.155223
     9  H    0.155298
    10  H    0.160216
    11  C   -0.297576
    12  C   -0.309026
    13  C   -0.476636
    14  H    0.148633
    15  H    0.149681
    16  H    0.161406
    17  H    0.152067
    18  H    0.155789
    19  H    0.153954
    20  H    0.161322
    21  C   -0.297585
    22  C   -0.308520
    23  C   -0.477399
    24  H    0.149031
    25  H    0.149534
    26  H    0.161506
    27  H    0.152049
    28  H    0.156014
    29  H    0.154413
    30  H    0.161150
    31  C   -0.298617
    32  C   -0.299657
    33  C   -0.475722
    34  H    0.149717
    35  H    0.149840
    36  H    0.151781
    37  H    0.151983
    38  H    0.155254
    39  H    0.155283
    40  H    0.160256
 Sum of Mulliken charges =  -0.00000

 Dipole moment (field-independent basis, Debye):
    X=              0.0061    Y=              0.0005    Z=              0.0232  Tot=              0.0240
 Quadrupole moment (field-independent basis, Debye-Ang):
   XX=            -85.0490   YY=            -85.5770   ZZ=            -84.1429
   XY=             -1.8509   XZ=              0.2704   YZ=              0.1430

 Normal termination of Gaussian 16 at Wed May  5 23:06:47 2021.
