 Gaussian 16, Revision A.03,
 Gaussian 16:  EM64L-G16RevA.03 25-Dec-2016

 -------------
 #p 6-31g* mp2
 -------------

 ------------------------------------------------------
 Input file generated by CHIRIPA (05-May-2021 14:57:27)
 ------------------------------------------------------
 Symbolic Z-matrix:
 Charge =  0 Multiplicity = 1

                         Standard orientation:
 ---------------------------------------------------------------------
 Center     Atomic      Atomic             Coordinates (Angstroms)
 Number     Number       Type             X           Y           Z
 ---------------------------------------------------------------------
      1          6           0       -1.391128    2.866440   -0.010164
      2          6           0       -1.964224    2.304171   -1.155562
      3          6           0       -2.367514    0.965575   -1.163732
      4          6           0       -2.182028    0.214888   -0.003838
      5          6           0       -1.614097    0.746375    1.152996
      6          6           0       -1.218199    2.087121    1.138434
      7          1           0       -1.080714    3.907128   -0.012647
      8          1           0       -2.099743    2.907017   -2.049014
      9          1           0       -2.813884    0.504948   -2.036654
     10          1           0       -1.491861    0.120317    2.028512
     11          1           0       -0.773408    2.521131    2.029412
     12          7           0       -2.605060   -1.203362   -0.000454
     13          8           0       -2.430791   -1.843517    1.034180
     14          8           0       -3.102892   -1.647975   -1.032501
     15          6           0        1.226794   -2.811092    0.028374
     16          6           0        1.854404   -2.310372   -1.117010
     17          6           0        2.348838   -1.002901   -1.141580
     18          6           0        2.197915   -0.220239    0.002077
     19          6           0        1.577400   -0.690400    1.158450
     20          6           0        1.090535   -2.000937    1.160454
     21          1           0        0.845646   -3.827958    0.038695
     22          1           0        1.961627   -2.937282   -1.997653
     23          1           0        2.838939   -0.589919   -2.014887
     24          1           0        1.485293   -0.041572    2.020980
     25          1           0        0.603567   -2.387147    2.051379
     26          7           0        2.717344    1.165545   -0.011988
     27          8           0        2.571901    1.834899    1.008526
     28          8           0        3.260078    1.556127   -1.043259
 ---------------------------------------------------------------------

 SCF Done:  E(RHF) =  -868.339879950     A.U. after   16 cycles
 E2 =    -0.2603513280D+01 EUMP2 =    -0.87094339323004D+03

 The electronic state is 1-A.
 Alpha  occ. eigenvalues --  -20.61122 -20.61109 -20.60972 -20.60957 -15.86139
 Alpha  occ. eigenvalues --  -15.85999 -11.31196 -11.31077 -11.27775 -11.27725
 Alpha  occ. eigenvalues --  -11.27638 -11.27600 -11.27314 -11.27161 -11.26643
 Alpha  occ. eigenvalues --  -11.26599 -11.26525 -11.26451  -1.60177  -1.60034
 Alpha  occ. eigenvalues --   -1.39747  -1.39601  -1.19351  -1.19199  -1.08752
 Alpha  occ. eigenvalues --   -1.08618  -1.04750  -1.04542  -0.95660  -0.95518
 Alpha  occ. eigenvalues --   -0.86093  -0.85957  -0.82519  -0.82375  -0.77691
 Alpha  occ. eigenvalues --   -0.77416  -0.72391  -0.72237  -0.71497  -0.71333
 Alpha  occ. eigenvalues --   -0.70441  -0.70240  -0.64992  -0.64868  -0.64651
 Alpha  occ. eigenvalues --   -0.64520  -0.62169  -0.61841  -0.55139  -0.54989
 Alpha  occ. eigenvalues --   -0.53386  -0.52792  -0.52660  -0.52534  -0.49159
 Alpha  occ. eigenvalues --   -0.49102  -0.49003  -0.48952  -0.45238  -0.45076
 Alpha  occ. eigenvalues --   -0.37372  -0.37094  -0.36674  -0.35591
 Alpha virt. eigenvalues --    0.04687   0.05249   0.11208   0.11615   0.16430
 Alpha virt. eigenvalues --    0.16729   0.20567   0.22300   0.26037   0.27808
 Alpha virt. eigenvalues --    0.28582   0.29783   0.30318   0.31688   0.32676

 Mulliken charges:
               1
     1  C   -0.168649
     2  C   -0.218880
     3  C   -0.172127
     4  C    0.160507
     5  C   -0.172867
     6  C   -0.214700
     7  H    0.232096
     8  H    0.224836
     9  H    0.273918
    10  H    0.266537
    11  H    0.229738
    12  N    0.489984
    13  O   -0.468920
    14  O   -0.460700
    15  C   -0.169748
    16  C   -0.218982
    17  C   -0.172841
    18  C    0.160028
    19  C   -0.174917
    20  C   -0.213573
    21  H    0.233358
    22  H    0.224604
    23  H    0.273561
    24  H    0.266409
    25  H    0.231153
    26  N    0.489374
    27  O   -0.468014
    28  O   -0.461185
 Sum of Mulliken charges =  -0.00000

 Dipole moment (field-independent basis, Debye):
    X=             -0.3863    Y=              0.1018    Z=             -0.0370  Tot=              0.4012
 Quadrupole moment (field-independent basis, Debye-Ang):
   XX=           -120.6423   YY=           -100.3511   ZZ=            -96.1776
   XY=            -21.9524   XZ=              0.1276   YZ=              0.1273

 Normal termination of Gaussian 16 at Thu May  6 16:33:14 2021.
