 Gaussian 16, Revision A.03,
 Gaussian 16:  EM64L-G16RevA.03 25-Dec-2016

 -------------
 #p 6-31g* mp2
 -------------

 ------------------------------------------------------
 Input file generated by CHIRIPA (05-May-2021 14:55:21)
 ------------------------------------------------------
 Symbolic Z-matrix:
 Charge =  0 Multiplicity = 1

                         Standard orientation:
 ---------------------------------------------------------------------
 Center     Atomic      Atomic             Coordinates (Angstroms)
 Number     Number       Type             X           Y           Z
 ---------------------------------------------------------------------
      1          6           0        3.631428   -1.145397   -1.533852
      2          6           0        4.134210   -0.092102   -0.762942
      3          6           0        3.360214    0.476769    0.252864
      4          6           0        2.081941   -0.034601    0.471519
      5          6           0        1.552933   -1.083104   -0.279535
      6          6           0        2.344663   -1.636670   -1.290117
      7          1           0        4.239575   -1.581365   -2.320925
      8          1           0        5.133181    0.291453   -0.949993
      9          1           0        3.724679    1.293008    0.864696
     10          1           0        0.553441   -1.444105   -0.069505
     11          1           0        1.951599   -2.454587   -1.887241
     12          7           0        1.253159    0.559536    1.544143
     13          8           0        0.130097    0.090996    1.716881
     14          8           0        1.742315    1.482510    2.191817
     15          6           0       -2.806717   -0.588075   -0.467972
     16          6           0       -3.592620   -1.360479    0.592092
     17          6           0       -3.517001   -2.875108    0.397219
     18          1           0       -3.190213   -0.850727   -1.463406
     19          1           0       -1.756410   -0.909963   -0.442710
     20          1           0       -4.640850   -1.036232    0.565775
     21          1           0       -3.207335   -1.095814    1.585130
     22          1           0       -2.478442   -3.218249    0.444667
     23          1           0       -3.920102   -3.158329   -0.580481
     24          1           0       -4.085710   -3.407666    1.165862
     25          6           0       -2.872732    0.927333   -0.286558
     26          6           0       -2.086829    1.699736   -1.346621
     27          6           0       -2.162448    3.214365   -1.151748
     28          1           0       -3.923040    1.249220   -0.311820
     29          1           0       -2.489235    1.189984    0.708877
     30          1           0       -2.472114    1.435070   -2.339659
     31          1           0       -1.038599    1.375489   -1.320303
     32          1           0       -1.759347    3.497586   -0.174049
     33          1           0       -3.201007    3.557507   -1.199196
     34          1           0       -1.593740    3.746923   -1.920392
 ---------------------------------------------------------------------

 SCF Done:  E(RHF) =  -669.536090018     A.U. after   15 cycles
 E2 =    -0.2093280452D+01 EUMP2 =    -0.67162937046962D+03

 The electronic state is 1-A.
 Alpha  occ. eigenvalues --  -20.61023 -20.61017 -15.86045 -11.31333 -11.27879
 Alpha  occ. eigenvalues --  -11.27875 -11.27607 -11.26883 -11.26870 -11.21043
 Alpha  occ. eigenvalues --  -11.20975 -11.20838 -11.20754 -11.20508 -11.20493
 Alpha  occ. eigenvalues --   -1.60077  -1.39635  -1.19491  -1.08902  -1.07782
 Alpha  occ. eigenvalues --   -1.04880  -1.02974  -0.95757  -0.95423  -0.86454
 Alpha  occ. eigenvalues --   -0.86284  -0.82586  -0.79039  -0.77724  -0.77544
 Alpha  occ. eigenvalues --   -0.72282  -0.71392  -0.70603  -0.65164  -0.64916
 Alpha  occ. eigenvalues --   -0.64325  -0.62227  -0.60358  -0.58810  -0.57053
 Alpha  occ. eigenvalues --   -0.55391  -0.54704  -0.53212  -0.52981  -0.52156
 Alpha  occ. eigenvalues --   -0.51872  -0.49389  -0.49021  -0.49019  -0.47371
 Alpha  occ. eigenvalues --   -0.46050  -0.45306  -0.45019  -0.44856  -0.43196
 Alpha  occ. eigenvalues --   -0.37461  -0.36468
 Alpha virt. eigenvalues --    0.04841   0.11086   0.16341   0.20360   0.23194
 Alpha virt. eigenvalues --    0.24468   0.25849   0.27521   0.28060   0.28503
 Alpha virt. eigenvalues --    0.29202   0.30995   0.31457   0.32201   0.32492

 Mulliken charges:
               1
     1  C   -0.170281
     2  C   -0.218551
     3  C   -0.170203
     4  C    0.155659
     5  C   -0.173883
     6  C   -0.220736
     7  H    0.226290
     8  H    0.224017
     9  H    0.275902
    10  H    0.284623
    11  H    0.224838
    12  N    0.489066
    13  O   -0.463467
    14  O   -0.458311
    15  C   -0.298017
    16  C   -0.301866
    17  C   -0.474493
    18  H    0.142959
    19  H    0.146249
    20  H    0.150002
    21  H    0.165419
    22  H    0.148657
    23  H    0.151697
    24  H    0.160592
    25  C   -0.302256
    26  C   -0.298400
    27  C   -0.476845
    28  H    0.145199
    29  H    0.171283
    30  H    0.146835
    31  H    0.146232
    32  H    0.161834
    33  H    0.153840
    34  H    0.156115
 Sum of Mulliken charges =  -0.00000

 Dipole moment (field-independent basis, Debye):
    X=              3.0689    Y=             -2.0058    Z=             -3.5340  Tot=              5.0923
 Quadrupole moment (field-independent basis, Debye-Ang):
   XX=            -79.4667   YY=            -94.6283   ZZ=            -98.5617
   XY=             -2.1439   XZ=             -5.9525   YZ=              0.2360

 Normal termination of Gaussian 16 at Wed May  5 23:50:58 2021.
