 Gaussian 16, Revision A.03,
 Gaussian 16:  EM64L-G16RevA.03 25-Dec-2016

 -------------
 #p 6-31g* mp2
 -------------

 ------------------------------------------------------
 Input file generated by CHIRIPA (05-May-2021 14:51:10)
 ------------------------------------------------------
 Symbolic Z-matrix:
 Charge =  0 Multiplicity = 1

                         Standard orientation:
 ---------------------------------------------------------------------
 Center     Atomic      Atomic             Coordinates (Angstroms)
 Number     Number       Type             X           Y           Z
 ---------------------------------------------------------------------
      1          6           0        3.307548   -0.596583   -0.352609
      2          6           0        4.206018   -1.773243    0.029762
      3          6           0        3.591238   -3.126890   -0.327279
      4          1           0        2.337683   -0.704951    0.151933
      5          1           0        3.104466   -0.634901   -1.431815
      6          1           0        4.408475   -1.731930    1.107686
      7          1           0        5.173925   -1.661960   -0.475599
      8          1           0        3.404935   -3.193398   -1.404065
      9          1           0        2.635136   -3.263765    0.188216
     10          1           0        4.250178   -3.954009   -0.045263
     11          6           0        3.908469    0.763448   -0.001987
     12          6           0        3.009999    1.940108   -0.384358
     13          6           0        3.624779    3.293756   -0.027317
     14          1           0        4.111551    0.801766    1.077219
     15          1           0        4.878334    0.871816   -0.506529
     16          1           0        2.042093    1.828826    0.121003
     17          1           0        2.807542    1.898796   -1.462282
     18          1           0        4.580881    3.430630   -0.542812
     19          1           0        3.811083    3.360263    1.049469
     20          1           0        2.965840    4.120875   -0.309333
     21          6           0       -4.342760    0.005350    0.366217
     22          6           0       -5.285621   -0.019998   -0.837260
     23          6           0       -6.752088    0.158839   -0.443200
     24          1           0       -4.634295   -0.787042    1.069115
     25          1           0       -4.466418    0.957768    0.900073
     26          1           0       -5.159222   -0.971513   -1.369481
     27          1           0       -4.991688    0.772423   -1.537467
     28          1           0       -6.899612    1.115444    0.068409
     29          1           0       -7.068098   -0.638401    0.237349
     30          1           0       -7.408522    0.137567   -1.318701
     31          6           0       -2.873257   -0.172215   -0.011621
     32          6           0       -1.930397   -0.146867    1.191856
     33          6           0       -0.463929   -0.325705    0.797796
     34          1           0       -2.749599   -1.124634   -0.545476
     35          1           0       -2.581722    0.620177   -0.714519
     36          1           0       -2.224331   -0.939289    1.892062
     37          1           0       -2.056796    0.804647    1.724077
     38          1           0       -0.147919    0.471535    0.117247
     39          1           0       -0.316406   -1.282310    0.286186
     40          1           0        0.192504   -0.304433    1.673298
 ---------------------------------------------------------------------

 SCF Done:  E(RHF) =  -470.732848359     A.U. after   11 cycles
 E2 =    -0.1583379904D+01 EUMP2 =    -0.47231622826316D+03

 The electronic state is 1-A.
 Alpha  occ. eigenvalues --  -11.21646 -11.21619 -11.21524 -11.21510 -11.21434
 Alpha  occ. eigenvalues --  -11.21374 -11.21295 -11.21177 -11.21148 -11.21085
 Alpha  occ. eigenvalues --  -11.21030 -11.21015  -1.08467  -1.08331  -1.03573
 Alpha  occ. eigenvalues --   -1.03457  -0.96042  -0.95894  -0.87065  -0.86917
 Alpha  occ. eigenvalues --   -0.79670  -0.79522  -0.78308  -0.78085  -0.65100
 Alpha  occ. eigenvalues --   -0.64968  -0.61023  -0.60812  -0.59402  -0.59274
 Alpha  occ. eigenvalues --   -0.57637  -0.57514  -0.55319  -0.55199  -0.52792
 Alpha  occ. eigenvalues --   -0.52608  -0.52454  -0.52302  -0.50020  -0.49814
 Alpha  occ. eigenvalues --   -0.47988  -0.47841  -0.46756  -0.46451  -0.45965
 Alpha  occ. eigenvalues --   -0.45732  -0.45648  -0.45418  -0.43773  -0.43685
 Alpha virt. eigenvalues --    0.21717   0.22989   0.24036   0.24240   0.25599
 Alpha virt. eigenvalues --    0.26538   0.27032   0.27502   0.27872   0.29652
 Alpha virt. eigenvalues --    0.29835   0.31337   0.31869   0.31964   0.32218

 Mulliken charges:
               1
     1  C   -0.309966
     2  C   -0.298819
     3  C   -0.475863
     4  H    0.166234
     5  H    0.148158
     6  H    0.151197
     7  H    0.151383
     8  H    0.154943
     9  H    0.154933
    10  H    0.159893
    11  C   -0.297251
    12  C   -0.304666
    13  C   -0.475357
    14  H    0.148592
    15  H    0.149084
    16  H    0.156974
    17  H    0.151210
    18  H    0.155106
    19  H    0.154961
    20  H    0.159632
    21  C   -0.298370
    22  C   -0.299655
    23  C   -0.475727
    24  H    0.149703
    25  H    0.149566
    26  H    0.152013
    27  H    0.152010
    28  H    0.155201
    29  H    0.155204
    30  H    0.160337
    31  C   -0.298679
    32  C   -0.300626
    33  C   -0.481137
    34  H    0.149775
    35  H    0.149966
    36  H    0.152016
    37  H    0.151999
    38  H    0.160752
    39  H    0.156262
    40  H    0.159011
 Sum of Mulliken charges =  -0.00000

 Dipole moment (field-independent basis, Debye):
    X=             -0.0656    Y=             -0.0055    Z=              0.0047  Tot=              0.0660
 Quadrupole moment (field-independent basis, Debye-Ang):
   XX=            -86.1811   YY=            -84.9800   ZZ=            -84.0199
   XY=             -0.0802   XZ=             -0.2932   YZ=             -0.3608

 Normal termination of Gaussian 16 at Thu May  6 02:14:03 2021.
