 Gaussian 16, Revision A.03,
 Gaussian 16:  EM64L-G16RevA.03 25-Dec-2016

 -------------
 #p 6-31g* mp2
 -------------

 ------------------------------------------------------
 Input file generated by CHIRIPA (05-May-2021 14:53:16)
 ------------------------------------------------------
 Symbolic Z-matrix:
 Charge =  0 Multiplicity = 1

                         Standard orientation:
 ---------------------------------------------------------------------
 Center     Atomic      Atomic             Coordinates (Angstroms)
 Number     Number       Type             X           Y           Z
 ---------------------------------------------------------------------
      1          6           0       -2.856746   -0.871530   -0.713552
      2          6           0       -1.362171   -0.930744   -0.396184
      3          6           0       -0.547330   -1.591268   -1.508630
      4          1           0       -3.228918   -1.890516   -0.887043
      5          1           0       -3.003440   -0.320991   -1.653117
      6          1           0       -1.218446   -1.479814    0.543222
      7          1           0       -0.993554    0.088485   -0.223240
      8          1           0       -0.661130   -1.040966   -2.448214
      9          1           0       -0.887300   -2.618176   -1.677397
     10          1           0        0.518284   -1.623056   -1.261006
     11          6           0       -3.684625   -0.213913    0.389119
     12          6           0       -5.179201   -0.154698    0.071751
     13          6           0       -5.994042    0.505825    1.184197
     14          1           0       -3.537932   -0.764452    1.328685
     15          1           0       -3.312454    0.805074    0.562610
     16          1           0       -5.547817   -1.173928   -0.101193
     17          1           0       -5.322926    0.394371   -0.867654
     18          1           0       -5.654072    1.532733    1.352965
     19          1           0       -5.880241   -0.044476    2.123781
     20          1           0       -7.059655    0.537614    0.936573
     21          6           0        3.994070   -1.394168    1.121672
     22          6           0        3.893494   -1.262404   -0.267229
     23          6           0        3.099209   -0.258676   -0.829538
     24          6           0        2.416121    0.599775    0.030545
     25          6           0        2.496059    0.494044    1.418248
     26          6           0        3.296262   -0.517070    1.958502
     27          1           0        4.613389   -2.176755    1.549920
     28          1           0        4.434297   -1.942143   -0.919557
     29          1           0        3.003463   -0.134127   -1.901329
     30          1           0        1.945115    1.186671    2.042863
     31          1           0        3.372496   -0.617036    3.037501
     32          7           0        1.572115    1.666285   -0.553072
     33          8           0        0.980314    2.409892    0.226323
     34          8           0        1.518365    1.738414   -1.778856
 ---------------------------------------------------------------------

 SCF Done:  E(RHF) =  -669.535651821     A.U. after   15 cycles
 E2 =    -0.2093441568D+01 EUMP2 =    -0.67162909338909D+03

 The electronic state is 1-A.
 Alpha  occ. eigenvalues --  -20.60893 -20.60875 -15.85912 -11.31245 -11.27819
 Alpha  occ. eigenvalues --  -11.27811 -11.27563 -11.26835 -11.26820 -11.21177
 Alpha  occ. eigenvalues --  -11.21153 -11.20921 -11.20857 -11.20693 -11.20643
 Alpha  occ. eigenvalues --   -1.59952  -1.39504  -1.19433  -1.08829  -1.07967
 Alpha  occ. eigenvalues --   -1.04832  -1.03110  -0.95676  -0.95557  -0.86589
 Alpha  occ. eigenvalues --   -0.86218  -0.82502  -0.79180  -0.77786  -0.77552
 Alpha  occ. eigenvalues --   -0.72141  -0.71295  -0.70536  -0.65083  -0.64826
 Alpha  occ. eigenvalues --   -0.64576  -0.62175  -0.60482  -0.58972  -0.57214
 Alpha  occ. eigenvalues --   -0.55330  -0.54824  -0.53265  -0.52916  -0.52196
 Alpha  occ. eigenvalues --   -0.51933  -0.49493  -0.48902  -0.48898  -0.47506
 Alpha  occ. eigenvalues --   -0.46215  -0.45354  -0.45262  -0.44804  -0.43366
 Alpha  occ. eigenvalues --   -0.37386  -0.36394
 Alpha virt. eigenvalues --    0.04951   0.11184   0.16441   0.21339   0.23322
 Alpha virt. eigenvalues --    0.24567   0.27063   0.27210   0.27811   0.28188
 Alpha virt. eigenvalues --    0.28536   0.30905   0.31868   0.31972   0.32051

 Mulliken charges:
               1
     1  C   -0.297615
     2  C   -0.304899
     3  C   -0.481957
     4  H    0.146552
     5  H    0.153486
     6  H    0.147069
     7  H    0.160321
     8  H    0.163035
     9  H    0.151088
    10  H    0.156575
    11  C   -0.299682
    12  C   -0.299507
    13  C   -0.475682
    14  H    0.145976
    15  H    0.156554
    16  H    0.149797
    17  H    0.153311
    18  H    0.156972
    19  H    0.153311
    20  H    0.159009
    21  C   -0.170430
    22  C   -0.218599
    23  C   -0.173244
    24  C    0.160906
    25  C   -0.170662
    26  C   -0.218530
    27  H    0.225985
    28  H    0.224148
    29  H    0.276866
    30  H    0.276070
    31  H    0.223781
    32  N    0.489069
    33  O   -0.460309
    34  O   -0.458768
 Sum of Mulliken charges =  -0.00000

 Dipole moment (field-independent basis, Debye):
    X=              3.0808    Y=             -3.6136    Z=              2.0279  Tot=              5.1635
 Quadrupole moment (field-independent basis, Debye-Ang):
   XX=            -81.3451   YY=            -99.1075   ZZ=            -90.7144
   XY=             -7.7861   XZ=              4.4694   YZ=              1.9002

 Normal termination of Gaussian 16 at Thu May  6 13:54:52 2021.
