 Gaussian 16, Revision A.03,
 Gaussian 16:  EM64L-G16RevA.03 25-Dec-2016

 -------------
 #p 6-31g* mp2
 -------------

 ------------------------------------------------------
 Input file generated by CHIRIPA (05-May-2021 14:57:22)
 ------------------------------------------------------
 Symbolic Z-matrix:
 Charge =  0 Multiplicity = 1

                         Standard orientation:
 ---------------------------------------------------------------------
 Center     Atomic      Atomic             Coordinates (Angstroms)
 Number     Number       Type             X           Y           Z
 ---------------------------------------------------------------------
      1          6           0        2.675212    2.315944    0.844580
      2          6           0        2.282334    1.134953    1.482880
      3          6           0        2.673435   -0.108815    0.978271
      4          6           0        3.460906   -0.134787   -0.171731
      5          6           0        3.868449    1.024307   -0.830290
      6          6           0        3.465622    2.256956   -0.307935
      7          1           0        2.366840    3.277814    1.243465
      8          1           0        1.668494    1.177730    2.378098
      9          1           0        2.383497   -1.038591    1.452476
     10          1           0        4.480389    0.949699   -1.721009
     11          1           0        3.772226    3.172506   -0.805738
     12          7           0        3.881155   -1.445623   -0.715331
     13          8           0        4.574889   -1.441518   -1.729901
     14          8           0        3.508854   -2.452340   -0.116541
     15          6           0       -5.406100    0.298475   -1.388811
     16          6           0       -5.393427   -0.764682   -0.479934
     17          6           0       -4.282660   -0.984575    0.340061
     18          6           0       -3.196894   -0.117965    0.224345
     19          6           0       -3.179404    0.950017   -0.671422
     20          6           0       -4.300997    1.150928   -1.481492
     21          1           0       -6.273176    0.461920   -2.021947
     22          1           0       -6.250252   -1.428307   -0.405795
     23          1           0       -4.246275   -1.799929    1.052304
     24          1           0       -2.310390    1.594702   -0.722546
     25          1           0       -4.308053    1.977397   -2.186435
     26          7           0       -2.015244   -0.340709    1.087182
     27          8           0       -1.071252    0.437001    0.966004
     28          8           0       -2.055433   -1.288787    1.868316
 ---------------------------------------------------------------------

 SCF Done:  E(RHF) =  -868.339232020     A.U. after   16 cycles
 E2 =    -0.2599246624D+01 EUMP2 =    -0.87093847864402D+03

 The electronic state is 1-A.
 Alpha  occ. eigenvalues --  -20.61341 -20.61319 -20.59877 -20.59856 -15.86357
 Alpha  occ. eigenvalues --  -15.84910 -11.31543 -11.30062 -11.28107 -11.28077
 Alpha  occ. eigenvalues --  -11.27803 -11.27076 -11.27053 -11.26663 -11.26450
 Alpha  occ. eigenvalues --  -11.26314 -11.25713 -11.25411  -1.60401  -1.58949
 Alpha  occ. eigenvalues --   -1.39958  -1.38506  -1.19701  -1.18202  -1.09132
 Alpha  occ. eigenvalues --   -1.07658  -1.05078  -1.03545  -0.95998  -0.94527
 Alpha  occ. eigenvalues --   -0.86485  -0.84978  -0.82837  -0.81346  -0.77903
 Alpha  occ. eigenvalues --   -0.76414  -0.72598  -0.71699  -0.71138  -0.70809
 Alpha  occ. eigenvalues --   -0.70267  -0.69348  -0.65359  -0.65083  -0.63855
 Alpha  occ. eigenvalues --   -0.63552  -0.62429  -0.60894  -0.55588  -0.54124
 Alpha  occ. eigenvalues --   -0.53414  -0.53170  -0.51922  -0.51643  -0.49360
 Alpha  occ. eigenvalues --   -0.49332  -0.47901  -0.47874  -0.45399  -0.43958
 Alpha  occ. eigenvalues --   -0.37669  -0.36672  -0.36213  -0.35075
 Alpha virt. eigenvalues --    0.04615   0.06089   0.10986   0.12522   0.16147
 Alpha virt. eigenvalues --    0.17635   0.21138   0.22571   0.27052   0.28008
 Alpha virt. eigenvalues --    0.28594   0.29377   0.30714   0.32075   0.32240

 Mulliken charges:
               1
     1  C   -0.174970
     2  C   -0.201648
     3  C   -0.167743
     4  C    0.155915
     5  C   -0.174576
     6  C   -0.219700
     7  H    0.220736
     8  H    0.231816
     9  H    0.279036
    10  H    0.270456
    11  H    0.217192
    12  N    0.487907
    13  O   -0.465504
    14  O   -0.460338
    15  C   -0.170007
    16  C   -0.218460
    17  C   -0.169997
    18  C    0.158137
    19  C   -0.170458
    20  C   -0.218383
    21  H    0.226960
    22  H    0.225001
    23  H    0.276722
    24  H    0.274280
    25  H    0.223959
    26  N    0.491101
    27  O   -0.468601
    28  O   -0.458836
 Sum of Mulliken charges =  -0.00000

 Dipole moment (field-independent basis, Debye):
    X=             -6.1050    Y=              5.2937    Z=             -0.9210  Tot=              8.1328
 Quadrupole moment (field-independent basis, Debye-Ang):
   XX=            -88.1490   YY=           -103.2663   ZZ=           -104.1134
   XY=             17.4161   XZ=             13.5338   YZ=             -4.4220

 Normal termination of Gaussian 16 at Thu May  6 16:13:36 2021.
