 Gaussian 16, Revision A.03,
 Gaussian 16:  EM64L-G16RevA.03 25-Dec-2016

 -------------
 #p 6-31g* mp2
 -------------

 ------------------------------------------------------
 Input file generated by CHIRIPA (05-May-2021 14:57:25)
 ------------------------------------------------------
 Symbolic Z-matrix:
 Charge =  0 Multiplicity = 1

                         Standard orientation:
 ---------------------------------------------------------------------
 Center     Atomic      Atomic             Coordinates (Angstroms)
 Number     Number       Type             X           Y           Z
 ---------------------------------------------------------------------
      1          6           0       -4.704400    1.554663   -0.919599
      2          6           0       -3.954598    0.671932   -1.703885
      3          6           0       -3.127083   -0.282480   -1.104832
      4          6           0       -3.073146   -0.326382    0.287451
      5          6           0       -3.808013    0.539306    1.096058
      6          6           0       -4.628847    1.485654    0.475410
      7          1           0       -5.344639    2.292941   -1.393346
      8          1           0       -4.011300    0.723226   -2.787490
      9          1           0       -2.535865   -0.978036   -1.687997
     10          1           0       -3.730694    0.463953    2.173909
     11          1           0       -5.210027    2.169919    1.087012
     12          7           0       -2.200629   -1.332507    0.933073
     13          8           0       -2.170669   -1.350736    2.161652
     14          8           0       -1.563232   -2.083826    0.198307
     15          6           0        2.632446   -2.193604   -0.875443
     16          6           0        3.821279   -1.942988   -0.182343
     17          6           0        4.155316   -0.642569    0.207372
     18          6           0        3.273455    0.388153   -0.113914
     19          6           0        2.081630    0.170450   -0.803441
     20          6           0        1.767939   -1.137947   -1.183238
     21          1           0        2.380861   -3.206899   -1.174331
     22          1           0        4.494565   -2.760878    0.058046
     23          1           0        5.069176   -0.420322    0.744851
     24          1           0        1.430476    1.006284   -1.028823
     25          1           0        0.843996   -1.329619   -1.721413
     26          7           0        3.616315    1.769070    0.293410
     27          8           0        2.822501    2.659813   -0.001673
     28          8           0        4.672372    1.934544    0.900042
 ---------------------------------------------------------------------

 SCF Done:  E(RHF) =  -868.338851007     A.U. after   16 cycles
 E2 =    -0.2599203390D+01 EUMP2 =    -0.87093805439689D+03

 The electronic state is 1-A.
 Alpha  occ. eigenvalues --  -20.61388 -20.61337 -20.60290 -20.60280 -15.86400
 Alpha  occ. eigenvalues --  -15.85334 -11.31654 -11.30525 -11.28267 -11.28148
 Alpha  occ. eigenvalues --  -11.27881 -11.27207 -11.27136 -11.27065 -11.27061
 Alpha  occ. eigenvalues --  -11.26705 -11.26047 -11.25983  -1.60422  -1.59365
 Alpha  occ. eigenvalues --   -1.39986  -1.38924  -1.19802  -1.18658  -1.09210
 Alpha  occ. eigenvalues --   -1.08072  -1.05191  -1.04044  -0.96071  -0.94948
 Alpha  occ. eigenvalues --   -0.86593  -0.85440  -0.82913  -0.81797  -0.77987
 Alpha  occ. eigenvalues --   -0.76879  -0.72632  -0.71732  -0.71560  -0.70905
 Alpha  occ. eigenvalues --   -0.70682  -0.69757  -0.65459  -0.65187  -0.64313
 Alpha  occ. eigenvalues --   -0.64036  -0.62551  -0.61410  -0.55673  -0.54514
 Alpha  occ. eigenvalues --   -0.53517  -0.53281  -0.52359  -0.52141  -0.49397
 Alpha  occ. eigenvalues --   -0.49356  -0.48324  -0.48297  -0.45408  -0.44371
 Alpha  occ. eigenvalues --   -0.37757  -0.36788  -0.36580  -0.35621
 Alpha virt. eigenvalues --    0.04530   0.05655   0.10852   0.12038   0.16065
 Alpha virt. eigenvalues --    0.17226   0.20583   0.22118   0.25880   0.27346
 Alpha virt. eigenvalues --    0.28648   0.29041   0.30268   0.31350   0.32686

 Mulliken charges:
               1
     1  C   -0.169814
     2  C   -0.217665
     3  C   -0.173864
     4  C    0.159357
     5  C   -0.169558
     6  C   -0.217525
     7  H    0.228004
     8  H    0.224047
     9  H    0.268860
    10  H    0.277721
    11  H    0.226301
    12  N    0.489637
    13  O   -0.454881
    14  O   -0.469033
    15  C   -0.167753
    16  C   -0.218218
    17  C   -0.171758
    18  C    0.158880
    19  C   -0.174286
    20  C   -0.208086
    21  H    0.227391
    22  H    0.221841
    23  H    0.273336
    24  H    0.269960
    25  H    0.224516
    26  N    0.488384
    27  O   -0.464035
    28  O   -0.461761
 Sum of Mulliken charges =  -0.00000

 Dipole moment (field-independent basis, Debye):
    X=             -4.5803    Y=             -1.3807    Z=             -3.6032  Tot=              5.9890
 Quadrupole moment (field-independent basis, Debye-Ang):
   XX=            -90.4392   YY=           -110.9379   ZZ=           -101.5637
   XY=            -29.6231   XZ=              1.9909   YZ=              2.7056

 Normal termination of Gaussian 16 at Thu May  6 18:05:57 2021.
