 Gaussian 16, Revision A.03,
 Gaussian 16:  EM64L-G16RevA.03 25-Dec-2016

 -------------
 #p 6-31g* mp2
 -------------

 ------------------------------------------------------
 Input file generated by CHIRIPA (05-May-2021 14:53:14)
 ------------------------------------------------------
 Symbolic Z-matrix:
 Charge =  0 Multiplicity = 1

                         Standard orientation:
 ---------------------------------------------------------------------
 Center     Atomic      Atomic             Coordinates (Angstroms)
 Number     Number       Type             X           Y           Z
 ---------------------------------------------------------------------
      1          6           0       -2.419506    1.075446   -0.624581
      2          6           0       -1.927940    2.241872    0.233207
      3          6           0       -0.889118    3.105566   -0.482805
      4          1           0       -1.560912    0.454264   -0.914225
      5          1           0       -2.848442    1.469771   -1.556202
      6          1           0       -1.501314    1.845541    1.163544
      7          1           0       -2.787828    2.860242    0.521001
      8          1           0       -1.307237    3.528382   -1.402046
      9          1           0       -0.013412    2.507916   -0.755852
     10          1           0       -0.551436    3.933431    0.148441
     11          6           0       -3.458416    0.202817    0.077496
     12          6           0       -3.949982   -0.963608   -0.780292
     13          6           0       -4.988805   -1.827303   -0.064280
     14          1           0       -3.029481   -0.191507    1.009117
     15          1           0       -4.317010    0.824000    0.367140
     16          1           0       -3.090094   -1.581979   -1.068086
     17          1           0       -4.376609   -0.567278   -1.710629
     18          1           0       -5.864510   -1.229652    0.208767
     19          1           0       -4.570686   -2.250119    0.854961
     20          1           0       -5.326486   -2.655167   -0.695526
     21          6           0        4.477719   -0.051893   -0.972091
     22          6           0        3.508204   -0.862151   -1.572129
     23          6           0        2.295772   -1.116863   -0.924303
     24          6           0        2.085149   -0.542577    0.328343
     25          6           0        3.031468    0.268981    0.952157
     26          6           0        4.236681    0.510095    0.285919
     27          1           0        5.416761    0.140691   -1.482488
     28          1           0        3.692666   -1.299927   -2.549048
     29          1           0        1.527883   -1.740360   -1.365909
     30          1           0        2.818809    0.691382    1.926720
     31          1           0        4.987803    1.139748    0.754320
     32          7           0        0.805423   -0.805032    1.023914
     33          8           0        0.644160   -0.287269    2.126888
     34          8           0       -0.012132   -1.523537    0.452957
 ---------------------------------------------------------------------

 SCF Done:  E(RHF) =  -669.537012438     A.U. after   15 cycles
 E2 =    -0.2092969889D+01 EUMP2 =    -0.67162998232745D+03

 The electronic state is 1-A.
 Alpha  occ. eigenvalues --  -20.61162 -20.61157 -15.86152 -11.31402 -11.27947
 Alpha  occ. eigenvalues --  -11.27942 -11.27665 -11.26929 -11.26919 -11.20577
 Alpha  occ. eigenvalues --  -11.20482 -11.20376 -11.20203 -11.20007 -11.20001
 Alpha  occ. eigenvalues --   -1.60196  -1.39756  -1.19553  -1.08973  -1.07254
 Alpha  occ. eigenvalues --   -1.04934  -1.02503  -0.95828  -0.94973  -0.86339
 Alpha  occ. eigenvalues --   -0.86002  -0.82664  -0.78558  -0.77732  -0.77051
 Alpha  occ. eigenvalues --   -0.72378  -0.71520  -0.70658  -0.65210  -0.64936
 Alpha  occ. eigenvalues --   -0.63823  -0.62281  -0.59887  -0.58365  -0.56589
 Alpha  occ. eigenvalues --   -0.55442  -0.54280  -0.53259  -0.53024  -0.51724
 Alpha  occ. eigenvalues --   -0.51423  -0.49163  -0.49132  -0.48896  -0.46893
 Alpha  occ. eigenvalues --   -0.45782  -0.45160  -0.44576  -0.44232  -0.42707
 Alpha  occ. eigenvalues --   -0.37521  -0.36527
 Alpha virt. eigenvalues --    0.04742   0.11118   0.16194   0.21219   0.23806
 Alpha virt. eigenvalues --    0.25133   0.27097   0.27465   0.28310   0.28657
 Alpha virt. eigenvalues --    0.29041   0.31015   0.32015   0.32369   0.32533

 Mulliken charges:
               1
     1  C   -0.299654
     2  C   -0.307286
     3  C   -0.473768
     4  H    0.154106
     5  H    0.141509
     6  H    0.166271
     7  H    0.148556
     8  H    0.152451
     9  H    0.147582
    10  H    0.157044
    11  C   -0.298140
    12  C   -0.300392
    13  C   -0.475799
    14  H    0.166086
    15  H    0.142424
    16  H    0.159856
    17  H    0.144340
    18  H    0.151099
    19  H    0.159663
    20  H    0.155319
    21  C   -0.170122
    22  C   -0.218447
    23  C   -0.171085
    24  C    0.158221
    25  C   -0.170272
    26  C   -0.218467
    27  H    0.226534
    28  H    0.224364
    29  H    0.276005
    30  H    0.276265
    31  H    0.224360
    32  N    0.488878
    33  O   -0.458355
    34  O   -0.459148
 Sum of Mulliken charges =  -0.00000

 Dipole moment (field-independent basis, Debye):
    X=              4.8121    Y=              0.7180    Z=             -2.2559  Tot=              5.3630
 Quadrupole moment (field-independent basis, Debye-Ang):
   XX=            -76.8438   YY=            -95.4934   ZZ=            -93.7473
   XY=             -0.2530   XZ=             -2.4229   YZ=              4.4244

 Normal termination of Gaussian 16 at Thu May  6 18:48:11 2021.
