 Gaussian 16, Revision A.03,
 Gaussian 16:  EM64L-G16RevA.03 25-Dec-2016

 -------------
 #p 6-31g* mp2
 -------------

 ------------------------------------------------------
 Input file generated by CHIRIPA (05-May-2021 14:57:22)
 ------------------------------------------------------
 Symbolic Z-matrix:
 Charge =  0 Multiplicity = 1

                         Standard orientation:
 ---------------------------------------------------------------------
 Center     Atomic      Atomic             Coordinates (Angstroms)
 Number     Number       Type             X           Y           Z
 ---------------------------------------------------------------------
      1          6           0        1.363657    1.050596   -0.217735
      2          6           0        2.520316    1.829733   -0.325470
      3          6           0        3.784481    1.235170   -0.271357
      4          6           0        3.855443   -0.147422   -0.107974
      5          6           0        2.721485   -0.950705    0.002334
      6          6           0        1.467750   -0.334694   -0.054465
      7          1           0        0.385674    1.520797   -0.260814
      8          1           0        2.442505    2.905789   -0.452334
      9          1           0        4.696208    1.814519   -0.352143
     10          1           0        2.830968   -2.021039    0.128103
     11          1           0        0.571180   -0.942280    0.029479
     12          7           0        5.188237   -0.788212   -0.049266
     13          8           0        5.223808   -2.008247    0.095262
     14          8           0        6.172074   -0.058296   -0.148889
     15          6           0       -2.193932    2.037887    0.667813
     16          6           0       -3.242624    2.163353   -0.249262
     17          6           0       -4.047959    1.064089   -0.561673
     18          6           0       -3.775175   -0.151161    0.064463
     19          6           0       -2.737772   -0.307884    0.982352
     20          6           0       -1.945292    0.804843    1.279615
     21          1           0       -1.573322    2.897050    0.904617
     22          1           0       -3.438038    3.119725   -0.725929
     23          1           0       -4.866379    1.133235   -1.267949
     24          1           0       -2.567391   -1.274168    1.441356
     25          1           0       -1.131552    0.704470    1.992213
     26          7           0       -4.620942   -1.322028   -0.258255
     27          8           0       -4.360002   -2.381753    0.307016
     28          8           0       -5.528779   -1.157859   -1.070362
 ---------------------------------------------------------------------

 SCF Done:  E(RHF) =  -868.336293299     A.U. after   16 cycles
 E2 =    -0.2602493299D+01 EUMP2 =    -0.87093878659792D+03

 The electronic state is 1-A.
 Alpha  occ. eigenvalues --  -20.61670 -20.61664 -20.61079 -20.61072 -15.86730
 Alpha  occ. eigenvalues --  -15.86135 -11.32365 -11.31591 -11.28946 -11.28888
 Alpha  occ. eigenvalues --  -11.28743 -11.28183 -11.28158 -11.28033 -11.27999
 Alpha  occ. eigenvalues --  -11.27850 -11.27229 -11.27172  -1.60739  -1.60152
 Alpha  occ. eigenvalues --   -1.40285  -1.39703  -1.20567  -1.19776  -1.09941
 Alpha  occ. eigenvalues --   -1.09153  -1.05985  -1.05190  -0.96722  -0.95970
 Alpha  occ. eigenvalues --   -0.87376  -0.86584  -0.83520  -0.82803  -0.78508
 Alpha  occ. eigenvalues --   -0.77832  -0.72943  -0.72349  -0.72068  -0.71760
 Alpha  occ. eigenvalues --   -0.71478  -0.70850  -0.66201  -0.65971  -0.65417
 Alpha  occ. eigenvalues --   -0.65199  -0.63285  -0.62527  -0.56543  -0.55836
 Alpha  occ. eigenvalues --   -0.54154  -0.54058  -0.53501  -0.53269  -0.49720
 Alpha  occ. eigenvalues --   -0.49682  -0.49118  -0.49100  -0.45631  -0.45087
 Alpha  occ. eigenvalues --   -0.38580  -0.37853  -0.37491  -0.36798
 Alpha virt. eigenvalues --    0.03918   0.04679   0.09944   0.10841   0.15227
 Alpha virt. eigenvalues --    0.16119   0.19713   0.21762   0.25458   0.26439
 Alpha virt. eigenvalues --    0.27605   0.28747   0.29952   0.31228   0.31998

 Mulliken charges:
               1
     1  C   -0.179006
     2  C   -0.221231
     3  C   -0.170014
     4  C    0.158549
     5  C   -0.170072
     6  C   -0.226418
     7  H    0.230862
     8  H    0.221088
     9  H    0.276418
    10  H    0.277723
    11  H    0.224402
    12  N    0.487933
    13  O   -0.458811
    14  O   -0.459778
    15  C   -0.184193
    16  C   -0.217409
    17  C   -0.169599
    18  C    0.161020
    19  C   -0.175711
    20  C   -0.223434
    21  H    0.226916
    22  H    0.227753
    23  H    0.279944
    24  H    0.278494
    25  H    0.230981
    26  N    0.487813
    27  O   -0.457782
    28  O   -0.456441
 Sum of Mulliken charges =  -0.00000

 Dipole moment (field-independent basis, Debye):
    X=             -2.0280    Y=              6.2892    Z=              0.8935  Tot=              6.6682
 Quadrupole moment (field-independent basis, Debye-Ang):
   XX=           -160.5096   YY=           -101.5894   ZZ=           -103.8053
   XY=             -6.3733   XZ=             -2.6526   YZ=             -2.7933

 Normal termination of Gaussian 16 at Fri May  7 06:22:11 2021.
