 Gaussian 16, Revision A.03,
 Gaussian 16:  EM64L-G16RevA.03 25-Dec-2016

 -------------
 #p 6-31g* mp2
 -------------

 ------------------------------------------------------
 Input file generated by CHIRIPA (05-May-2021 14:53:17)
 ------------------------------------------------------
 Symbolic Z-matrix:
 Charge =  0 Multiplicity = 1

                         Standard orientation:
 ---------------------------------------------------------------------
 Center     Atomic      Atomic             Coordinates (Angstroms)
 Number     Number       Type             X           Y           Z
 ---------------------------------------------------------------------
      1          6           0        3.952695    0.106568   -0.367935
      2          6           0        3.300118    1.485748   -0.467874
      3          6           0        1.879569    1.428218   -1.030480
      4          1           0        3.969690   -0.357037   -1.363790
      5          1           0        3.331642   -0.540071    0.267319
      6          1           0        3.922934    2.130012   -1.101626
      7          1           0        3.284848    1.946203    0.528301
      8          1           0        1.238659    0.807799   -0.395725
      9          1           0        1.880370    0.992652   -2.034912
     10          1           0        1.431970    2.424997   -1.093299
     11          6           0        5.373134    0.147655    0.192774
     12          6           0        6.025711   -1.231526    0.292713
     13          6           0        7.446260   -1.173996    0.855319
     14          1           0        5.994187    0.794293   -0.442480
     15          1           0        5.356139    0.611259    1.188629
     16          1           0        6.040981   -1.691981   -0.703462
     17          1           0        5.402895   -1.875790    0.926465
     18          1           0        7.445459   -0.738430    1.859751
     19          1           0        8.087170   -0.553577    0.220564
     20          1           0        7.893859   -2.170775    0.918138
     21          6           0       -6.087619   -0.674247    0.310755
     22          6           0       -5.315049   -1.301675   -0.672095
     23          6           0       -3.959534   -0.990906   -0.815441
     24          6           0       -3.406556   -0.043722    0.044995
     25          6           0       -4.150022    0.598567    1.033939
     26          6           0       -5.503668    0.272203    1.159139
     27          1           0       -7.139890   -0.921717    0.415061
     28          1           0       -5.765887   -2.037090   -1.332364
     29          1           0       -3.338262   -1.461491   -1.567764
     30          1           0       -3.672513    1.327560    1.677345
     31          1           0       -6.101227    0.761059    1.923330
     32          7           0       -1.972522    0.293529   -0.097154
     33          8           0       -1.509064    1.131466    0.673370
     34          8           0       -1.339136   -0.286453   -0.976402
 ---------------------------------------------------------------------

 SCF Done:  E(RHF) =  -669.536245987     A.U. after   15 cycles
 E2 =    -0.2091590410D+01 EUMP2 =    -0.67162783639681D+03

 The electronic state is 1-A.
 Alpha  occ. eigenvalues --  -20.61028 -20.61022 -15.86031 -11.31341 -11.27896
 Alpha  occ. eigenvalues --  -11.27892 -11.27629 -11.26897 -11.26887 -11.20818
 Alpha  occ. eigenvalues --  -11.20436 -11.20407 -11.20117 -11.20006 -11.18770
 Alpha  occ. eigenvalues --   -1.60068  -1.39624  -1.19502  -1.08911  -1.07284
 Alpha  occ. eigenvalues --   -1.04894  -1.02259  -0.95757  -0.94665  -0.86295
 Alpha  occ. eigenvalues --   -0.85673  -0.82586  -0.78380  -0.77646  -0.77018
 Alpha  occ. eigenvalues --   -0.72230  -0.71375  -0.70610  -0.65155  -0.64898
 Alpha  occ. eigenvalues --   -0.63930  -0.62240  -0.59665  -0.58170  -0.56280
 Alpha  occ. eigenvalues --   -0.55408  -0.53964  -0.53227  -0.52985  -0.51366
 Alpha  occ. eigenvalues --   -0.51141  -0.49243  -0.48997  -0.48352  -0.46593
 Alpha  occ. eigenvalues --   -0.45407  -0.45039  -0.44544  -0.44398  -0.42524
 Alpha  occ. eigenvalues --   -0.37480  -0.36493
 Alpha virt. eigenvalues --    0.04883   0.11162   0.16389   0.21303   0.23910
 Alpha virt. eigenvalues --    0.25656   0.27222   0.27756   0.28186   0.28567
 Alpha virt. eigenvalues --    0.29469   0.30872   0.32423   0.32686   0.32811

 Mulliken charges:
               1
     1  C   -0.296799
     2  C   -0.300795
     3  C   -0.476295
     4  H    0.147408
     5  H    0.150670
     6  H    0.143839
     7  H    0.148424
     8  H    0.182356
     9  H    0.147574
    10  H    0.153937
    11  C   -0.297174
    12  C   -0.298695
    13  C   -0.475007
    14  H    0.147097
    15  H    0.147931
    16  H    0.150673
    17  H    0.151088
    18  H    0.154110
    19  H    0.153989
    20  H    0.157671
    21  C   -0.170493
    22  C   -0.218592
    23  C   -0.170773
    24  C    0.159682
    25  C   -0.170809
    26  C   -0.218600
    27  H    0.226149
    28  H    0.224005
    29  H    0.276059
    30  H    0.275914
    31  H    0.223969
    32  N    0.487767
    33  O   -0.458857
    34  O   -0.457423
 Sum of Mulliken charges =  -0.00000

 Dipole moment (field-independent basis, Debye):
    X=             -5.5617    Y=             -1.2541    Z=              0.5415  Tot=              5.7270
 Quadrupole moment (field-independent basis, Debye-Ang):
   XX=            -63.4881   YY=            -93.3944   ZZ=            -91.6453
   XY=              4.0971   XZ=             -2.9966   YZ=              2.9758

 Normal termination of Gaussian 16 at Wed May  5 21:59:44 2021.
