 Gaussian 16, Revision A.03,
 Gaussian 16:  EM64L-G16RevA.03 25-Dec-2016

 -------------
 #p 6-31g* mp2
 -------------

 ------------------------------------------------------
 Input file generated by CHIRIPA (05-May-2021 14:55:19)
 ------------------------------------------------------
 Symbolic Z-matrix:
 Charge =  0 Multiplicity = 1

                         Standard orientation:
 ---------------------------------------------------------------------
 Center     Atomic      Atomic             Coordinates (Angstroms)
 Number     Number       Type             X           Y           Z
 ---------------------------------------------------------------------
      1          6           0        3.886572    2.090575   -0.339053
      2          6           0        3.503728    1.751837    0.962949
      3          6           0        2.773010    0.585277    1.207359
      4          6           0        2.440629   -0.223183    0.121447
      5          6           0        2.807443    0.087189   -1.187143
      6          6           0        3.537823    1.258636   -1.408058
      7          1           0        4.454080    2.998685   -0.519791
      8          1           0        3.773176    2.396043    1.795080
      9          1           0        2.463722    0.299107    2.205290
     10          1           0        2.524140   -0.574889   -1.996346
     11          1           0        3.833792    1.519196   -2.420262
     12          7           0        1.667230   -1.460756    0.367757
     13          8           0        1.386815   -2.156208   -0.606076
     14          8           0        1.356099   -1.711879    1.529984
     15          6           0       -3.260152   -0.700701    0.134511
     16          6           0       -2.281943   -1.564370   -0.662463
     17          6           0       -2.239131   -3.012761   -0.174481
     18          1           0       -2.978378   -0.723269    1.196131
     19          1           0       -4.264837   -1.140730    0.068360
     20          1           0       -1.279659   -1.122080   -0.595971
     21          1           0       -2.565964   -1.539591   -1.722338
     22          1           0       -3.227512   -3.476369   -0.256760
     23          1           0       -1.933898   -3.056487    0.876006
     24          1           0       -1.533535   -3.612315   -0.758030
     25          6           0       -3.314171    0.749896   -0.341493
     26          6           0       -4.292380    1.613565    0.455482
     27          6           0       -4.335191    3.061955   -0.032502
     28          1           0       -2.309485    1.189924   -0.275341
     29          1           0       -3.595945    0.772463   -1.403113
     30          1           0       -4.008359    1.588785    1.515356
     31          1           0       -5.294664    1.171274    0.388989
     32          1           0       -4.640424    3.105681   -1.082988
     33          1           0       -3.346811    3.525563    0.049779
     34          1           0       -5.040787    3.661509    0.551048
 ---------------------------------------------------------------------

 SCF Done:  E(RHF) =  -669.536081608     A.U. after   15 cycles
 E2 =    -0.2091979733D+01 EUMP2 =    -0.67162806134092D+03

 The electronic state is 1-A.
 Alpha  occ. eigenvalues --  -20.60996 -20.60981 -15.86002 -11.31319 -11.27880
 Alpha  occ. eigenvalues --  -11.27874 -11.27613 -11.26882 -11.26871 -11.21190
 Alpha  occ. eigenvalues --  -11.20826 -11.20814 -11.20500 -11.20370 -11.19478
 Alpha  occ. eigenvalues --   -1.60043  -1.39599  -1.19485  -1.08892  -1.07682
 Alpha  occ. eigenvalues --   -1.04878  -1.02671  -0.95737  -0.95117  -0.86279
 Alpha  occ. eigenvalues --   -0.86144  -0.82568  -0.78811  -0.77625  -0.77435
 Alpha  occ. eigenvalues --   -0.72226  -0.71376  -0.70592  -0.65139  -0.64880
 Alpha  occ. eigenvalues --   -0.64320  -0.62224  -0.60068  -0.58570  -0.56696
 Alpha  occ. eigenvalues --   -0.55383  -0.54424  -0.53208  -0.52968  -0.51789
 Alpha  occ. eigenvalues --   -0.51554  -0.49142  -0.48986  -0.48909  -0.47098
 Alpha  occ. eigenvalues --   -0.45908  -0.45233  -0.44952  -0.44605  -0.42931
 Alpha  occ. eigenvalues --   -0.37463  -0.36478
 Alpha virt. eigenvalues --    0.04879   0.11175   0.16358   0.21307   0.23493
 Alpha virt. eigenvalues --    0.25200   0.27205   0.27275   0.28036   0.28307
 Alpha virt. eigenvalues --    0.28913   0.30825   0.32104   0.32307   0.32491

 Mulliken charges:
               1
     1  C   -0.170477
     2  C   -0.218611
     3  C   -0.170936
     4  C    0.157498
     5  C   -0.170702
     6  C   -0.218537
     7  H    0.226167
     8  H    0.223923
     9  H    0.275762
    10  H    0.276196
    11  H    0.224057
    12  N    0.487264
    13  O   -0.457356
    14  O   -0.459154
    15  C   -0.298910
    16  C   -0.297104
    17  C   -0.474124
    18  H    0.151127
    19  H    0.146796
    20  H    0.153069
    21  H    0.145374
    22  H    0.144231
    23  H    0.162318
    24  H    0.170790
    25  C   -0.296648
    26  C   -0.298900
    27  C   -0.474980
    28  H    0.145362
    29  H    0.147661
    30  H    0.151439
    31  H    0.151807
    32  H    0.154301
    33  H    0.152570
    34  H    0.158729
 Sum of Mulliken charges =  -0.00000

 Dipole moment (field-independent basis, Debye):
    X=              3.0121    Y=              4.2331    Z=             -0.8304  Tot=              5.2613
 Quadrupole moment (field-independent basis, Debye-Ang):
   XX=            -82.4546   YY=            -98.2182   ZZ=            -89.8134
   XY=             10.7372   XZ=             -1.6272   YZ=              2.2406

 Normal termination of Gaussian 16 at Thu May  6 19:03:54 2021.
