 Gaussian 16, Revision A.03,
 Gaussian 16:  EM64L-G16RevA.03 25-Dec-2016

 -------------
 #p 6-31g* mp2
 -------------

 ------------------------------------------------------
 Input file generated by CHIRIPA (05-May-2021 14:57:23)
 ------------------------------------------------------
 Symbolic Z-matrix:
 Charge =  0 Multiplicity = 1

                         Standard orientation:
 ---------------------------------------------------------------------
 Center     Atomic      Atomic             Coordinates (Angstroms)
 Number     Number       Type             X           Y           Z
 ---------------------------------------------------------------------
      1          6           0        2.531627    1.737086   -0.801935
      2          6           0        3.881983    2.100569   -0.771255
      3          6           0        4.858303    1.173886   -0.393626
      4          6           0        4.447035   -0.113368   -0.051387
      5          6           0        3.109560   -0.505823   -0.072081
      6          6           0        2.150398    0.437342   -0.452865
      7          1           0        1.779862    2.463357   -1.096512
      8          1           0        4.180958    3.109254   -1.041834
      9          1           0        5.910689    1.428539   -0.361163
     10          1           0        2.842166   -1.518848    0.203053
     11          1           0        1.102426    0.152253   -0.475779
     12          7           0        5.471540   -1.103130    0.350062
     13          8           0        5.083343   -2.230855    0.647010
     14          8           0        6.643343   -0.732439    0.360169
     15          6           0       -1.929520    0.599206    0.772189
     16          6           0       -2.139509   -0.321011   -0.260103
     17          6           0       -3.436492   -0.687926   -0.631258
     18          6           0       -4.505245   -0.112497    0.054263
     19          6           0       -4.328490    0.807081    1.086941
     20          6           0       -3.022754    1.159328    1.441236
     21          1           0       -0.918593    0.878536    1.053962
     22          1           0       -1.292382   -0.757615   -0.781446
     23          1           0       -3.627701   -1.397907   -1.426736
     24          1           0       -5.192890    1.225385    1.588192
     25          1           0       -2.862676    1.874234    2.243315
     26          7           0       -5.882936   -0.493167   -0.329737
     27          8           0       -6.807671    0.028075    0.289785
     28          8           0       -6.011948   -1.305574   -1.242967
 ---------------------------------------------------------------------

 SCF Done:  E(RHF) =  -868.336263683     A.U. after   16 cycles
 E2 =    -0.2600154765D+01 EUMP2 =    -0.87093641844728D+03

 The electronic state is 1-A.
 Alpha  occ. eigenvalues --  -20.61408 -20.61400 -20.61282 -20.61276 -15.86470
 Alpha  occ. eigenvalues --  -15.86342 -11.31997 -11.31861 -11.28668 -11.28572
 Alpha  occ. eigenvalues --  -11.28481 -11.28427 -11.28421 -11.28310 -11.27805
 Alpha  occ. eigenvalues --  -11.27626 -11.27585 -11.27487  -1.60480  -1.60354
 Alpha  occ. eigenvalues --   -1.40028  -1.39903  -1.20212  -1.20068  -1.09582
 Alpha  occ. eigenvalues --   -1.09456  -1.05657  -1.05494  -0.96376  -0.96257
 Alpha  occ. eigenvalues --   -0.87080  -0.86886  -0.83217  -0.83081  -0.78249
 Alpha  occ. eigenvalues --   -0.78073  -0.72685  -0.72559  -0.71806  -0.71679
 Alpha  occ. eigenvalues --   -0.71326  -0.71220  -0.65947  -0.65869  -0.65702
 Alpha  occ. eigenvalues --   -0.65352  -0.63058  -0.62763  -0.56161  -0.56048
 Alpha  occ. eigenvalues --   -0.53952  -0.53841  -0.53799  -0.53534  -0.49458
 Alpha  occ. eigenvalues --   -0.49427  -0.49331  -0.49300  -0.45398  -0.45273
 Alpha  occ. eigenvalues --   -0.38202  -0.38088  -0.37258  -0.37089
 Alpha virt. eigenvalues --    0.04336   0.04458   0.10282   0.10536   0.15754
 Alpha virt. eigenvalues --    0.15892   0.17697   0.22043   0.24530   0.26635
 Alpha virt. eigenvalues --    0.27615   0.28885   0.29559   0.30766   0.31575

 Mulliken charges:
               1
     1  C   -0.172807
     2  C   -0.218307
     3  C   -0.169043
     4  C    0.159159
     5  C   -0.171066
     6  C   -0.226464
     7  H    0.227237
     8  H    0.226590
     9  H    0.278618
    10  H    0.277082
    11  H    0.218999
    12  N    0.488049
    13  O   -0.458984
    14  O   -0.457985
    15  C   -0.174665
    16  C   -0.222514
    17  C   -0.169112
    18  C    0.159135
    19  C   -0.169734
    20  C   -0.218117
    21  H    0.222381
    22  H    0.218555
    23  H    0.278145
    24  H    0.278097
    25  H    0.225876
    26  N    0.487881
    27  O   -0.458384
    28  O   -0.458623
 Sum of Mulliken charges =  -0.00000

 Dipole moment (field-independent basis, Debye):
    X=              1.2853    Y=              4.8742    Z=             -0.0416  Tot=              5.0410
 Quadrupole moment (field-independent basis, Debye-Ang):
   XX=           -175.7981   YY=           -102.2597   ZZ=           -103.1180
   XY=             11.1104   XZ=            -14.1911   YZ=              1.8761

 Normal termination of Gaussian 16 at Fri May  7 06:27:16 2021.
