 Gaussian 16, Revision A.03,
 Gaussian 16:  EM64L-G16RevA.03 25-Dec-2016

 -------------
 #p 6-31g* mp2
 -------------

 ------------------------------------------------------
 Input file generated by CHIRIPA (05-May-2021 14:51:09)
 ------------------------------------------------------
 Symbolic Z-matrix:
 Charge =  0 Multiplicity = 1

                         Standard orientation:
 ---------------------------------------------------------------------
 Center     Atomic      Atomic             Coordinates (Angstroms)
 Number     Number       Type             X           Y           Z
 ---------------------------------------------------------------------
      1          6           0       -4.212958   -0.399708    0.090571
      2          6           0       -5.110856    0.673589   -0.525705
      3          6           0       -6.531794    0.174983   -0.790511
      4          1           0       -4.178922   -1.269458   -0.579745
      5          1           0       -4.661780   -0.747488    1.031317
      6          1           0       -4.659771    1.020227   -1.464311
      7          1           0       -5.142604    1.540960    0.146065
      8          1           0       -7.004902   -0.152703    0.140828
      9          1           0       -6.519325   -0.676395   -1.478697
     10          1           0       -7.156519    0.958226   -1.231090
     11          6           0       -2.789263    0.083627    0.361140
     12          6           0       -1.891364   -0.989670    0.977417
     13          6           0       -0.470426   -0.491065    1.242222
     14          1           0       -2.340440    0.431407   -0.579605
     15          1           0       -2.823298    0.953376    1.031456
     16          1           0       -1.859616   -1.857041    0.305647
     17          1           0       -2.342449   -1.336309    1.916022
     18          1           0       -0.482895    0.360313    1.930409
     19          1           0        0.002681   -0.163378    0.310883
     20          1           0        0.154298   -1.274307    1.682801
     21          6           0        3.905975   -0.486163   -0.158641
     22          6           0        3.120530   -1.739272   -0.546942
     23          6           0        3.943934   -3.020004   -0.407209
     24          1           0        4.805275   -0.415846   -0.785745
     25          1           0        4.255130   -0.587394    0.878296
     26          1           0        2.771782   -1.635108   -1.582385
     27          1           0        2.222896   -1.806511    0.081029
     28          1           0        4.279841   -3.151170    0.626504
     29          1           0        4.831846   -2.978793   -1.046361
     30          1           0        3.363139   -3.903533   -0.689899
     31          6           0        3.096245    0.802244   -0.293071
     32          6           0        3.881690    2.055353    0.095231
     33          6           0        3.058286    3.336085   -0.044502
     34          1           0        2.747089    0.903476   -1.330007
     35          1           0        2.196945    0.731927    0.334034
     36          1           0        4.779324    2.122592   -0.532740
     37          1           0        4.230438    1.951190    1.130673
     38          1           0        2.170374    3.294874    0.594649
     39          1           0        2.722379    3.467251   -1.078215
     40          1           0        3.639081    4.219614    0.238187
 ---------------------------------------------------------------------

 SCF Done:  E(RHF) =  -470.732658794     A.U. after   11 cycles
 E2 =    -0.1583394414D+01 EUMP2 =    -0.47231605320797D+03

 The electronic state is 1-A.
 Alpha  occ. eigenvalues --  -11.21635 -11.21612 -11.21535 -11.21503 -11.21425
 Alpha  occ. eigenvalues --  -11.21365 -11.21314 -11.21238 -11.21113 -11.21079
 Alpha  occ. eigenvalues --  -11.21024 -11.21024  -1.08457  -1.08353  -1.03562
 Alpha  occ. eigenvalues --   -1.03464  -0.96027  -0.95911  -0.87046  -0.86933
 Alpha  occ. eigenvalues --   -0.79653  -0.79529  -0.78302  -0.78122  -0.65118
 Alpha  occ. eigenvalues --   -0.64965  -0.60973  -0.60863  -0.59408  -0.59259
 Alpha  occ. eigenvalues --   -0.57683  -0.57484  -0.55345  -0.55179  -0.52761
 Alpha  occ. eigenvalues --   -0.52603  -0.52509  -0.52279  -0.49992  -0.49856
 Alpha  occ. eigenvalues --   -0.48024  -0.47797  -0.46741  -0.46544  -0.45918
 Alpha  occ. eigenvalues --   -0.45753  -0.45672  -0.45323  -0.43785  -0.43702
 Alpha virt. eigenvalues --    0.21927   0.22963   0.23952   0.24410   0.25753
 Alpha virt. eigenvalues --    0.26501   0.27004   0.27480   0.27949   0.29638
 Alpha virt. eigenvalues --    0.30297   0.31243   0.31763   0.31895   0.32134

 Mulliken charges:
               1
     1  C   -0.298329
     2  C   -0.299671
     3  C   -0.475722
     4  H    0.149737
     5  H    0.149544
     6  H    0.152024
     7  H    0.151975
     8  H    0.155182
     9  H    0.155201
    10  H    0.160315
    11  C   -0.298694
    12  C   -0.300235
    13  C   -0.481527
    14  H    0.150043
    15  H    0.149625
    16  H    0.152441
    17  H    0.151845
    18  H    0.154439
    19  H    0.161430
    20  H    0.161066
    21  C   -0.297142
    22  C   -0.305786
    23  C   -0.475452
    24  H    0.149096
    25  H    0.148986
    26  H    0.150690
    27  H    0.159028
    28  H    0.154839
    29  H    0.154968
    30  H    0.159751
    31  C   -0.307176
    32  C   -0.298942
    33  C   -0.475735
    34  H    0.147764
    35  H    0.161158
    36  H    0.151519
    37  H    0.151680
    38  H    0.155248
    39  H    0.154824
    40  H    0.159989
 Sum of Mulliken charges =  -0.00000

 Dipole moment (field-independent basis, Debye):
    X=             -0.0538    Y=              0.0032    Z=              0.0183  Tot=              0.0569
 Quadrupole moment (field-independent basis, Debye-Ang):
   XX=            -86.2147   YY=            -85.8671   ZZ=            -83.0512
   XY=              0.2028   XZ=             -0.7758   YZ=              0.1887

 Normal termination of Gaussian 16 at Wed May  5 22:57:09 2021.
