 Gaussian 16, Revision A.03,
 Gaussian 16:  EM64L-G16RevA.03 25-Dec-2016

 -------------
 #p 6-31g* mp2
 -------------

 ------------------------------------------------------
 Input file generated by CHIRIPA (05-May-2021 14:57:24)
 ------------------------------------------------------
 Symbolic Z-matrix:
 Charge =  0 Multiplicity = 1

                         Standard orientation:
 ---------------------------------------------------------------------
 Center     Atomic      Atomic             Coordinates (Angstroms)
 Number     Number       Type             X           Y           Z
 ---------------------------------------------------------------------
      1          6           0        1.121070    0.259427   -0.521727
      2          6           0        1.967928    1.370001   -0.444394
      3          6           0        3.347398    1.201724   -0.291779
      4          6           0        3.848319   -0.097188   -0.219679
      5          6           0        3.030461   -1.223655   -0.293636
      6          6           0        1.654100   -1.031580   -0.446234
      7          1           0        0.050672    0.399393   -0.640275
      8          1           0        1.556758    2.373784   -0.502735
      9          1           0        4.025849    2.043866   -0.229184
     10          1           0        3.469719   -2.211950   -0.232443
     11          1           0        0.998814   -1.895914   -0.506005
     12          7           0        5.307056   -0.287932   -0.058121
     13          8           0        5.723560   -1.442682    0.002835
     14          8           0        6.006290    0.720923    0.004492
     15          6           0       -1.777037    0.670274    1.873700
     16          6           0       -2.506051   -0.510791    2.047323
     17          6           0       -3.522696   -0.855789    1.151802
     18          6           0       -3.784902    0.007307    0.088976
     19          6           0       -3.076193    1.190986   -0.110837
     20          6           0       -2.063928    1.515902    0.797073
     21          1           0       -0.988985    0.930478    2.574174
     22          1           0       -2.285434   -1.169420    2.882536
     23          1           0       -4.102627   -1.763994    1.262543
     24          1           0       -3.319145    1.827487   -0.953012
     25          1           0       -1.499396    2.433776    0.659754
     26          7           0       -4.858860   -0.347297   -0.865630
     27          8           0       -5.070419    0.430023   -1.793883
     28          8           0       -5.468732   -1.395841   -0.667521
 ---------------------------------------------------------------------

 SCF Done:  E(RHF) =  -868.336817004     A.U. after   16 cycles
 E2 =    -0.2601559637D+01 EUMP2 =    -0.87093837664058D+03

 The electronic state is 1-A.
 Alpha  occ. eigenvalues --  -20.61649 -20.61643 -20.61102 -20.61096 -15.86712
 Alpha  occ. eigenvalues --  -15.86161 -11.32283 -11.31569 -11.28926 -11.28849
 Alpha  occ. eigenvalues --  -11.28605 -11.28202 -11.28150 -11.27951 -11.27838
 Alpha  occ. eigenvalues --  -11.27765 -11.27223 -11.27109  -1.60723  -1.60178
 Alpha  occ. eigenvalues --   -1.40269  -1.39730  -1.20501  -1.19759  -1.09837
 Alpha  occ. eigenvalues --   -1.09126  -1.05929  -1.05179  -0.96621  -0.95952
 Alpha  occ. eigenvalues --   -0.87293  -0.86567  -0.83448  -0.82793  -0.78473
 Alpha  occ. eigenvalues --   -0.77845  -0.72918  -0.72374  -0.72058  -0.71518
 Alpha  occ. eigenvalues --   -0.71506  -0.70850  -0.66117  -0.65907  -0.65396
 Alpha  occ. eigenvalues --   -0.65186  -0.63236  -0.62527  -0.56337  -0.55901
 Alpha  occ. eigenvalues --   -0.54019  -0.53974  -0.53467  -0.53265  -0.49695
 Alpha  occ. eigenvalues --   -0.49665  -0.49138  -0.49127  -0.45630  -0.45126
 Alpha  occ. eigenvalues --   -0.38617  -0.37659  -0.37437  -0.36808
 Alpha virt. eigenvalues --    0.03977   0.04762   0.10001   0.10862   0.15354
 Alpha virt. eigenvalues --    0.16275   0.19634   0.21566   0.25135   0.27246
 Alpha virt. eigenvalues --    0.27591   0.28515   0.29860   0.31035   0.31571

 Mulliken charges:
               1
     1  C   -0.175585
     2  C   -0.225632
     3  C   -0.170076
     4  C    0.157609
     5  C   -0.170416
     6  C   -0.222487
     7  H    0.236272
     8  H    0.217279
     9  H    0.275880
    10  H    0.276541
    11  H    0.225454
    12  N    0.488064
    13  O   -0.459522
    14  O   -0.460212
    15  C   -0.167801
    16  C   -0.220593
    17  C   -0.170514
    18  C    0.158715
    19  C   -0.173716
    20  C   -0.233976
    21  H    0.232354
    22  H    0.228387
    23  H    0.279341
    24  H    0.278509
    25  H    0.223696
    26  N    0.488030
    27  O   -0.458261
    28  O   -0.457340
 Sum of Mulliken charges =  -0.00000

 Dipole moment (field-independent basis, Debye):
    X=             -1.6083    Y=              1.7780    Z=              2.9035  Tot=              3.7655
 Quadrupole moment (field-independent basis, Debye-Ang):
   XX=           -173.3734   YY=            -96.7164   ZZ=           -103.6358
   XY=              0.0529   XZ=            -14.2449   YZ=             -2.4591

 Normal termination of Gaussian 16 at Wed May  5 21:03:54 2021.
