 Gaussian 16, Revision A.03,
 Gaussian 16:  EM64L-G16RevA.03 25-Dec-2016

 -------------
 #p 6-31g* mp2
 -------------

 ------------------------------------------------------
 Input file generated by CHIRIPA (05-May-2021 14:53:13)
 ------------------------------------------------------
 Symbolic Z-matrix:
 Charge =  0 Multiplicity = 1

                         Standard orientation:
 ---------------------------------------------------------------------
 Center     Atomic      Atomic             Coordinates (Angstroms)
 Number     Number       Type             X           Y           Z
 ---------------------------------------------------------------------
      1          6           0        4.478826    0.228371   -0.218435
      2          6           0        4.485014   -1.264611   -0.548513
      3          6           0        5.837157   -1.748405   -1.073345
      4          1           0        4.749383    0.797486   -1.118353
      5          1           0        5.258179    0.434963    0.528106
      6          1           0        3.704959   -1.468555   -1.293185
      7          1           0        4.214224   -1.830227    0.352246
      8          1           0        6.623208   -1.573658   -0.331599
      9          1           0        6.111049   -1.209931   -1.986379
     10          1           0        5.819174   -2.818364   -1.302961
     11          6           0        3.133981    0.726989    0.307397
     12          6           0        3.127792    2.219971    0.637476
     13          6           0        1.775650    2.703765    1.162308
     14          1           0        2.354627    0.520396   -0.439144
     15          1           0        2.863424    0.157874    1.207315
     16          1           0        3.398582    2.785587   -0.263283
     17          1           0        3.907848    2.423915    1.382147
     18          1           0        1.501758    2.165291    2.075341
     19          1           0        0.989598    2.529018    0.420561
     20          1           0        1.793633    3.773724    1.391923
     21          6           0       -1.162221   -1.830459    0.945368
     22          6           0       -2.506950   -2.117763    1.201649
     23          6           0       -3.519037   -1.317164    0.663814
     24          6           0       -3.148885   -0.232304   -0.129505
     25          6           0       -1.818068    0.079759   -0.403062
     26          6           0       -0.822670   -0.734547    0.145241
     27          1           0       -0.382488   -2.457707    1.367237
     28          1           0       -2.773595   -2.968213    1.822681
     29          1           0       -4.567998   -1.516808    0.846142
     30          1           0       -1.583303    0.934375   -1.025907
     31          1           0        0.220835   -0.509035   -0.055475
     32          7           0       -4.211503    0.622511   -0.704428
     33          8           0       -3.859191    1.572494   -1.400161
     34          8           0       -5.376573    0.326343   -0.448435
 ---------------------------------------------------------------------

 SCF Done:  E(RHF) =  -669.535578044     A.U. after   15 cycles
 E2 =    -0.2091683489D+01 EUMP2 =    -0.67162726153267D+03

 The electronic state is 1-A.
 Alpha  occ. eigenvalues --  -20.60702 -20.60697 -15.85754 -11.31105 -11.27670
 Alpha  occ. eigenvalues --  -11.27657 -11.27394 -11.26690 -11.26607 -11.22467
 Alpha  occ. eigenvalues --  -11.22419 -11.22345 -11.22189 -11.21747 -11.21708
 Alpha  occ. eigenvalues --   -1.59778  -1.39332  -1.19268  -1.09296  -1.08665
 Alpha  occ. eigenvalues --   -1.04669  -1.04288  -0.96738  -0.95506  -0.87749
 Alpha  occ. eigenvalues --   -0.86067  -0.82343  -0.80358  -0.79169  -0.77381
 Alpha  occ. eigenvalues --   -0.71973  -0.71100  -0.70381  -0.65933  -0.64919
 Alpha  occ. eigenvalues --   -0.64667  -0.62047  -0.61656  -0.60100  -0.58360
 Alpha  occ. eigenvalues --   -0.56028  -0.55171  -0.53388  -0.53221  -0.52993
 Alpha  occ. eigenvalues --   -0.52722  -0.50674  -0.48751  -0.48730  -0.48644
 Alpha  occ. eigenvalues --   -0.47392  -0.46633  -0.46598  -0.44741  -0.44577
 Alpha  occ. eigenvalues --   -0.37248  -0.36263
 Alpha virt. eigenvalues --    0.05130   0.11369   0.16595   0.19673   0.22562
 Alpha virt. eigenvalues --    0.23612   0.24844   0.25815   0.26673   0.28435
 Alpha virt. eigenvalues --    0.29110   0.30474   0.30942   0.31309   0.31585

 Mulliken charges:
               1
     1  C   -0.297375
     2  C   -0.300677
     3  C   -0.476015
     4  H    0.153147
     5  H    0.152920
     6  H    0.150059
     7  H    0.149369
     8  H    0.156921
     9  H    0.157516
    10  H    0.161635
    11  C   -0.304349
    12  C   -0.300073
    13  C   -0.476413
    14  H    0.144015
    15  H    0.147626
    16  H    0.155364
    17  H    0.155309
    18  H    0.156165
    19  H    0.151279
    20  H    0.165982
    21  C   -0.173734
    22  C   -0.218340
    23  C   -0.171471
    24  C    0.158880
    25  C   -0.174221
    26  C   -0.225077
    27  H    0.225804
    28  H    0.222923
    29  H    0.275222
    30  H    0.274802
    31  H    0.236104
    32  N    0.488150
    33  O   -0.460692
    34  O   -0.460757
 Sum of Mulliken charges =  -0.00000

 Dipole moment (field-independent basis, Debye):
    X=              3.9992    Y=             -2.9171    Z=              2.0571  Tot=              5.3605
 Quadrupole moment (field-independent basis, Debye-Ang):
   XX=           -116.0941   YY=            -92.0549   ZZ=            -94.1820
   XY=             11.5894   XZ=             -8.0633   YZ=             -1.8431

 Normal termination of Gaussian 16 at Wed May  5 17:01:34 2021.
