 Gaussian 16, Revision A.03,
 Gaussian 16:  EM64L-G16RevA.03 25-Dec-2016

 -------------
 #p 6-31g* mp2
 -------------

 ------------------------------------------------------
 Input file generated by CHIRIPA (05-May-2021 14:57:21)
 ------------------------------------------------------
 Symbolic Z-matrix:
 Charge =  0 Multiplicity = 1

                         Standard orientation:
 ---------------------------------------------------------------------
 Center     Atomic      Atomic             Coordinates (Angstroms)
 Number     Number       Type             X           Y           Z
 ---------------------------------------------------------------------
      1          6           0        1.739380   -1.873024    0.560397
      2          6           0        2.942465   -1.933590    1.271339
      3          6           0        3.995287   -1.067899    0.960385
      4          6           0        3.809861   -0.149861   -0.072143
      5          6           0        2.623241   -0.065069   -0.798802
      6          6           0        1.583881   -0.940600   -0.470587
      7          1           0        0.926751   -2.549335    0.808659
      8          1           0        3.066047   -2.656709    2.072508
      9          1           0        4.937302   -1.093216    1.494599
     10          1           0        2.529771    0.666451   -1.592250
     11          1           0        0.650664   -0.891302   -1.024409
     12          7           0        4.917310    0.771816   -0.410473
     13          8           0        4.728855    1.571591   -1.324519
     14          8           0        5.952814    0.676999    0.244796
     15          6           0       -2.315962    2.360924    0.653620
     16          6           0       -3.712042    2.365581    0.740002
     17          6           0       -4.448885    1.230338    0.389526
     18          6           0       -3.754119    0.102692   -0.045224
     19          6           0       -2.363923    0.067030   -0.142043
     20          6           0       -1.647537    1.213687    0.213649
     21          1           0       -1.751510    3.247242    0.927904
     22          1           0       -4.233813    3.255118    1.081355
     23          1           0       -5.530347    1.206567    0.446910
     24          1           0       -1.871861   -0.834691   -0.485835
     25          1           0       -0.563393    1.207201    0.145570
     26          7           0       -4.523353   -1.105180   -0.419019
     27          8           0       -3.887569   -2.085985   -0.799067
     28          8           0       -5.747498   -1.048234   -0.324871
 ---------------------------------------------------------------------

 SCF Done:  E(RHF) =  -868.337394321     A.U. after   16 cycles
 E2 =    -0.2600601226D+01 EUMP2 =    -0.87093799554666D+03

 The electronic state is 1-A.
 Alpha  occ. eigenvalues --  -20.61388 -20.61364 -20.61328 -20.61318 -15.86432
 Alpha  occ. eigenvalues --  -15.86386 -11.31855 -11.31817 -11.28523 -11.28472
 Alpha  occ. eigenvalues --  -11.28424 -11.28309 -11.28189 -11.28022 -11.27571
 Alpha  occ. eigenvalues --  -11.27396 -11.27349 -11.27310  -1.60451  -1.60401
 Alpha  occ. eigenvalues --   -1.40007  -1.39951  -1.20061  -1.19960  -1.09420
 Alpha  occ. eigenvalues --   -1.09332  -1.05517  -1.05355  -0.96231  -0.96180
 Alpha  occ. eigenvalues --   -0.86878  -0.86760  -0.83117  -0.82980  -0.78213
 Alpha  occ. eigenvalues --   -0.77990  -0.72650  -0.72597  -0.71774  -0.71729
 Alpha  occ. eigenvalues --   -0.71135  -0.71047  -0.65718  -0.65688  -0.65457
 Alpha  occ. eigenvalues --   -0.65358  -0.63049  -0.62490  -0.55935  -0.55813
 Alpha  occ. eigenvalues --   -0.53859  -0.53686  -0.53554  -0.53397  -0.49417
 Alpha  occ. eigenvalues --   -0.49396  -0.49364  -0.49348  -0.45410  -0.45334
 Alpha  occ. eigenvalues --   -0.38019  -0.37898  -0.37107  -0.36969
 Alpha virt. eigenvalues --    0.04406   0.04474   0.10458   0.10689   0.15750
 Alpha virt. eigenvalues --    0.15962   0.18644   0.22024   0.24786   0.26732
 Alpha virt. eigenvalues --    0.27839   0.29351   0.30328   0.30836   0.31450

 Mulliken charges:
               1
     1  C   -0.171285
     2  C   -0.218734
     3  C   -0.169151
     4  C    0.158957
     5  C   -0.174517
     6  C   -0.228332
     7  H    0.231716
     8  H    0.227440
     9  H    0.278225
    10  H    0.276855
    11  H    0.223558
    12  N    0.487951
    13  O   -0.460059
    14  O   -0.458170
    15  C   -0.170919
    16  C   -0.217773
    17  C   -0.170485
    18  C    0.161097
    19  C   -0.178526
    20  C   -0.220936
    21  H    0.229748
    22  H    0.226265
    23  H    0.277391
    24  H    0.266298
    25  H    0.225823
    26  N    0.488560
    27  O   -0.463696
    28  O   -0.457300
 Sum of Mulliken charges =  -0.00000

 Dipole moment (field-independent basis, Debye):
    X=             -1.1015    Y=              1.0448    Z=              2.6630  Tot=              3.0654
 Quadrupole moment (field-independent basis, Debye-Ang):
   XX=           -148.8560   YY=           -101.4947   ZZ=           -103.3996
   XY=            -31.9892   XZ=              1.0565   YZ=             -1.1899

 Normal termination of Gaussian 16 at Wed May  5 20:55:14 2021.
