 Gaussian 16, Revision A.03,
 Gaussian 16:  EM64L-G16RevA.03 25-Dec-2016

 -------------
 #p 6-31g* mp2
 -------------

 ------------------------------------------------------
 Input file generated by CHIRIPA (05-May-2021 14:53:16)
 ------------------------------------------------------
 Symbolic Z-matrix:
 Charge =  0 Multiplicity = 1

                         Standard orientation:
 ---------------------------------------------------------------------
 Center     Atomic      Atomic             Coordinates (Angstroms)
 Number     Number       Type             X           Y           Z
 ---------------------------------------------------------------------
      1          6           0        3.942332    0.590195   -0.020289
      2          6           0        3.335990    1.982679    0.156694
      3          6           0        4.338265    3.103503   -0.120784
      4          1           0        4.806421    0.485587    0.650049
      5          1           0        4.327883    0.493275   -1.044668
      6          1           0        2.950457    2.076456    1.180015
      7          1           0        2.473128    2.083916   -0.514005
      8          1           0        4.714937    3.038219   -1.146678
      9          1           0        5.194978    3.030717    0.556967
     10          1           0        3.883820    4.090321    0.011611
     11          6           0        2.952611   -0.540805    0.253607
     12          6           0        3.558953   -1.933289    0.076624
     13          6           0        2.556678   -3.054113    0.354102
     14          1           0        2.567060   -0.443885    1.277986
     15          1           0        2.088522   -0.436197   -0.416731
     16          1           0        4.421815   -2.034526    0.747323
     17          1           0        3.944486   -2.027066   -0.946697
     18          1           0        1.699965   -2.981326   -0.323649
     19          1           0        2.180006   -2.988829    1.379996
     20          1           0        3.011123   -4.040931    0.221707
     21          6           0       -3.949057    2.143820    0.240570
     22          6           0       -4.583278    0.921516    0.486041
     23          6           0       -3.897239   -0.283198    0.305589
     24          6           0       -2.571939   -0.228415   -0.123208
     25          6           0       -1.912552    0.973478   -0.376098
     26          6           0       -2.618064    2.165861   -0.188958
     27          1           0       -4.489552    3.074882    0.383348
     28          1           0       -5.616870    0.901363    0.819697
     29          1           0       -4.363970   -1.243513    0.488282
     30          1           0       -0.881437    0.961579   -0.707878
     31          1           0       -2.122977    3.113648   -0.380364
     32          7           0       -1.835352   -1.497265   -0.317785
     33          8           0       -0.668419   -1.421994   -0.696253
     34          8           0       -2.438896   -2.543035   -0.088141
 ---------------------------------------------------------------------

 SCF Done:  E(RHF) =  -669.536278599     A.U. after   15 cycles
 E2 =    -0.2092034144D+01 EUMP2 =    -0.67162831274291D+03

 The electronic state is 1-A.
 Alpha  occ. eigenvalues --  -20.61003 -20.60985 -15.86019 -11.31303 -11.27862
 Alpha  occ. eigenvalues --  -11.27858 -11.27595 -11.26863 -11.26851 -11.21459
 Alpha  occ. eigenvalues --  -11.20988 -11.20867 -11.20547 -11.20425 -11.19495
 Alpha  occ. eigenvalues --   -1.60048  -1.39607  -1.19468  -1.08880  -1.07772
 Alpha  occ. eigenvalues --   -1.04858  -1.02812  -0.95730  -0.95227  -0.86264
 Alpha  occ. eigenvalues --   -0.86239  -0.82570  -0.78973  -0.77688  -0.77409
 Alpha  occ. eigenvalues --   -0.72251  -0.71354  -0.70578  -0.65130  -0.64862
 Alpha  occ. eigenvalues --   -0.64405  -0.62206  -0.60207  -0.58711  -0.56824
 Alpha  occ. eigenvalues --   -0.55367  -0.54501  -0.53192  -0.52951  -0.51969
 Alpha  occ. eigenvalues --   -0.51642  -0.49327  -0.49000  -0.48826  -0.47222
 Alpha  occ. eigenvalues --   -0.46021  -0.45237  -0.44967  -0.44674  -0.43064
 Alpha  occ. eigenvalues --   -0.37446  -0.36457
 Alpha virt. eigenvalues --    0.04900   0.11196   0.16395   0.20630   0.23138
 Alpha virt. eigenvalues --    0.25131   0.25210   0.27463   0.27657   0.28835
 Alpha virt. eigenvalues --    0.29357   0.31225   0.32102   0.32181   0.32694

 Mulliken charges:
               1
     1  C   -0.297624
     2  C   -0.297741
     3  C   -0.474908
     4  H    0.148191
     5  H    0.148657
     6  H    0.150368
     7  H    0.143852
     8  H    0.155519
     9  H    0.156210
    10  H    0.156217
    11  C   -0.303863
    12  C   -0.298674
    13  C   -0.483497
    14  H    0.145443
    15  H    0.165067
    16  H    0.145752
    17  H    0.148688
    18  H    0.184285
    19  H    0.150148
    20  H    0.152666
    21  C   -0.170427
    22  C   -0.218708
    23  C   -0.170464
    24  C    0.157307
    25  C   -0.170872
    26  C   -0.218958
    27  H    0.226065
    28  H    0.223832
    29  H    0.275839
    30  H    0.277039
    31  H    0.224256
    32  N    0.493678
    33  O   -0.464974
    34  O   -0.458371
 Sum of Mulliken charges =  -0.00000

 Dipole moment (field-independent basis, Debye):
    X=             -2.9086    Y=              4.3661    Z=              0.6102  Tot=              5.2815
 Quadrupole moment (field-independent basis, Debye-Ang):
   XX=            -79.4361   YY=            -97.0772   ZZ=            -94.5415
   XY=             -9.1803   XZ=             -2.6910   YZ=             -1.1627

 Normal termination of Gaussian 16 at Thu May  6 04:19:00 2021.
