 Gaussian 16, Revision A.03,
 Gaussian 16:  EM64L-G16RevA.03 25-Dec-2016

 -------------
 #p 6-31g* mp2
 -------------

 ------------------------------------------------------
 Input file generated by CHIRIPA (05-May-2021 14:53:18)
 ------------------------------------------------------
 Symbolic Z-matrix:
 Charge =  0 Multiplicity = 1

                         Standard orientation:
 ---------------------------------------------------------------------
 Center     Atomic      Atomic             Coordinates (Angstroms)
 Number     Number       Type             X           Y           Z
 ---------------------------------------------------------------------
      1          6           0       -2.638976    0.003305   -0.696349
      2          6           0       -3.110625   -1.224591    0.083270
      3          6           0       -3.282435   -2.457991   -0.803859
      4          1           0       -3.360782    0.222087   -1.495146
      5          1           0       -1.685897   -0.229116   -1.191339
      6          1           0       -4.061838   -0.989472    0.577768
      7          1           0       -2.387712   -1.440360    0.880424
      8          1           0       -2.335427   -2.720302   -1.286530
      9          1           0       -4.019066   -2.266852   -1.590905
     10          1           0       -3.620131   -3.324101   -0.226213
     11          6           0       -2.462587    1.244344    0.176827
     12          6           0       -1.990938    2.472240   -0.602792
     13          6           0       -1.819129    3.705641    0.284337
     14          1           0       -3.415667    1.476765    0.671817
     15          1           0       -1.740782    1.025562    0.975624
     16          1           0       -2.713852    2.688009   -1.399946
     17          1           0       -1.039725    2.237121   -1.097290
     18          1           0       -1.082498    3.514501    1.071383
     19          1           0       -2.766136    3.967951    0.767008
     20          1           0       -1.481432    4.571751   -0.293309
     21          6           0        3.822039    0.945803   -0.779832
     22          6           0        3.220308    1.310474    0.429075
     23          6           0        2.205819    0.523931    0.982891
     24          6           0        1.815954   -0.625916    0.297949
     25          6           0        2.396143   -1.015749   -0.908161
     26          6           0        3.408764   -0.214099   -1.443421
     27          1           0        4.609392    1.562676   -1.202843
     28          1           0        3.539237    2.210734    0.946628
     29          1           0        1.722923    0.782862    1.917334
     30          1           0        2.056885   -1.918818   -1.400897
     31          1           0        3.874289   -0.499758   -2.382427
     32          7           0        0.742949   -1.466590    0.874427
     33          8           0        0.417488   -2.474841    0.251417
     34          8           0        0.247706   -1.101341    1.938365
 ---------------------------------------------------------------------

 SCF Done:  E(RHF) =  -669.537220148     A.U. after   15 cycles
 E2 =    -0.2094064858D+01 EUMP2 =    -0.67163128500559D+03

 The electronic state is 1-A.
 Alpha  occ. eigenvalues --  -20.61235 -20.61229 -15.86194 -11.31439 -11.27980
 Alpha  occ. eigenvalues --  -11.27974 -11.27692 -11.26960 -11.26951 -11.21203
 Alpha  occ. eigenvalues --  -11.20877 -11.20608 -11.20472 -11.20087 -11.19661
 Alpha  occ. eigenvalues --   -1.60250  -1.39810  -1.19586  -1.09008  -1.07597
 Alpha  occ. eigenvalues --   -1.04965  -1.02645  -0.95864  -0.95139  -0.86371
 Alpha  occ. eigenvalues --   -0.86173  -0.82702  -0.78776  -0.77770  -0.77313
 Alpha  occ. eigenvalues --   -0.72414  -0.71585  -0.70691  -0.65242  -0.64967
 Alpha  occ. eigenvalues --   -0.64203  -0.62313  -0.60028  -0.58589  -0.56713
 Alpha  occ. eigenvalues --   -0.55472  -0.54440  -0.53296  -0.53054  -0.51862
 Alpha  occ. eigenvalues --   -0.51567  -0.49271  -0.49192  -0.49064  -0.47062
 Alpha  occ. eigenvalues --   -0.45804  -0.45457  -0.44874  -0.44382  -0.42914
 Alpha  occ. eigenvalues --   -0.37548  -0.36557
 Alpha virt. eigenvalues --    0.04678   0.11064   0.16136   0.21107   0.23302
 Alpha virt. eigenvalues --    0.25133   0.26877   0.27229   0.27927   0.28729
 Alpha virt. eigenvalues --    0.28860   0.31009   0.31834   0.32360   0.32842

 Mulliken charges:
               1
     1  C   -0.298037
     2  C   -0.309142
     3  C   -0.474611
     4  H    0.145309
     5  H    0.142255
     6  H    0.144775
     7  H    0.179518
     8  H    0.162557
     9  H    0.144830
    10  H    0.159171
    11  C   -0.303915
    12  C   -0.298742
    13  C   -0.473821
    14  H    0.148570
    15  H    0.157959
    16  H    0.150787
    17  H    0.147418
    18  H    0.150503
    19  H    0.156394
    20  H    0.156500
    21  C   -0.170160
    22  C   -0.218340
    23  C   -0.171070
    24  C    0.159804
    25  C   -0.171019
    26  C   -0.218473
    27  H    0.226716
    28  H    0.224685
    29  H    0.276123
    30  H    0.276173
    31  H    0.224497
    32  N    0.488968
    33  O   -0.457725
    34  O   -0.458457
 Sum of Mulliken charges =  -0.00000

 Dipole moment (field-independent basis, Debye):
    X=              4.0856    Y=              2.7642    Z=             -1.8660  Tot=              5.2740
 Quadrupole moment (field-independent basis, Debye-Ang):
   XX=            -81.2647   YY=            -98.0793   ZZ=            -93.5904
   XY=              2.5547   XZ=             -3.4724   YZ=              4.3291

 Normal termination of Gaussian 16 at Thu May  6 10:45:39 2021.
