 Gaussian 16, Revision A.03,
 Gaussian 16:  EM64L-G16RevA.03 25-Dec-2016

 -------------
 #p 6-31g* mp2
 -------------

 ------------------------------------------------------
 Input file generated by CHIRIPA (05-May-2021 14:57:26)
 ------------------------------------------------------
 Symbolic Z-matrix:
 Charge =  0 Multiplicity = 1

                         Standard orientation:
 ---------------------------------------------------------------------
 Center     Atomic      Atomic             Coordinates (Angstroms)
 Number     Number       Type             X           Y           Z
 ---------------------------------------------------------------------
      1          6           0        6.416377   -1.189763    0.348328
      2          6           0        5.215402   -1.884465    0.526008
      3          6           0        3.988584   -1.243115    0.330725
      4          6           0        3.999754    0.099656   -0.043616
      5          6           0        5.179497    0.818921   -0.228430
      6          6           0        6.394630    0.157337   -0.027661
      7          1           0        7.364860   -1.695838    0.502160
      8          1           0        5.229254   -2.930699    0.817981
      9          1           0        3.043990   -1.757004    0.461407
     10          1           0        5.133686    1.861253   -0.519743
     11          1           0        7.325767    0.699360   -0.166369
     12          7           0        2.707162    0.789335   -0.253258
     13          8           0        2.744021    1.972829   -0.582834
     14          8           0        1.681645    0.133352   -0.084029
     15          6           0       -2.985980    2.206824    0.238052
     16          6           0       -2.323795    1.083862   -0.268889
     17          6           0       -2.993618   -0.136242   -0.400161
     18          6           0       -4.331392   -0.197982   -0.013073
     19          6           0       -5.018584    0.903137    0.495448
     20          6           0       -4.328893    2.113043    0.617932
     21          1           0       -2.457929    3.150669    0.336614
     22          1           0       -1.280890    1.153762   -0.564705
     23          1           0       -2.505190   -1.021234   -0.789579
     24          1           0       -6.058403    0.802567    0.781948
     25          1           0       -4.845693    2.983511    1.011948
     26          7           0       -5.051020   -1.484253   -0.147394
     27          8           0       -6.229434   -1.512566    0.200711
     28          8           0       -4.423025   -2.439764   -0.598234
 ---------------------------------------------------------------------

 SCF Done:  E(RHF) =  -868.340903519     A.U. after   16 cycles
 E2 =    -0.2598137316D+01 EUMP2 =    -0.87093904083450D+03

 The electronic state is 1-A.
 Alpha  occ. eigenvalues --  -20.61732 -20.61716 -20.59990 -20.59984 -15.86729
 Alpha  occ. eigenvalues --  -15.85030 -11.31781 -11.30171 -11.28315 -11.28299
 Alpha  occ. eigenvalues --  -11.27995 -11.27258 -11.27239 -11.26742 -11.26592
 Alpha  occ. eigenvalues --  -11.26326 -11.25744 -11.25393  -1.60779  -1.59069
 Alpha  occ. eigenvalues --   -1.40339  -1.38628  -1.19923  -1.18291  -1.09379
 Alpha  occ. eigenvalues --   -1.07724  -1.05276  -1.03630  -0.96266  -0.94607
 Alpha  occ. eigenvalues --   -0.86690  -0.85036  -0.83109  -0.81428  -0.78188
 Alpha  occ. eigenvalues --   -0.76510  -0.72969  -0.72067  -0.71256  -0.71026
 Alpha  occ. eigenvalues --   -0.70388  -0.69397  -0.65579  -0.65276  -0.63925
 Alpha  occ. eigenvalues --   -0.63579  -0.62625  -0.60958  -0.55791  -0.54137
 Alpha  occ. eigenvalues --   -0.53624  -0.53363  -0.52012  -0.51688  -0.49727
 Alpha  occ. eigenvalues --   -0.49698  -0.48023  -0.47985  -0.45808  -0.44084
 Alpha  occ. eigenvalues --   -0.37885  -0.36864  -0.36271  -0.35233
 Alpha virt. eigenvalues --    0.04326   0.05969   0.10795   0.12415   0.15887
 Alpha virt. eigenvalues --    0.17539   0.20968   0.22684   0.26907   0.27812
 Alpha virt. eigenvalues --    0.28722   0.29406   0.30569   0.31997   0.32360

 Mulliken charges:
               1
     1  C   -0.169650
     2  C   -0.218574
     3  C   -0.170333
     4  C    0.157435
     5  C   -0.170415
     6  C   -0.218624
     7  H    0.227925
     8  H    0.226186
     9  H    0.276669
    10  H    0.275678
    11  H    0.225136
    12  N    0.490032
    13  O   -0.460662
    14  O   -0.467182
    15  C   -0.173058
    16  C   -0.225344
    17  C   -0.174028
    18  C    0.157902
    19  C   -0.173771
    20  C   -0.218770
    21  H    0.226560
    22  H    0.249337
    23  H    0.274966
    24  H    0.271556
    25  H    0.219343
    26  N    0.488149
    27  O   -0.463797
    28  O   -0.462665
 Sum of Mulliken charges =  -0.00000

 Dipole moment (field-independent basis, Debye):
    X=              7.7327    Y=              2.1098    Z=              1.1863  Tot=              8.1027
 Quadrupole moment (field-independent basis, Debye-Ang):
   XX=            -86.9459   YY=           -103.3464   ZZ=           -105.6151
   XY=            -29.6314   XZ=             -1.4488   YZ=             -0.3438

 Normal termination of Gaussian 16 at Wed May  5 18:00:18 2021.
