 Gaussian 16, Revision A.03,
 Gaussian 16:  EM64L-G16RevA.03 25-Dec-2016

 -------------
 #p 6-31g* mp2
 -------------

 ------------------------------------------------------
 Input file generated by CHIRIPA (05-May-2021 14:53:13)
 ------------------------------------------------------
 Symbolic Z-matrix:
 Charge =  0 Multiplicity = 1

                         Standard orientation:
 ---------------------------------------------------------------------
 Center     Atomic      Atomic             Coordinates (Angstroms)
 Number     Number       Type             X           Y           Z
 ---------------------------------------------------------------------
      1          6           0       -3.454003   -0.461387    0.110831
      2          6           0       -3.022305   -1.916321   -0.075693
      3          6           0       -4.051832   -2.911741    0.460038
      4          1           0       -3.628648   -0.271425    1.178707
      5          1           0       -4.416074   -0.303810   -0.396105
      6          1           0       -2.060659   -2.070755    0.430274
      7          1           0       -2.848483   -2.102788   -1.143228
      8          1           0       -5.011410   -2.786569   -0.051961
      9          1           0       -4.219110   -2.754354    1.530481
     10          1           0       -3.723035   -3.945733    0.316464
     11          6           0       -2.435136    0.545624   -0.419798
     12          6           0       -2.866834    2.000557   -0.233274
     13          6           0       -1.837307    2.995977   -0.769004
     14          1           0       -1.473066    0.388046    0.087139
     15          1           0       -2.260491    0.355662   -1.487674
     16          1           0       -3.040656    2.187025    0.834261
     17          1           0       -3.828480    2.154992   -0.739240
     18          1           0       -1.670029    2.838590   -1.839447
     19          1           0       -0.877729    2.870806   -0.257005
     20          1           0       -2.166105    4.029969   -0.625431
     21          6           0        1.532679    2.210450    0.983140
     22          6           0        1.689647    1.137302    1.866449
     23          6           0        2.114499   -0.110174    1.399703
     24          6           0        2.374669   -0.249784    0.037312
     25          6           0        2.227692    0.800267   -0.867719
     26          6           0        1.801729    2.038810   -0.378724
     27          1           0        1.202213    3.176050    1.354362
     28          1           0        1.481429    1.267696    2.924602
     29          1           0        2.244321   -0.957869    2.061502
     30          1           0        2.442942    0.639684   -1.917146
     31          1           0        1.680698    2.870460   -1.067023
     32          7           0        2.825030   -1.565702   -0.468589
     33          8           0        3.047749   -1.662864   -1.673409
     34          8           0        2.946773   -2.475040    0.349287
 ---------------------------------------------------------------------

 SCF Done:  E(RHF) =  -669.534410974     A.U. after   15 cycles
 E2 =    -0.2093719897D+01 EUMP2 =    -0.67162813087138D+03

 The electronic state is 1-A.
 Alpha  occ. eigenvalues --  -20.60823 -20.60816 -15.85876 -11.31279 -11.27852
 Alpha  occ. eigenvalues --  -11.27812 -11.27578 -11.26884 -11.26833 -11.21982
 Alpha  occ. eigenvalues --  -11.21589 -11.21568 -11.21556 -11.21474 -11.21029
 Alpha  occ. eigenvalues --   -1.59896  -1.39449  -1.19457  -1.08862  -1.08600
 Alpha  occ. eigenvalues --   -1.04858  -1.03733  -0.96209  -0.95671  -0.87240
 Alpha  occ. eigenvalues --   -0.86250  -0.82499  -0.79814  -0.78392  -0.77536
 Alpha  occ. eigenvalues --   -0.72095  -0.71218  -0.70572  -0.65269  -0.65099
 Alpha  occ. eigenvalues --   -0.64856  -0.62203  -0.61151  -0.59577  -0.57798
 Alpha  occ. eigenvalues --   -0.55578  -0.55310  -0.53292  -0.52969  -0.52886
 Alpha  occ. eigenvalues --   -0.52563  -0.50159  -0.48856  -0.48847  -0.48108
 Alpha  occ. eigenvalues --   -0.46831  -0.45934  -0.45828  -0.44847  -0.43973
 Alpha  occ. eigenvalues --   -0.37352  -0.36422
 Alpha virt. eigenvalues --    0.04956   0.11125   0.16387   0.21011   0.22753
 Alpha virt. eigenvalues --    0.24262   0.26410   0.26608   0.27350   0.27781
 Alpha virt. eigenvalues --    0.28744   0.30618   0.31392   0.31839   0.31925

 Mulliken charges:
               1
     1  C   -0.298312
     2  C   -0.300017
     3  C   -0.475943
     4  H    0.147700
     5  H    0.149538
     6  H    0.153196
     7  H    0.154137
     8  H    0.154720
     9  H    0.153818
    10  H    0.162982
    11  C   -0.301152
    12  C   -0.297798
    13  C   -0.483106
    14  H    0.153093
    15  H    0.150385
    16  H    0.149470
    17  H    0.153433
    18  H    0.154512
    19  H    0.155499
    20  H    0.157777
    21  C   -0.173465
    22  C   -0.219343
    23  C   -0.172034
    24  C    0.159091
    25  C   -0.171331
    26  C   -0.214863
    27  H    0.227499
    28  H    0.224009
    29  H    0.275932
    30  H    0.276069
    31  H    0.226643
    32  N    0.488112
    33  O   -0.459918
    34  O   -0.460330
 Sum of Mulliken charges =  -0.00000

 Dipole moment (field-independent basis, Debye):
    X=             -1.5049    Y=              4.5399    Z=              1.7663  Tot=              5.0986
 Quadrupole moment (field-independent basis, Debye-Ang):
   XX=           -103.4331   YY=            -97.8785   ZZ=            -89.6516
   XY=             11.4003   XZ=              4.6318   YZ=             -1.8519

 Normal termination of Gaussian 16 at Thu May  6 08:56:40 2021.
