 Gaussian 16, Revision A.03,
 Gaussian 16:  EM64L-G16RevA.03 25-Dec-2016

 -------------
 #p 6-31g* mp2
 -------------

 ------------------------------------------------------
 Input file generated by CHIRIPA (05-May-2021 14:55:21)
 ------------------------------------------------------
 Symbolic Z-matrix:
 Charge =  0 Multiplicity = 1

                         Standard orientation:
 ---------------------------------------------------------------------
 Center     Atomic      Atomic             Coordinates (Angstroms)
 Number     Number       Type             X           Y           Z
 ---------------------------------------------------------------------
      1          6           0        1.623181   -2.344295   -0.689102
      2          6           0        3.017823   -2.312108   -0.586837
      3          6           0        3.675743   -1.134842   -0.218416
      4          6           0        2.904377   -0.003200    0.041717
      5          6           0        1.513481   -0.003608   -0.051542
      6          6           0        0.876777   -1.191974   -0.421600
      7          1           0        1.120334   -3.263135   -0.975936
      8          1           0        3.600053   -3.205495   -0.793992
      9          1           0        4.754211   -1.081988   -0.131631
     10          1           0        0.960086    0.902990    0.161184
     11          1           0       -0.206448   -1.214043   -0.500223
     12          7           0        3.589657    1.248995    0.432614
     13          8           0        2.887287    2.232444    0.656537
     14          8           0        4.816174    1.223305    0.507674
     15          6           0       -3.965005   -0.287167    0.377341
     16          6           0       -3.402852   -1.684149    0.111995
     17          6           0       -4.197696   -2.784658    0.815484
     18          1           0       -3.972118   -0.101296    1.460091
     19          1           0       -5.012509   -0.252275    0.047324
     20          1           0       -2.356303   -1.715987    0.441145
     21          1           0       -3.396899   -1.866641   -0.970260
     22          1           0       -5.239800   -2.781734    0.479910
     23          1           0       -4.193293   -2.630223    1.899334
     24          1           0       -3.778601   -3.775062    0.612213
     25          6           0       -3.181068    0.823682   -0.319210
     26          6           0       -3.743222    2.220664   -0.053863
     27          6           0       -2.948376    3.321173   -0.757352
     28          1           0       -2.133563    0.788790    0.010808
     29          1           0       -3.173956    0.637812   -1.401959
     30          1           0       -3.749174    2.403157    1.028392
     31          1           0       -4.789769    2.252502   -0.383013
     32          1           0       -2.952780    3.166738   -1.841202
     33          1           0       -1.906272    3.318250   -0.421778
     34          1           0       -3.367472    4.311577   -0.554080
 ---------------------------------------------------------------------

 SCF Done:  E(RHF) =  -669.535588559     A.U. after   15 cycles
 E2 =    -0.2091808658D+01 EUMP2 =    -0.67162739721627D+03

 The electronic state is 1-A.
 Alpha  occ. eigenvalues --  -20.60728 -20.60723 -15.85780 -11.31131 -11.27699
 Alpha  occ. eigenvalues --  -11.27689 -11.27427 -11.26713 -11.26640 -11.22619
 Alpha  occ. eigenvalues --  -11.22224 -11.22142 -11.22080 -11.21864 -11.21375
 Alpha  occ. eigenvalues --   -1.59803  -1.39358  -1.19297  -1.09197  -1.08694
 Alpha  occ. eigenvalues --   -1.04697  -1.04209  -0.96626  -0.95534  -0.87644
 Alpha  occ. eigenvalues --   -0.86098  -0.82370  -0.80311  -0.79036  -0.77408
 Alpha  occ. eigenvalues --   -0.71999  -0.71126  -0.70410  -0.65850  -0.64947
 Alpha  occ. eigenvalues --   -0.64693  -0.62058  -0.61586  -0.60022  -0.58251
 Alpha  occ. eigenvalues --   -0.55895  -0.55201  -0.53325  -0.53060  -0.53024
 Alpha  occ. eigenvalues --   -0.52788  -0.50567  -0.48778  -0.48756  -0.48576
 Alpha  occ. eigenvalues --   -0.47333  -0.46522  -0.46453  -0.44766  -0.44480
 Alpha  occ. eigenvalues --   -0.37278  -0.36298
 Alpha virt. eigenvalues --    0.05114   0.11309   0.16587   0.19118   0.22701
 Alpha virt. eigenvalues --    0.23085   0.24559   0.25968   0.27073   0.27691
 Alpha virt. eigenvalues --    0.29516   0.30895   0.31092   0.31310   0.31976

 Mulliken charges:
               1
     1  C   -0.172691
     2  C   -0.218477
     3  C   -0.171152
     4  C    0.159265
     5  C   -0.174460
     6  C   -0.227783
     7  H    0.225717
     8  H    0.223118
     9  H    0.275348
    10  H    0.275535
    11  H    0.236698
    12  N    0.488116
    13  O   -0.460787
    14  O   -0.460613
    15  C   -0.298139
    16  C   -0.306494
    17  C   -0.475082
    18  H    0.153262
    19  H    0.153544
    20  H    0.146750
    21  H    0.151533
    22  H    0.158724
    23  H    0.158560
    24  H    0.159456
    25  C   -0.300742
    26  C   -0.300513
    27  C   -0.476950
    28  H    0.141944
    29  H    0.150597
    30  H    0.154816
    31  H    0.153948
    32  H    0.155427
    33  H    0.157606
    34  H    0.163918
 Sum of Mulliken charges =  -0.00000

 Dipole moment (field-independent basis, Debye):
    X=             -2.6611    Y=             -4.3406    Z=             -1.3541  Tot=              5.2684
 Quadrupole moment (field-independent basis, Debye-Ang):
   XX=           -103.8574   YY=            -94.5601   ZZ=            -95.2040
   XY=            -15.8023   XZ=             -3.9383   YZ=              0.4586

 Normal termination of Gaussian 16 at Wed May  5 20:37:33 2021.
