 Gaussian 16, Revision A.03,
 Gaussian 16:  EM64L-G16RevA.03 25-Dec-2016

 -------------
 #p 6-31g* mp2
 -------------

 ------------------------------------------------------
 Input file generated by CHIRIPA (05-May-2021 14:53:15)
 ------------------------------------------------------
 Symbolic Z-matrix:
 Charge =  0 Multiplicity = 1

                         Standard orientation:
 ---------------------------------------------------------------------
 Center     Atomic      Atomic             Coordinates (Angstroms)
 Number     Number       Type             X           Y           Z
 ---------------------------------------------------------------------
      1          6           0        1.848508    1.213177   -0.262772
      2          6           0        2.128308    2.706863   -0.431888
      3          6           0        0.868646    3.511539   -0.753668
      4          1           0        1.389496    0.826135   -1.182800
      5          1           0        1.108960    1.074127    0.537932
      6          1           0        2.868142    2.842965   -1.231098
      7          1           0        2.586883    3.090353    0.488580
      8          1           0        0.128860    3.405376    0.046361
      9          1           0        0.411717    3.156582   -1.683088
     10          1           0        1.091588    4.576679   -0.870433
     11          6           0        3.098032    0.395417    0.059232
     12          6           0        2.818233   -1.098269    0.228347
     13          6           0        4.077894   -1.902945    0.550127
     14          1           0        3.837581    0.534467   -0.741473
     15          1           0        3.557044    0.782459    0.979260
     16          1           0        2.359658   -1.481759   -0.692120
     17          1           0        2.078399   -1.234371    1.027558
     18          1           0        4.534824   -1.547988    1.479547
     19          1           0        4.817681   -1.796782   -0.249902
     20          1           0        3.854952   -2.968085    0.666892
     21          6           0       -3.113148    1.451561    0.882832
     22          6           0       -2.203083    0.796239    1.718809
     23          6           0       -1.542989   -0.356988    1.284191
     24          6           0       -1.818077   -0.829436    0.001846
     25          6           0       -2.719404   -0.198894   -0.854493
     26          6           0       -3.367955    0.952782   -0.398891
     27          1           0       -3.621441    2.346813    1.228604
     28          1           0       -2.003234    1.181331    2.714705
     29          1           0       -0.833689   -0.884055    1.910698
     30          1           0       -2.897946   -0.606647   -1.842055
     31          1           0       -4.074224    1.459645   -1.050289
     32          7           0       -1.125375   -2.049484   -0.469372
     33          8           0       -1.385185   -2.445555   -1.603508
     34          8           0       -0.335743   -2.586586    0.304346
 ---------------------------------------------------------------------

 SCF Done:  E(RHF) =  -669.535582861     A.U. after   15 cycles
 E2 =    -0.2094188374D+01 EUMP2 =    -0.67162977123525D+03

 The electronic state is 1-A.
 Alpha  occ. eigenvalues --  -20.60892 -20.60851 -15.85897 -11.31255 -11.27840
 Alpha  occ. eigenvalues --  -11.27822 -11.27578 -11.26861 -11.26831 -11.21537
 Alpha  occ. eigenvalues --  -11.21155 -11.21148 -11.20898 -11.20662 -11.20291
 Alpha  occ. eigenvalues --   -1.59933  -1.39489  -1.19434  -1.08828  -1.08064
 Alpha  occ. eigenvalues --   -1.04842  -1.03106  -0.95668  -0.95611  -0.86635
 Alpha  occ. eigenvalues --   -0.86237  -0.82509  -0.79212  -0.77878  -0.77491
 Alpha  occ. eigenvalues --   -0.72129  -0.71233  -0.70546  -0.65094  -0.64864
 Alpha  occ. eigenvalues --   -0.64696  -0.62191  -0.60515  -0.59000  -0.57177
 Alpha  occ. eigenvalues --   -0.55341  -0.54933  -0.53180  -0.52935  -0.52296
 Alpha  occ. eigenvalues --   -0.52027  -0.49595  -0.48909  -0.48888  -0.47519
 Alpha  occ. eigenvalues --   -0.46260  -0.45614  -0.45247  -0.44536  -0.43370
 Alpha  occ. eigenvalues --   -0.37387  -0.36395
 Alpha virt. eigenvalues --    0.04940   0.11153   0.16415   0.21020   0.23091
 Alpha virt. eigenvalues --    0.24499   0.25972   0.27195   0.27650   0.28230
 Alpha virt. eigenvalues --    0.28818   0.30467   0.31483   0.31932   0.32529

 Mulliken charges:
               1
     1  C   -0.300433
     2  C   -0.298806
     3  C   -0.475118
     4  H    0.149563
     5  H    0.146277
     6  H    0.153007
     7  H    0.150037
     8  H    0.151121
     9  H    0.154975
    10  H    0.158464
    11  C   -0.298892
    12  C   -0.299491
    13  C   -0.476763
    14  H    0.148363
    15  H    0.145155
    16  H    0.160505
    17  H    0.156299
    18  H    0.149424
    19  H    0.152151
    20  H    0.166243
    21  C   -0.170015
    22  C   -0.219587
    23  C   -0.170573
    24  C    0.161762
    25  C   -0.171072
    26  C   -0.217680
    27  H    0.226242
    28  H    0.223809
    29  H    0.276037
    30  H    0.275704
    31  H    0.223938
    32  N    0.488002
    33  O   -0.460582
    34  O   -0.458065
 Sum of Mulliken charges =  -0.00000

 Dipole moment (field-independent basis, Debye):
    X=             -2.5939    Y=              4.0967    Z=              1.6213  Tot=              5.1127
 Quadrupole moment (field-independent basis, Debye-Ang):
   XX=            -86.2792   YY=           -103.2310   ZZ=            -90.1695
   XY=             -5.9178   XZ=             -1.1536   YZ=             -1.3408

 Normal termination of Gaussian 16 at Wed May  5 23:30:46 2021.
