 Gaussian 16, Revision A.03,
 Gaussian 16:  EM64L-G16RevA.03 25-Dec-2016

 -------------
 #p 6-31g* mp2
 -------------

 ------------------------------------------------------
 Input file generated by CHIRIPA (05-May-2021 14:51:08)
 ------------------------------------------------------
 Symbolic Z-matrix:
 Charge =  0 Multiplicity = 1

                         Standard orientation:
 ---------------------------------------------------------------------
 Center     Atomic      Atomic             Coordinates (Angstroms)
 Number     Number       Type             X           Y           Z
 ---------------------------------------------------------------------
      1          6           0       -3.072471    1.327208   -0.260876
      2          6           0       -1.775488    1.792245    0.402116
      3          6           0       -1.289838    3.140706   -0.130417
      4          1           0       -2.918303    1.260296   -1.346556
      5          1           0       -3.850246    2.086927   -0.101853
      6          1           0       -1.000769    1.031237    0.243074
      7          1           0       -1.932705    1.857873    1.486363
      8          1           0       -2.042518    3.916768    0.042213
      9          1           0       -1.105286    3.085435   -1.208140
     10          1           0       -0.361427    3.454091    0.357132
     11          6           0       -3.570643   -0.019342    0.261000
     12          6           0       -4.867627   -0.484379   -0.401992
     13          6           0       -5.353277   -1.832840    0.130541
     14          1           0       -2.792868   -0.779061    0.101977
     15          1           0       -3.724811    0.047570    1.346680
     16          1           0       -4.710409   -0.550008   -1.486239
     17          1           0       -5.642346    0.276628   -0.242950
     18          1           0       -5.537828   -1.777570    1.208264
     19          1           0       -4.600597   -2.608903   -0.042089
     20          1           0       -6.281687   -2.146225   -0.357008
     21          6           0        2.855652   -1.237690   -0.160038
     22          6           0        1.409441   -0.995639    0.273402
     23          6           0        0.489532   -2.172398   -0.053400
     24          1           0        2.879798   -1.434755   -1.240559
     25          1           0        3.231411   -2.145625    0.331749
     26          1           0        1.036974   -0.087660   -0.217981
     27          1           0        1.388757   -0.798938    1.352983
     28          1           0        0.834230   -3.081952    0.449090
     29          1           0        0.480448   -2.366632   -1.130800
     30          1           0       -0.539416   -1.978089    0.264987
     31          6           0        3.787462   -0.070176    0.159914
     32          6           0        5.233673   -0.312226   -0.273526
     33          6           0        6.153582    0.864532    0.053276
     34          1           0        3.411703    0.837760   -0.331873
     35          1           0        3.763317    0.126889    1.240436
     36          1           0        5.254357   -0.508927   -1.353108
     37          1           0        5.606140   -1.220206    0.217858
     38          1           0        6.162668    1.058766    1.130677
     39          1           0        5.808886    1.774086   -0.449214
     40          1           0        7.182531    0.670223   -0.265111
 ---------------------------------------------------------------------

 SCF Done:  E(RHF) =  -470.732981575     A.U. after   11 cycles
 E2 =    -0.1583610045D+01 EUMP2 =    -0.47231659161975D+03

 The electronic state is 1-A.
 Alpha  occ. eigenvalues --  -11.21639 -11.21616 -11.21592 -11.21526 -11.21430
 Alpha  occ. eigenvalues --  -11.21390 -11.21370 -11.21329 -11.21128 -11.21081
 Alpha  occ. eigenvalues --  -11.21059 -11.21057  -1.08469  -1.08405  -1.03577
 Alpha  occ. eigenvalues --   -1.03498  -0.96016  -0.95963  -0.87036  -0.86974
 Alpha  occ. eigenvalues --   -0.79709  -0.79503  -0.78326  -0.78179  -0.65166
 Alpha  occ. eigenvalues --   -0.64996  -0.61065  -0.60821  -0.59422  -0.59295
 Alpha  occ. eigenvalues --   -0.57632  -0.57574  -0.55299  -0.55261  -0.52748
 Alpha  occ. eigenvalues --   -0.52641  -0.52453  -0.52361  -0.49991  -0.49885
 Alpha  occ. eigenvalues --   -0.48114  -0.47766  -0.46846  -0.46460  -0.45905
 Alpha  occ. eigenvalues --   -0.45773  -0.45741  -0.45433  -0.43799  -0.43761
 Alpha virt. eigenvalues --    0.20733   0.23086   0.23830   0.24040   0.25922
 Alpha virt. eigenvalues --    0.26616   0.27085   0.27176   0.28376   0.29067
 Alpha virt. eigenvalues --    0.30394   0.31462   0.31642   0.31883   0.32298

 Mulliken charges:
               1
     1  C   -0.297193
     2  C   -0.309627
     3  C   -0.475564
     4  H    0.149158
     5  H    0.149457
     6  H    0.162599
     7  H    0.151607
     8  H    0.155286
     9  H    0.154381
    10  H    0.160292
    11  C   -0.305109
    12  C   -0.299209
    13  C   -0.475848
    14  H    0.155339
    15  H    0.149577
    16  H    0.151958
    17  H    0.152008
    18  H    0.155114
    19  H    0.155306
    20  H    0.160267
    21  C   -0.297676
    22  C   -0.303386
    23  C   -0.482933
    24  H    0.149544
    25  H    0.149658
    26  H    0.155087
    27  H    0.152773
    28  H    0.156038
    29  H    0.154966
    30  H    0.165813
    31  C   -0.298437
    32  C   -0.299661
    33  C   -0.475742
    34  H    0.149687
    35  H    0.149765
    36  H    0.151944
    37  H    0.151972
    38  H    0.155211
    39  H    0.155268
    40  H    0.160308
 Sum of Mulliken charges =  -0.00000

 Dipole moment (field-independent basis, Debye):
    X=              0.0248    Y=             -0.0140    Z=              0.0095  Tot=              0.0300
 Quadrupole moment (field-independent basis, Debye-Ang):
   XX=            -85.3497   YY=            -85.9545   ZZ=            -83.5149
   XY=             -1.3823   XZ=             -0.1924   YZ=              0.1035

 Normal termination of Gaussian 16 at Thu May  6 16:31:59 2021.
