 Gaussian 16, Revision A.03,
 Gaussian 16:  EM64L-G16RevA.03 25-Dec-2016

 -------------
 #p 6-31g* mp2
 -------------

 ------------------------------------------------------
 Input file generated by CHIRIPA (05-May-2021 14:57:21)
 ------------------------------------------------------
 Symbolic Z-matrix:
 Charge =  0 Multiplicity = 1

                         Standard orientation:
 ---------------------------------------------------------------------
 Center     Atomic      Atomic             Coordinates (Angstroms)
 Number     Number       Type             X           Y           Z
 ---------------------------------------------------------------------
      1          6           0       -1.743826    2.604648   -0.736648
      2          6           0       -1.986608    1.550018   -1.622838
      3          6           0       -2.249926    0.264235   -1.141202
      4          6           0       -2.262813    0.067851    0.238855
      5          6           0       -2.024741    1.098151    1.147202
      6          6           0       -1.763632    2.375752    0.643112
      7          1           0       -1.540132    3.600297   -1.119516
      8          1           0       -1.971859    1.724852   -2.694874
      9          1           0       -2.441248   -0.570272   -1.804838
     10          1           0       -2.046116    0.893003    2.210628
     11          1           0       -1.575438    3.192900    1.333689
     12          7           0       -2.540407   -1.289018    0.760627
     13          8           0       -2.546128   -1.435974    1.980877
     14          8           0       -2.747008   -2.179885   -0.060537
     15          6           0        3.190454    1.900251    0.631199
     16          6           0        3.786513    0.693494    1.011951
     17          6           0        3.255754   -0.526844    0.583444
     18          6           0        2.122959   -0.503369   -0.228661
     19          6           0        1.506357    0.682392   -0.624975
     20          6           0        2.054281    1.890865   -0.184612
     21          1           0        3.609427    2.843630    0.968678
     22          1           0        4.668953    0.697748    1.645454
     23          1           0        3.697144   -1.475687    0.863244
     24          1           0        0.627475    0.646160   -1.257171
     25          1           0        1.589271    2.826517   -0.481878
     26          7           0        1.551982   -1.789005   -0.688578
     27          8           0        0.553331   -1.741313   -1.403462
     28          8           0        2.113913   -2.820035   -0.325469
 ---------------------------------------------------------------------

 SCF Done:  E(RHF) =  -868.335797236     A.U. after   16 cycles
 E2 =    -0.2606016658D+01 EUMP2 =    -0.87094181389331D+03

 The electronic state is 1-A.
 Alpha  occ. eigenvalues --  -20.60694 -20.60663 -20.60430 -20.60331 -15.85726
 Alpha  occ. eigenvalues --  -15.85444 -11.31212 -11.31120 -11.27926 -11.27814
 Alpha  occ. eigenvalues --  -11.27769 -11.27728 -11.27615 -11.27548 -11.27033
 Alpha  occ. eigenvalues --  -11.26944 -11.26795 -11.26764  -1.59741  -1.59442
 Alpha  occ. eigenvalues --   -1.39302  -1.38980  -1.19526  -1.19316  -1.08834
 Alpha  occ. eigenvalues --   -1.08735  -1.04950  -1.04740  -0.95592  -0.95533
 Alpha  occ. eigenvalues --   -0.86318  -0.86148  -0.82396  -0.82383  -0.77462
 Alpha  occ. eigenvalues --   -0.77299  -0.71974  -0.71667  -0.71150  -0.70684
 Alpha  occ. eigenvalues --   -0.70608  -0.70462  -0.65126  -0.65001  -0.64923
 Alpha  occ. eigenvalues --   -0.64786  -0.62236  -0.62171  -0.55490  -0.55345
 Alpha  occ. eigenvalues --   -0.53601  -0.53008  -0.52996  -0.52460  -0.48711
 Alpha  occ. eigenvalues --   -0.48691  -0.48466  -0.48379  -0.44780  -0.44199
 Alpha  occ. eigenvalues --   -0.37648  -0.37286  -0.36748  -0.36080
 Alpha virt. eigenvalues --    0.05011   0.05237   0.10943   0.11413   0.16381
 Alpha virt. eigenvalues --    0.16631   0.20641   0.21876   0.26673   0.27115
 Alpha virt. eigenvalues --    0.28470   0.28698   0.30642   0.31399   0.32569

 Mulliken charges:
               1
     1  C   -0.178085
     2  C   -0.237841
     3  C   -0.158891
     4  C    0.159677
     5  C   -0.169388
     6  C   -0.217660
     7  H    0.222411
     8  H    0.226074
     9  H    0.287259
    10  H    0.276907
    11  H    0.221431
    12  N    0.488150
    13  O   -0.464319
    14  O   -0.447000
    15  C   -0.171715
    16  C   -0.219491
    17  C   -0.169069
    18  C    0.154666
    19  C   -0.171392
    20  C   -0.221802
    21  H    0.223120
    22  H    0.223281
    23  H    0.276850
    24  H    0.283444
    25  H    0.214483
    26  N    0.488975
    27  O   -0.464590
    28  O   -0.455487
 Sum of Mulliken charges =  -0.00000

 Dipole moment (field-independent basis, Debye):
    X=              2.7461    Y=              8.8105    Z=             -0.2470  Tot=              9.2319
 Quadrupole moment (field-independent basis, Debye-Ang):
   XX=            -98.8954   YY=           -108.3636   ZZ=           -101.6032
   XY=             -3.7526   XZ=             10.3411   YZ=             -0.1068

 Normal termination of Gaussian 16 at Thu May  6 16:12:01 2021.
