 Gaussian 16, Revision A.03,
 Gaussian 16:  EM64L-G16RevA.03 25-Dec-2016

 -------------
 #p 6-31g* mp2
 -------------

 ------------------------------------------------------
 Input file generated by CHIRIPA (05-May-2021 14:51:09)
 ------------------------------------------------------
 Symbolic Z-matrix:
 Charge =  0 Multiplicity = 1

                         Standard orientation:
 ---------------------------------------------------------------------
 Center     Atomic      Atomic             Coordinates (Angstroms)
 Number     Number       Type             X           Y           Z
 ---------------------------------------------------------------------
      1          6           0       -2.708419    0.242786    0.020180
      2          6           0       -4.062852    0.102248   -0.675339
      3          6           0       -4.611056   -1.323976   -0.619200
      4          1           0       -1.990734   -0.446037   -0.446076
      5          1           0       -2.807898   -0.071797    1.068291
      6          1           0       -3.961169    0.418313   -1.721465
      7          1           0       -4.777346    0.791624   -0.207498
      8          1           0       -4.740972   -1.646166    0.419028
      9          1           0       -3.920158   -2.021597   -1.103541
     10          1           0       -5.579908   -1.401769   -1.122324
     11          6           0       -2.147362    1.662880   -0.027519
     12          6           0       -0.792930    1.803419    0.668000
     13          6           0       -0.244726    3.229643    0.611861
     14          1           0       -2.047884    1.977463   -1.075630
     15          1           0       -2.865048    2.351704    0.438738
     16          1           0       -0.078436    1.114043    0.200159
     17          1           0       -0.894613    1.487353    1.714126
     18          1           0       -0.935624    3.927263    1.096202
     19          1           0       -0.114809    3.551832   -0.426367
     20          1           0        0.724126    3.307436    1.114986
     21          6           0        2.853388   -0.583892   -0.512341
     22          6           0        4.037477    0.164057    0.101244
     23          6           0        4.879209    0.897186   -0.943650
     24          1           0        3.226737   -1.302704   -1.254546
     25          1           0        2.221261    0.129711   -1.058768
     26          1           0        4.666436   -0.550518    0.647510
     27          1           0        3.661278    0.881036    0.842211
     28          1           0        4.271241    1.631553   -1.481869
     29          1           0        5.282109    0.191865   -1.677675
     30          1           0        5.720193    1.425064   -0.483266
     31          6           0        2.002394   -1.321773    0.519680
     32          6           0        0.818304   -2.069723   -0.093905
     33          6           0       -0.023428   -2.802853    0.950988
     34          1           0        2.634520   -2.035378    1.066107
     35          1           0        1.629044   -0.602963    1.261884
     36          1           0        1.194503   -2.786703   -0.834873
     37          1           0        0.189346   -1.355148   -0.640172
     38          1           0       -0.426327   -2.097531    1.685014
     39          1           0        0.584541   -3.537219    1.489208
     40          1           0       -0.864411   -3.330729    0.490605
 ---------------------------------------------------------------------

 SCF Done:  E(RHF) =  -470.732645688     A.U. after   11 cycles
 E2 =    -0.1585131239D+01 EUMP2 =    -0.47231777692659D+03

 The electronic state is 1-A.
 Alpha  occ. eigenvalues --  -11.21671 -11.21617 -11.21607 -11.21578 -11.21441
 Alpha  occ. eigenvalues --  -11.21404 -11.21364 -11.21326 -11.21149 -11.21080
 Alpha  occ. eigenvalues --  -11.21073 -11.21020  -1.08520  -1.08389  -1.03577
 Alpha  occ. eigenvalues --   -1.03521  -0.96041  -0.95948  -0.87047  -0.86972
 Alpha  occ. eigenvalues --   -0.79652  -0.79586  -0.78335  -0.78218  -0.65415
 Alpha  occ. eigenvalues --   -0.64808  -0.60980  -0.60924  -0.59408  -0.59317
 Alpha  occ. eigenvalues --   -0.57652  -0.57575  -0.55395  -0.55165  -0.52718
 Alpha  occ. eigenvalues --   -0.52657  -0.52450  -0.52381  -0.49967  -0.49922
 Alpha  occ. eigenvalues --   -0.47973  -0.47911  -0.46759  -0.46662  -0.46115
 Alpha  occ. eigenvalues --   -0.45875  -0.45612  -0.45227  -0.43826  -0.43770
 Alpha virt. eigenvalues --    0.19848   0.22325   0.23840   0.24600   0.25180
 Alpha virt. eigenvalues --    0.26333   0.26787   0.27609   0.28222   0.29994
 Alpha virt. eigenvalues --    0.30960   0.31256   0.31853   0.32022   0.32412

 Mulliken charges:
               1
     1  C   -0.306414
     2  C   -0.299252
     3  C   -0.475759
     4  H    0.158337
     5  H    0.149863
     6  H    0.151746
     7  H    0.151955
     8  H    0.155526
     9  H    0.155068
    10  H    0.160297
    11  C   -0.297779
    12  C   -0.308748
    13  C   -0.475500
    14  H    0.149140
    15  H    0.149946
    16  H    0.160737
    17  H    0.151577
    18  H    0.155768
    19  H    0.155174
    20  H    0.159986
    21  C   -0.300173
    22  C   -0.299501
    23  C   -0.475784
    24  H    0.149831
    25  H    0.149776
    26  H    0.152057
    27  H    0.151958
    28  H    0.155301
    29  H    0.155119
    30  H    0.160303
    31  C   -0.301098
    32  C   -0.305739
    33  C   -0.476067
    34  H    0.150150
    35  H    0.152837
    36  H    0.151926
    37  H    0.155418
    38  H    0.157177
    39  H    0.154798
    40  H    0.160042
 Sum of Mulliken charges =  -0.00000

 Dipole moment (field-independent basis, Debye):
    X=             -0.0151    Y=              0.0026    Z=              0.0110  Tot=              0.0189
 Quadrupole moment (field-independent basis, Debye-Ang):
   XX=            -84.9964   YY=            -85.3883   ZZ=            -84.3930
   XY=             -1.4997   XZ=             -0.0625   YZ=              0.6025

 Normal termination of Gaussian 16 at Wed May  5 22:57:45 2021.
