 Gaussian 16, Revision A.03,
 Gaussian 16:  EM64L-G16RevA.03 25-Dec-2016

 -------------
 #p 6-31g* mp2
 -------------

 ------------------------------------------------------
 Input file generated by CHIRIPA (05-May-2021 14:51:07)
 ------------------------------------------------------
 Symbolic Z-matrix:
 Charge =  0 Multiplicity = 1

                         Standard orientation:
 ---------------------------------------------------------------------
 Center     Atomic      Atomic             Coordinates (Angstroms)
 Number     Number       Type             X           Y           Z
 ---------------------------------------------------------------------
      1          6           0       -4.069072    0.843421   -0.273887
      2          6           0       -2.852787    1.621100    0.229950
      3          6           0       -2.852068    3.079591   -0.228957
      4          1           0       -4.093308    0.883960   -1.371482
      5          1           0       -4.984237    1.339795    0.077511
      6          1           0       -1.940168    1.122622   -0.121138
      7          1           0       -2.831338    1.578543    1.326465
      8          1           0       -3.745561    3.597998    0.133707
      9          1           0       -2.849328    3.139487   -1.322120
     10          1           0       -1.973874    3.616890    0.142453
     11          6           0       -4.084012   -0.616217    0.176626
     12          6           0       -5.300297   -1.393896   -0.327211
     13          6           0       -5.301016   -2.852388    0.131695
     14          1           0       -3.168847   -1.112592   -0.174773
     15          1           0       -4.059776   -0.656757    1.274221
     16          1           0       -5.321746   -1.351339   -1.423726
     17          1           0       -6.212916   -0.895419    0.023876
     18          1           0       -5.303756   -2.912284    1.224859
     19          1           0       -4.407523   -3.370795   -0.230969
     20          1           0       -6.179210   -3.389686   -0.239715
     21          6           0        3.376048   -0.057410   -0.250674
     22          6           0        2.317718    0.382597    0.761411
     23          6           0        0.921497    0.490423    0.147622
     24          1           0        3.395089    0.656476   -1.085508
     25          1           0        3.085511   -1.028031   -0.675970
     26          1           0        2.610866    1.351446    1.185690
     27          1           0        2.301327   -0.332313    1.594027
     28          1           0        0.604043   -0.475021   -0.259492
     29          1           0        0.915341    1.218305   -0.670150
     30          1           0        0.180524    0.806336    0.888579
     31          6           0        4.777036   -0.169793    0.347935
     32          6           0        5.835366   -0.609801   -0.664150
     33          6           0        7.231587   -0.717626   -0.050360
     34          1           0        5.067573    0.800827    0.773232
     35          1           0        4.757995   -0.883679    1.182770
     36          1           0        5.851757    0.105110   -1.496766
     37          1           0        5.542217   -1.578650   -1.088428
     38          1           0        7.237744   -1.445509    0.767411
     39          1           0        7.549041    0.247818    0.356754
     40          1           0        7.972560   -1.033539   -0.791317
 ---------------------------------------------------------------------

 SCF Done:  E(RHF) =  -470.732869860     A.U. after   11 cycles
 E2 =    -0.1582721203D+01 EUMP2 =    -0.47231559106289D+03

 The electronic state is 1-A.
 Alpha  occ. eigenvalues --  -11.21608 -11.21606 -11.21567 -11.21453 -11.21412
 Alpha  occ. eigenvalues --  -11.21353 -11.21346 -11.21281 -11.21076 -11.21067
 Alpha  occ. eigenvalues --  -11.21049 -11.21005  -1.08440  -1.08367  -1.03555
 Alpha  occ. eigenvalues --   -1.03457  -0.96006  -0.95915  -0.87040  -0.86925
 Alpha  occ. eigenvalues --   -0.79703  -0.79457  -0.78267  -0.78161  -0.65068
 Alpha  occ. eigenvalues --   -0.65003  -0.60945  -0.60880  -0.59495  -0.59176
 Alpha  occ. eigenvalues --   -0.57643  -0.57489  -0.55291  -0.55204  -0.52771
 Alpha  occ. eigenvalues --   -0.52588  -0.52419  -0.52336  -0.49936  -0.49860
 Alpha  occ. eigenvalues --   -0.47943  -0.47822  -0.46643  -0.46561  -0.45827
 Alpha  occ. eigenvalues --   -0.45727  -0.45715  -0.45625  -0.43775  -0.43640
 Alpha virt. eigenvalues --    0.22304   0.22980   0.23721   0.24746   0.26041
 Alpha virt. eigenvalues --    0.26650   0.26853   0.27508   0.27946   0.29010
 Alpha virt. eigenvalues --    0.30635   0.30939   0.31434   0.31790   0.32140

 Mulliken charges:
               1
     1  C   -0.297483
     2  C   -0.309182
     3  C   -0.475430
     4  H    0.149287
     5  H    0.148921
     6  H    0.165639
     7  H    0.149975
     8  H    0.154749
     9  H    0.154765
    10  H    0.159863
    11  C   -0.298344
    12  C   -0.299572
    13  C   -0.475638
    14  H    0.149545
    15  H    0.149316
    16  H    0.151865
    17  H    0.151874
    18  H    0.155077
    19  H    0.155011
    20  H    0.160128
    21  C   -0.298517
    22  C   -0.300417
    23  C   -0.479267
    24  H    0.149575
    25  H    0.149372
    26  H    0.151977
    27  H    0.152068
    28  H    0.154355
    29  H    0.155001
    30  H    0.165408
    31  C   -0.298300
    32  C   -0.299606
    33  C   -0.475704
    34  H    0.149541
    35  H    0.149675
    36  H    0.151926
    37  H    0.151893
    38  H    0.155194
    39  H    0.155198
    40  H    0.160263
 Sum of Mulliken charges =  -0.00000

 Dipole moment (field-independent basis, Debye):
    X=              0.0307    Y=             -0.0044    Z=              0.0002  Tot=              0.0310
 Quadrupole moment (field-independent basis, Debye-Ang):
   XX=            -85.9006   YY=            -85.0098   ZZ=            -84.1790
   XY=              0.0742   XZ=             -0.7383   YZ=              0.2880

 Normal termination of Gaussian 16 at Thu May  6 08:25:05 2021.
