 Gaussian 16, Revision A.03,
 Gaussian 16:  EM64L-G16RevA.03 25-Dec-2016

 -------------
 #p 6-31g* mp2
 -------------

 ------------------------------------------------------
 Input file generated by CHIRIPA (05-May-2021 14:55:25)
 ------------------------------------------------------
 Symbolic Z-matrix:
 Charge =  0 Multiplicity = 1

                         Standard orientation:
 ---------------------------------------------------------------------
 Center     Atomic      Atomic             Coordinates (Angstroms)
 Number     Number       Type             X           Y           Z
 ---------------------------------------------------------------------
      1          6           0       -5.003032    1.160849   -0.139212
      2          6           0       -4.574250    0.344863   -1.191274
      3          6           0       -3.364061   -0.349594   -1.103405
      4          6           0       -2.604267   -0.204429    0.056306
      5          6           0       -3.004411    0.600924    1.121473
      6          6           0       -4.218128    1.286054    1.011774
      7          1           0       -5.944507    1.696698   -0.215949
      8          1           0       -5.181761    0.245739   -2.086343
      9          1           0       -3.008232   -0.988038   -1.902900
     10          1           0       -2.377153    0.679836    2.001097
     11          1           0       -4.548623    1.919054    1.830389
     12          7           0       -1.321226   -0.934683    0.160884
     13          8           0       -0.670134   -0.789992    1.193250
     14          8           0       -0.990967   -1.637919   -0.791495
     15          6           0        3.811813   -0.625886   -0.097717
     16          6           0        2.681078   -1.599241    0.236952
     17          6           0        3.112016   -3.062837    0.137081
     18          1           0        4.177398   -0.833519   -1.112695
     19          1           0        4.655923   -0.807733    0.581847
     20          1           0        1.838824   -1.414685   -0.442137
     21          1           0        2.318015   -1.389141    1.251180
     22          1           0        3.936914   -3.269455    0.826611
     23          1           0        3.455002   -3.295144   -0.876327
     24          1           0        2.288425   -3.741337    0.380384
     25          6           0        3.396449    0.841117   -0.002303
     26          6           0        4.527184    1.814472   -0.336972
     27          6           0        4.096246    3.278068   -0.237101
     28          1           0        2.552339    1.022964   -0.681867
     29          1           0        3.030864    1.048750    1.012675
     30          1           0        4.890248    1.604372   -1.351200
     31          1           0        5.369438    1.629917    0.342118
     32          1           0        3.753261    3.510375    0.776307
     33          1           0        3.271348    3.484686   -0.926631
     34          1           0        4.919838    3.956568   -0.480403
 ---------------------------------------------------------------------

 SCF Done:  E(RHF) =  -669.536219487     A.U. after   15 cycles
 E2 =    -0.2092171987D+01 EUMP2 =    -0.67162839147350D+03

 The electronic state is 1-A.
 Alpha  occ. eigenvalues --  -20.61053 -20.61048 -15.86057 -11.31357 -11.27912
 Alpha  occ. eigenvalues --  -11.27908 -11.27643 -11.26910 -11.26900 -11.20757
 Alpha  occ. eigenvalues --  -11.20448 -11.20239 -11.19935 -11.19433 -11.19365
 Alpha  occ. eigenvalues --   -1.60092  -1.39649  -1.19518  -1.08928  -1.07126
 Alpha  occ. eigenvalues --   -1.04908  -1.02179  -0.95773  -0.94726  -0.86310
 Alpha  occ. eigenvalues --   -0.85761  -0.82610  -0.78312  -0.77667  -0.76782
 Alpha  occ. eigenvalues --   -0.72269  -0.71400  -0.70626  -0.65173  -0.64911
 Alpha  occ. eigenvalues --   -0.63778  -0.62255  -0.59587  -0.58152  -0.56275
 Alpha  occ. eigenvalues --   -0.55407  -0.54057  -0.53242  -0.52999  -0.51452
 Alpha  occ. eigenvalues --   -0.51134  -0.49142  -0.49049  -0.48710  -0.46537
 Alpha  occ. eigenvalues --   -0.45376  -0.45075  -0.44273  -0.44133  -0.42449
 Alpha  occ. eigenvalues --   -0.37493  -0.36507
 Alpha virt. eigenvalues --    0.04844   0.11149   0.16351   0.21287   0.24014
 Alpha virt. eigenvalues --    0.25648   0.27208   0.27897   0.28137   0.28892
 Alpha virt. eigenvalues --    0.29185   0.30867   0.32355   0.32656   0.32937

 Mulliken charges:
               1
     1  C   -0.170442
     2  C   -0.218581
     3  C   -0.170718
     4  C    0.159601
     5  C   -0.170686
     6  C   -0.218574
     7  H    0.226239
     8  H    0.224026
     9  H    0.275854
    10  H    0.275924
    11  H    0.224079
    12  N    0.488076
    13  O   -0.457186
    14  O   -0.459736
    15  C   -0.298927
    16  C   -0.303047
    17  C   -0.475170
    18  H    0.144035
    19  H    0.143121
    20  H    0.171462
    21  H    0.159842
    22  H    0.146182
    23  H    0.148303
    24  H    0.163661
    25  C   -0.295601
    26  C   -0.298467
    27  C   -0.474586
    28  H    0.147612
    29  H    0.150211
    30  H    0.149927
    31  H    0.150097
    32  H    0.153533
    33  H    0.152837
    34  H    0.157099
 Sum of Mulliken charges =  -0.00000

 Dipole moment (field-independent basis, Debye):
    X=             -4.9985    Y=              2.5216    Z=             -0.3107  Tot=              5.6071
 Quadrupole moment (field-independent basis, Debye-Ang):
   XX=            -73.3019   YY=            -97.6600   ZZ=            -89.8225
   XY=             -5.4570   XZ=              1.9369   YZ=              2.3392

 Normal termination of Gaussian 16 at Thu May  6 12:44:22 2021.
