 Gaussian 16, Revision A.03,
 Gaussian 16:  EM64L-G16RevA.03 25-Dec-2016

 -------------
 #p 6-31g* mp2
 -------------

 ------------------------------------------------------
 Input file generated by CHIRIPA (05-May-2021 14:57:25)
 ------------------------------------------------------
 Symbolic Z-matrix:
 Charge =  0 Multiplicity = 1

                         Standard orientation:
 ---------------------------------------------------------------------
 Center     Atomic      Atomic             Coordinates (Angstroms)
 Number     Number       Type             X           Y           Z
 ---------------------------------------------------------------------
      1          6           0       -2.171830    2.420501    0.671108
      2          6           0       -1.378762    1.745657   -0.262782
      3          6           0       -1.784405    0.511206   -0.778660
      4          6           0       -2.994338   -0.021677   -0.336630
      5          6           0       -3.806541    0.626371    0.592697
      6          6           0       -3.381057    1.859693    1.095119
      7          1           0       -1.849010    3.379014    1.066627
      8          1           0       -0.439184    2.178796   -0.593886
      9          1           0       -1.189895   -0.032691   -1.502643
     10          1           0       -4.738140    0.169390    0.903679
     11          1           0       -3.999003    2.381537    1.820286
     12          7           0       -3.434277   -1.327938   -0.875644
     13          8           0       -4.504466   -1.776126   -0.470108
     14          8           0       -2.700582   -1.878862   -1.693453
     15          6           0        1.654272   -1.466339    2.019623
     16          6           0        2.676339   -2.096014    1.301705
     17          6           0        3.385317   -1.400554    0.317717
     18          6           0        3.044373   -0.070568    0.076500
     19          6           0        2.031237    0.584484    0.774892
     20          6           0        1.335544   -0.130455    1.754393
     21          1           0        1.108680   -2.014155    2.782267
     22          1           0        2.926030   -3.133388    1.505555
     23          1           0        4.181134   -1.863594   -0.252973
     24          1           0        1.805127    1.619554    0.549232
     25          1           0        0.542272    0.361121    2.310377
     26          7           0        3.787905    0.675996   -0.962829
     27          8           0        3.468288    1.846900   -1.156386
     28          8           0        4.676221    0.076111   -1.564217
 ---------------------------------------------------------------------

 SCF Done:  E(RHF) =  -868.337730088     A.U. after   16 cycles
 E2 =    -0.2601121757D+01 EUMP2 =    -0.87093885184564D+03

 The electronic state is 1-A.
 Alpha  occ. eigenvalues --  -20.61248 -20.61207 -20.61152 -20.61143 -15.86278
 Alpha  occ. eigenvalues --  -15.86206 -11.31640 -11.31596 -11.28227 -11.28208
 Alpha  occ. eigenvalues --  -11.28189 -11.28066 -11.27998 -11.27781 -11.27259
 Alpha  occ. eigenvalues --  -11.27226 -11.27128 -11.27067  -1.60303  -1.60227
 Alpha  occ. eigenvalues --   -1.39862  -1.39776  -1.19840  -1.19730  -1.09223
 Alpha  occ. eigenvalues --   -1.09123  -1.05273  -1.05089  -0.96034  -0.95980
 Alpha  occ. eigenvalues --   -0.86646  -0.86511  -0.82882  -0.82784  -0.77966
 Alpha  occ. eigenvalues --   -0.77812  -0.72494  -0.72419  -0.71628  -0.71556
 Alpha  occ. eigenvalues --   -0.70927  -0.70835  -0.65476  -0.65404  -0.65302
 Alpha  occ. eigenvalues --   -0.65032  -0.62696  -0.62343  -0.55748  -0.55584
 Alpha  occ. eigenvalues --   -0.53744  -0.53440  -0.53267  -0.53085  -0.49267
 Alpha  occ. eigenvalues --   -0.49236  -0.49186  -0.49169  -0.45277  -0.45165
 Alpha  occ. eigenvalues --   -0.37869  -0.37686  -0.37256  -0.36262
 Alpha virt. eigenvalues --    0.04437   0.04817   0.10611   0.10983   0.15856
 Alpha virt. eigenvalues --    0.16415   0.19926   0.21734   0.25333   0.27354
 Alpha virt. eigenvalues --    0.27880   0.28714   0.29823   0.31251   0.31744

 Mulliken charges:
               1
     1  C   -0.176503
     2  C   -0.226778
     3  C   -0.168151
     4  C    0.156851
     5  C   -0.171879
     6  C   -0.219570
     7  H    0.227028
     8  H    0.230385
     9  H    0.279925
    10  H    0.276455
    11  H    0.224563
    12  N    0.487729
    13  O   -0.460350
    14  O   -0.458252
    15  C   -0.170628
    16  C   -0.216497
    17  C   -0.170537
    18  C    0.158659
    19  C   -0.177409
    20  C   -0.214734
    21  H    0.228507
    22  H    0.226714
    23  H    0.277358
    24  H    0.266710
    25  H    0.224384
    26  N    0.488387
    27  O   -0.465950
    28  O   -0.456417
 Sum of Mulliken charges =  -0.00000

 Dipole moment (field-independent basis, Debye):
    X=             -1.0683    Y=              1.7474    Z=              5.5472  Tot=              5.9133
 Quadrupole moment (field-independent basis, Debye-Ang):
   XX=           -125.5850   YY=           -102.0718   ZZ=           -104.8512
   XY=            -25.0780   XZ=              1.5908   YZ=             -1.2281

 Normal termination of Gaussian 16 at Fri May  7 06:35:58 2021.
