 Gaussian 16, Revision A.03,
 Gaussian 16:  EM64L-G16RevA.03 25-Dec-2016

 -------------
 #p 6-31g* mp2
 -------------

 ------------------------------------------------------
 Input file generated by CHIRIPA (05-May-2021 14:55:21)
 ------------------------------------------------------
 Symbolic Z-matrix:
 Charge =  0 Multiplicity = 1

                         Standard orientation:
 ---------------------------------------------------------------------
 Center     Atomic      Atomic             Coordinates (Angstroms)
 Number     Number       Type             X           Y           Z
 ---------------------------------------------------------------------
      1          6           0       -1.539238    2.080723   -0.581643
      2          6           0       -2.926781    2.183960   -0.438165
      3          6           0       -3.698174    1.051326   -0.161327
      4          6           0       -3.046286   -0.174264   -0.033804
      5          6           0       -1.665656   -0.309441   -0.171192
      6          6           0       -0.914205    0.836546   -0.447934
      7          1           0       -0.947747    2.965767   -0.796660
      8          1           0       -3.414886    3.148909   -0.541478
      9          1           0       -4.773964    1.102731   -0.045343
     10          1           0       -1.207500   -1.285008   -0.062655
     11          1           0        0.163212    0.753381   -0.558846
     12          7           0       -3.852370   -1.380401    0.259221
     13          8           0       -3.254069   -2.448615    0.366883
     14          8           0       -5.067215   -1.234718    0.375684
     15          6           0        3.375731    0.523483    0.493174
     16          6           0        3.665370    1.922954   -0.050494
     17          6           0        2.951160    3.022321    0.736329
     18          1           0        2.291740    0.346066    0.472397
     19          1           0        3.679853    0.477312    1.548055
     20          1           0        3.362069    1.966054   -1.104423
     21          1           0        4.748813    2.096987   -0.028599
     22          1           0        3.261213    3.008118    1.786218
     23          1           0        1.866590    2.876442    0.704281
     24          1           0        3.172150    4.014541    0.330714
     25          6           0        4.082661   -0.586260   -0.283002
     26          6           0        3.793022   -1.985731    0.260665
     27          6           0        4.507231   -3.085098   -0.526157
     28          1           0        3.778539   -0.540090   -1.337883
     29          1           0        5.166651   -0.408843   -0.262226
     30          1           0        2.709578   -2.159764    0.238770
     31          1           0        4.096322   -2.028831    1.314595
     32          1           0        5.591802   -2.939219   -0.494109
     33          1           0        4.197178   -3.070895   -1.576046
     34          1           0        4.286242   -4.077317   -0.120543
 ---------------------------------------------------------------------

 SCF Done:  E(RHF) =  -669.535461406     A.U. after   15 cycles
 E2 =    -0.2091659843D+01 EUMP2 =    -0.67162712124837D+03

 The electronic state is 1-A.
 Alpha  occ. eigenvalues --  -20.60764 -20.60759 -15.85818 -11.31192 -11.27764
 Alpha  occ. eigenvalues --  -11.27761 -11.27505 -11.26774 -11.26758 -11.22543
 Alpha  occ. eigenvalues --  -11.22328 -11.22180 -11.22086 -11.22064 -11.21477
 Alpha  occ. eigenvalues --   -1.59839  -1.39393  -1.19365  -1.09242  -1.08757
 Alpha  occ. eigenvalues --   -1.04771  -1.04278  -0.96729  -0.95591  -0.87741
 Alpha  occ. eigenvalues --   -0.86171  -0.82426  -0.80349  -0.79033  -0.77471
 Alpha  occ. eigenvalues --   -0.72036  -0.71162  -0.70472  -0.65973  -0.65018
 Alpha  occ. eigenvalues --   -0.64734  -0.62149  -0.61643  -0.60100  -0.58322
 Alpha  occ. eigenvalues --   -0.56054  -0.55258  -0.53397  -0.53156  -0.53094
 Alpha  occ. eigenvalues --   -0.52863  -0.50678  -0.48805  -0.48791  -0.48642
 Alpha  occ. eigenvalues --   -0.47398  -0.46557  -0.46481  -0.44796  -0.44542
 Alpha  occ. eigenvalues --   -0.37342  -0.36369
 Alpha virt. eigenvalues --    0.05059   0.11204   0.16518   0.18369   0.22778
 Alpha virt. eigenvalues --    0.23536   0.25029   0.26124   0.26513   0.28233
 Alpha virt. eigenvalues --    0.29620   0.30642   0.30986   0.31354   0.31481

 Mulliken charges:
               1
     1  C   -0.173209
     2  C   -0.218460
     3  C   -0.170870
     4  C    0.158686
     5  C   -0.172772
     6  C   -0.224951
     7  H    0.227129
     8  H    0.223580
     9  H    0.275692
    10  H    0.275351
    11  H    0.232860
    12  N    0.488122
    13  O   -0.460387
    14  O   -0.460433
    15  C   -0.302692
    16  C   -0.301372
    17  C   -0.476758
    18  H    0.142435
    19  H    0.155211
    20  H    0.149232
    21  H    0.157171
    22  H    0.160675
    23  H    0.147229
    24  H    0.162375
    25  C   -0.299139
    26  C   -0.299168
    27  C   -0.476318
    28  H    0.148555
    29  H    0.153023
    30  H    0.148834
    31  H    0.154627
    32  H    0.156250
    33  H    0.155706
    34  H    0.163787
 Sum of Mulliken charges =  -0.00000

 Dipole moment (field-independent basis, Debye):
    X=              3.0434    Y=              4.2163    Z=             -0.9837  Tot=              5.2921
 Quadrupole moment (field-independent basis, Debye-Ang):
   XX=           -107.2217   YY=            -95.6379   ZZ=            -95.3519
   XY=            -15.8550   XZ=              3.9980   YZ=             -0.2883

 Normal termination of Gaussian 16 at Thu May  6 17:31:33 2021.
