 Gaussian 16, Revision A.03,
 Gaussian 16:  EM64L-G16RevA.03 25-Dec-2016

 -------------
 #p 6-31g* mp2
 -------------

 ------------------------------------------------------
 Input file generated by CHIRIPA (05-May-2021 14:55:21)
 ------------------------------------------------------
 Symbolic Z-matrix:
 Charge =  0 Multiplicity = 1

                         Standard orientation:
 ---------------------------------------------------------------------
 Center     Atomic      Atomic             Coordinates (Angstroms)
 Number     Number       Type             X           Y           Z
 ---------------------------------------------------------------------
      1          6           0        0.968600    0.380020    2.176916
      2          6           0        1.790451    1.341140    1.579143
      3          6           0        2.667534    0.984660    0.550457
      4          6           0        2.697030   -0.348007    0.142513
      5          6           0        1.890733   -1.328632    0.718317
      6          6           0        1.021272   -0.949455    1.745356
      7          1           0        0.290222    0.665758    2.975384
      8          1           0        1.751671    2.374374    1.912261
      9          1           0        3.314841    1.708399    0.070235
     10          1           0        1.951788   -2.350739    0.364779
     11          1           0        0.384172   -1.698003    2.207766
     12          7           0        3.621524   -0.737411   -0.945640
     13          8           0        3.628601   -1.918139   -1.286913
     14          8           0        4.321560    0.145476   -1.436656
     15          6           0       -3.546467   -0.298744   -0.164113
     16          6           0       -5.046890   -0.439514   -0.422766
     17          6           0       -5.611015   -1.769205    0.078711
     18          1           0       -3.017470   -1.129812   -0.650357
     19          1           0       -3.356639   -0.395422    0.913855
     20          1           0       -5.233985   -0.341219   -1.499775
     21          1           0       -5.572357    0.392092    0.063989
     22          1           0       -5.453446   -1.872288    1.157205
     23          1           0       -5.113152   -2.609766   -0.415445
     24          1           0       -6.685013   -1.848768   -0.116373
     25          6           0       -2.967868    1.025346   -0.659832
     26          6           0       -1.467446    1.166116   -0.401178
     27          6           0       -0.903320    2.495806   -0.902655
     28          1           0       -3.157696    1.122023   -1.737799
     29          1           0       -3.496864    1.856414   -0.173588
     30          1           0       -0.941977    0.334510   -0.887933
     31          1           0       -1.280349    1.067821    0.675832
     32          1           0       -1.401183    3.336367   -0.408499
     33          1           0       -1.060888    2.598889   -1.981149
     34          1           0        0.170678    2.575369   -0.707570
 ---------------------------------------------------------------------

 SCF Done:  E(RHF) =  -669.533894046     A.U. after   15 cycles
 E2 =    -0.2094528943D+01 EUMP2 =    -0.67162842298913D+03

 The electronic state is 1-A.
 Alpha  occ. eigenvalues --  -20.60806 -20.60801 -15.85861 -11.31246 -11.27823
 Alpha  occ. eigenvalues --  -11.27810 -11.27543 -11.26823 -11.26804 -11.21939
 Alpha  occ. eigenvalues --  -11.21794 -11.21781 -11.21652 -11.21412 -11.21298
 Alpha  occ. eigenvalues --   -1.59882  -1.39435  -1.19428  -1.08859  -1.08719
 Alpha  occ. eigenvalues --   -1.04832  -1.03825  -0.96292  -0.95654  -0.87309
 Alpha  occ. eigenvalues --   -0.86225  -0.82484  -0.79897  -0.78582  -0.77519
 Alpha  occ. eigenvalues --   -0.72079  -0.71206  -0.70550  -0.65398  -0.65079
 Alpha  occ. eigenvalues --   -0.64825  -0.62176  -0.61241  -0.59717  -0.57971
 Alpha  occ. eigenvalues --   -0.55594  -0.55342  -0.53332  -0.52922  -0.52784
 Alpha  occ. eigenvalues --   -0.52631  -0.50240  -0.48839  -0.48832  -0.48215
 Alpha  occ. eigenvalues --   -0.46952  -0.46114  -0.46063  -0.44837  -0.44104
 Alpha  occ. eigenvalues --   -0.37263  -0.36375
 Alpha virt. eigenvalues --    0.04965   0.11179   0.16361   0.20831   0.22734
 Alpha virt. eigenvalues --    0.24091   0.26130   0.26616   0.27142   0.28041
 Alpha virt. eigenvalues --    0.28493   0.30648   0.31165   0.31598   0.32084

 Mulliken charges:
               1
     1  C   -0.171950
     2  C   -0.214506
     3  C   -0.172179
     4  C    0.159207
     5  C   -0.171769
     6  C   -0.214333
     7  H    0.225742
     8  H    0.224485
     9  H    0.276065
    10  H    0.275798
    11  H    0.224022
    12  N    0.488035
    13  O   -0.460407
    14  O   -0.460246
    15  C   -0.297067
    16  C   -0.299673
    17  C   -0.475797
    18  H    0.150416
    19  H    0.142993
    20  H    0.154059
    21  H    0.151836
    22  H    0.153053
    23  H    0.155789
    24  H    0.161702
    25  C   -0.298374
    26  C   -0.297444
    27  C   -0.478819
    28  H    0.151522
    29  H    0.147909
    30  H    0.154781
    31  H    0.146592
    32  H    0.150983
    33  H    0.158169
    34  H    0.159408
 Sum of Mulliken charges =  -0.00000

 Dipole moment (field-independent basis, Debye):
    X=             -3.2034    Y=              1.3202    Z=              3.8301  Tot=              5.1647
 Quadrupole moment (field-independent basis, Debye-Ang):
   XX=           -112.9144   YY=            -92.1630   ZZ=            -93.5104
   XY=              6.1386   XZ=             10.0024   YZ=             -0.7847

 Normal termination of Gaussian 16 at Thu May  6 06:11:51 2021.
