 Gaussian 16, Revision A.03,
 Gaussian 16:  EM64L-G16RevA.03 25-Dec-2016

 -------------
 #p 6-31g* mp2
 -------------

 ------------------------------------------------------
 Input file generated by CHIRIPA (05-May-2021 14:55:24)
 ------------------------------------------------------
 Symbolic Z-matrix:
 Charge =  0 Multiplicity = 1

                         Standard orientation:
 ---------------------------------------------------------------------
 Center     Atomic      Atomic             Coordinates (Angstroms)
 Number     Number       Type             X           Y           Z
 ---------------------------------------------------------------------
      1          6           0       -0.530265    0.200455   -0.101894
      2          6           0       -1.111778   -1.064441    0.033755
      3          6           0       -2.501974   -1.205761    0.077694
      4          6           0       -3.284078   -0.055716   -0.017168
      5          6           0       -2.734559    1.218203   -0.153000
      6          6           0       -1.342080    1.335739   -0.194675
      7          1           0        0.550559    0.300998   -0.135147
      8          1           0       -0.483783   -1.947869    0.106034
      9          1           0       -2.978506   -2.172939    0.182108
     10          1           0       -3.386623    2.080394   -0.222691
     11          1           0       -0.893231    2.319338   -0.300085
     12          7           0       -4.757025   -0.192735    0.028149
     13          8           0       -5.424068    0.836035   -0.057417
     14          8           0       -5.216587   -1.326307    0.148378
     15          6           0        3.776551   -0.650367    0.331463
     16          6           0        4.378456   -1.781335   -0.503165
     17          6           0        4.137431   -3.161184    0.109792
     18          1           0        4.202859   -0.683156    1.343457
     19          1           0        2.696527   -0.820105    0.441609
     20          1           0        5.456791   -1.608778   -0.612868
     21          1           0        3.950809   -1.745733   -1.513347
     22          1           0        3.064743   -3.358797    0.204089
     23          1           0        4.579282   -3.221065    1.109684
     24          1           0        4.576032   -3.954877   -0.503021
     25          6           0        4.009224    0.735188   -0.268393
     26          6           0        3.407320    1.866157    0.566237
     27          6           0        3.648345    3.246006   -0.046721
     28          1           0        5.089248    0.904926   -0.378537
     29          1           0        3.582916    0.767978   -1.280386
     30          1           0        3.834967    1.830554    1.576419
     31          1           0        2.328985    1.693600    0.675940
     32          1           0        3.206494    3.305886   -1.046612
     33          1           0        4.721033    3.443619   -0.141017
     34          1           0        3.209744    4.039699    0.566093
 ---------------------------------------------------------------------

 SCF Done:  E(RHF) =  -669.535106424     A.U. after   15 cycles
 E2 =    -0.2092104035D+01 EUMP2 =    -0.67162721045952D+03

 The electronic state is 1-A.
 Alpha  occ. eigenvalues --  -20.60742 -20.60737 -15.85796 -11.31161 -11.27732
 Alpha  occ. eigenvalues --  -11.27728 -11.27434 -11.26746 -11.26735 -11.22831
 Alpha  occ. eigenvalues --  -11.22635 -11.22570 -11.22521 -11.22096 -11.21976
 Alpha  occ. eigenvalues --   -1.59817  -1.39371  -1.19333  -1.09590  -1.08726
 Alpha  occ. eigenvalues --   -1.04738  -1.04600  -0.97036  -0.95566  -0.88046
 Alpha  occ. eigenvalues --   -0.86134  -0.82403  -0.80664  -0.79403  -0.77443
 Alpha  occ. eigenvalues --   -0.72013  -0.71141  -0.70503  -0.66235  -0.64986
 Alpha  occ. eigenvalues --   -0.64728  -0.62115  -0.61984  -0.60397  -0.58642
 Alpha  occ. eigenvalues --   -0.56355  -0.55242  -0.53689  -0.53445  -0.53065
 Alpha  occ. eigenvalues --   -0.52829  -0.50989  -0.48969  -0.48773  -0.48768
 Alpha  occ. eigenvalues --   -0.47721  -0.46900  -0.46849  -0.44871  -0.44776
 Alpha  occ. eigenvalues --   -0.37307  -0.36343
 Alpha virt. eigenvalues --    0.05081   0.11299   0.16527   0.18158   0.22239
 Alpha virt. eigenvalues --    0.23150   0.25135   0.26188   0.26399   0.26865
 Alpha virt. eigenvalues --    0.29889   0.30456   0.30787   0.31024   0.32051

 Mulliken charges:
               1
     1  C   -0.179383
     2  C   -0.221038
     3  C   -0.170635
     4  C    0.158191
     5  C   -0.170599
     6  C   -0.221238
     7  H    0.239116
     8  H    0.222962
     9  H    0.275544
    10  H    0.275529
    11  H    0.223693
    12  N    0.487997
    13  O   -0.460478
    14  O   -0.460470
    15  C   -0.300675
    16  C   -0.300702
    17  C   -0.475100
    18  H    0.155210
    19  H    0.139069
    20  H    0.156186
    21  H    0.152613
    22  H    0.150266
    23  H    0.158091
    24  H    0.164384
    25  C   -0.300969
    26  C   -0.303274
    27  C   -0.476674
    28  H    0.155621
    29  H    0.149049
    30  H    0.158000
    31  H    0.142453
    32  H    0.154505
    33  H    0.160041
    34  H    0.162717
 Sum of Mulliken charges =  -0.00000

 Dipole moment (field-independent basis, Debye):
    X=              5.5074    Y=              0.4988    Z=             -0.1483  Tot=              5.5319
 Quadrupole moment (field-independent basis, Debye-Ang):
   XX=           -127.1142   YY=            -90.5830   ZZ=            -95.3896
   XY=             -2.4261   XZ=              1.0646   YZ=             -0.1276

 Normal termination of Gaussian 16 at Wed May  5 17:35:37 2021.
