 Gaussian 16, Revision A.03,
 Gaussian 16:  EM64L-G16RevA.03 25-Dec-2016

 -------------
 #p 6-31g* mp2
 -------------

 ------------------------------------------------------
 Input file generated by CHIRIPA (05-May-2021 14:57:21)
 ------------------------------------------------------
 Symbolic Z-matrix:
 Charge =  0 Multiplicity = 1

                         Standard orientation:
 ---------------------------------------------------------------------
 Center     Atomic      Atomic             Coordinates (Angstroms)
 Number     Number       Type             X           Y           Z
 ---------------------------------------------------------------------
      1          6           0        2.420513    2.306666    0.510735
      2          6           0        3.789274    2.263620    0.795628
      3          6           0        4.539045    1.119595    0.506498
      4          6           0        3.884925    0.031904   -0.069995
      5          6           0        2.522679    0.044188   -0.365673
      6          6           0        1.792692    1.198766   -0.067986
      7          1           0        1.845757    3.199471    0.738662
      8          1           0        4.279494    3.122537    1.245061
      9          1           0        5.600003    1.059267    0.716613
     10          1           0        2.061881   -0.827750   -0.813788
     11          1           0        0.729832    1.229365   -0.290332
     12          7           0        4.668202   -1.184810   -0.380614
     13          8           0        4.068384   -2.129789   -0.888423
     14          8           0        5.867122   -1.170453   -0.110386
     15          6           0       -4.721297    2.022298   -0.572796
     16          6           0       -5.572010    0.955280   -0.265746
     17          6           0       -5.048144   -0.298407    0.063466
     18          6           0       -3.662494   -0.450412    0.075995
     19          6           0       -2.788833    0.593278   -0.225202
     20          6           0       -3.334867    1.838216   -0.551581
     21          1           0       -5.136858    2.992794   -0.827435
     22          1           0       -6.649128    1.095336   -0.281426
     23          1           0       -5.683732   -1.141581    0.305341
     24          1           0       -1.719316    0.423061   -0.201183
     25          1           0       -2.671780    2.665082   -0.789602
     26          7           0       -3.096166   -1.773004    0.423017
     27          8           0       -1.871854   -1.881083    0.426974
     28          8           0       -3.887314   -2.676528    0.684486
 ---------------------------------------------------------------------

 SCF Done:  E(RHF) =  -868.336504385     A.U. after   16 cycles
 E2 =    -0.2599716490D+01 EUMP2 =    -0.87093622087502D+03

 The electronic state is 1-A.
 Alpha  occ. eigenvalues --  -20.61290 -20.61272 -20.60565 -20.60544 -15.86342
 Alpha  occ. eigenvalues --  -15.85617 -11.31824 -11.31094 -11.28518 -11.28336
 Alpha  occ. eigenvalues --  -11.28120 -11.27718 -11.27676 -11.27567 -11.27491
 Alpha  occ. eigenvalues --  -11.27364 -11.26866 -11.26759  -1.60352  -1.59632
 Alpha  occ. eigenvalues --   -1.39906  -1.39180  -1.19995  -1.19313  -1.09356
 Alpha  occ. eigenvalues --   -1.08705  -1.05431  -1.04741  -0.96181  -0.95504
 Alpha  occ. eigenvalues --   -0.86817  -0.86151  -0.83023  -0.82340  -0.78070
 Alpha  occ. eigenvalues --   -0.77346  -0.72556  -0.71835  -0.71675  -0.71110
 Alpha  occ. eigenvalues --   -0.70956  -0.70443  -0.65652  -0.65456  -0.64978
 Alpha  occ. eigenvalues --   -0.64796  -0.62818  -0.62055  -0.55897  -0.55291
 Alpha  occ. eigenvalues --   -0.53725  -0.53554  -0.53055  -0.52835  -0.49322
 Alpha  occ. eigenvalues --   -0.49304  -0.48611  -0.48576  -0.45286  -0.44560
 Alpha  occ. eigenvalues --   -0.37949  -0.37328  -0.37030  -0.36333
 Alpha virt. eigenvalues --    0.04501   0.05204   0.10630   0.11299   0.15984
 Alpha virt. eigenvalues --    0.16619   0.18145   0.22007   0.24455   0.27138
 Alpha virt. eigenvalues --    0.28245   0.29130   0.30206   0.31004   0.32454

 Mulliken charges:
               1
     1  C   -0.171502
     2  C   -0.218739
     3  C   -0.170024
     4  C    0.158118
     5  C   -0.169268
     6  C   -0.218916
     7  H    0.222003
     8  H    0.222868
     9  H    0.276037
    10  H    0.283346
    11  H    0.216198
    12  N    0.487986
    13  O   -0.456613
    14  O   -0.461494
    15  C   -0.170443
    16  C   -0.218232
    17  C   -0.169186
    18  C    0.160924
    19  C   -0.177827
    20  C   -0.219373
    21  H    0.227271
    22  H    0.226055
    23  H    0.278145
    24  H    0.274432
    25  H    0.218990
    26  N    0.487482
    27  O   -0.461824
    28  O   -0.456415
 Sum of Mulliken charges =  -0.00000

 Dipole moment (field-independent basis, Debye):
    X=             -4.9018    Y=              8.7625    Z=             -0.1200  Tot=             10.0411
 Quadrupole moment (field-independent basis, Debye-Ang):
   XX=           -102.6106   YY=           -108.1844   ZZ=           -106.0896
   XY=              4.1972   XZ=              9.8736   YZ=              1.3104

 Normal termination of Gaussian 16 at Thu May  6 01:43:17 2021.
