 Gaussian 16, Revision A.03,
 Gaussian 16:  EM64L-G16RevA.03 25-Dec-2016

 -------------
 #p 6-31g* mp2
 -------------

 ------------------------------------------------------
 Input file generated by CHIRIPA (05-May-2021 14:51:14)
 ------------------------------------------------------
 Symbolic Z-matrix:
 Charge =  0 Multiplicity = 1

                         Standard orientation:
 ---------------------------------------------------------------------
 Center     Atomic      Atomic             Coordinates (Angstroms)
 Number     Number       Type             X           Y           Z
 ---------------------------------------------------------------------
      1          6           0       -3.396003    0.713494    0.119985
      2          6           0       -3.097105    1.866181   -0.839159
      3          6           0       -2.315670    3.000279   -0.175098
      4          1           0       -3.963013    1.097400    0.979090
      5          1           0       -2.449638    0.323186    0.519296
      6          1           0       -4.043678    2.253295   -1.237604
      7          1           0       -2.530905    1.479451   -1.696174
      8          1           0       -1.356913    2.635214    0.207147
      9          1           0       -2.878280    3.413454    0.668322
     10          1           0       -2.112829    3.813734   -0.878665
     11          6           0       -4.176674   -0.427904   -0.529238
     12          6           0       -4.475572   -1.580590    0.429906
     13          6           0       -5.257006   -2.714688   -0.234155
     14          1           0       -5.123038   -0.037595   -0.928549
     15          1           0       -3.609663   -0.811810   -1.388343
     16          1           0       -5.041771   -1.193860    1.286921
     17          1           0       -3.528998   -1.967704    0.828351
     18          1           0       -4.694396   -3.127863   -1.077575
     19          1           0       -6.215764   -2.349623   -0.616400
     20          1           0       -5.459847   -3.528144    0.469412
     21          6           0        3.049535    0.007201    0.070259
     22          6           0        2.227037    0.196880    1.345212
     23          6           0        0.755028    0.496287    1.060011
     24          1           0        2.970965    0.912442   -0.547245
     25          1           0        2.615325   -0.812049   -0.519391
     26          1           0        2.663492    1.014615    1.932947
     27          1           0        2.307730   -0.708844    1.959841
     28          1           0        0.298086   -0.321985    0.494116
     29          1           0        0.655870    1.411267    0.467069
     30          1           0        0.185593    0.628271    1.985314
     31          6           0        4.523141   -0.292792    0.338994
     32          6           0        5.345639   -0.482471   -0.935958
     33          6           0        6.817648   -0.781878   -0.650758
     34          1           0        4.957351    0.526457    0.928644
     35          1           0        4.601710   -1.198033    0.956498
     36          1           0        5.264947    0.423253   -1.550588
     37          1           0        4.909184   -1.300206   -1.523693
     38          1           0        6.916806   -1.696858   -0.057816
     39          1           0        7.274590    0.036394   -0.084863
     40          1           0        7.387083   -0.913861   -1.576060
 ---------------------------------------------------------------------

 SCF Done:  E(RHF) =  -470.733004476     A.U. after   11 cycles
 E2 =    -0.1583059777D+01 EUMP2 =    -0.47231606425292D+03

 The electronic state is 1-A.
 Alpha  occ. eigenvalues --  -11.21673 -11.21634 -11.21557 -11.21500 -11.21457
 Alpha  occ. eigenvalues --  -11.21395 -11.21319 -11.21235 -11.21183 -11.21096
 Alpha  occ. eigenvalues --  -11.21040 -11.20926  -1.08486  -1.08345  -1.03599
 Alpha  occ. eigenvalues --   -1.03446  -0.96054  -0.95897  -0.87079  -0.86914
 Alpha  occ. eigenvalues --   -0.79700  -0.79486  -0.78305  -0.78141  -0.65117
 Alpha  occ. eigenvalues --   -0.64980  -0.61044  -0.60823  -0.59420  -0.59260
 Alpha  occ. eigenvalues --   -0.57664  -0.57510  -0.55518  -0.55037  -0.52758
 Alpha  occ. eigenvalues --   -0.52595  -0.52503  -0.52307  -0.50170  -0.49652
 Alpha  occ. eigenvalues --   -0.48041  -0.47782  -0.46718  -0.46483  -0.45900
 Alpha  occ. eigenvalues --   -0.45754  -0.45685  -0.45533  -0.43818  -0.43702
 Alpha virt. eigenvalues --    0.21500   0.22942   0.23763   0.24655   0.25857
 Alpha virt. eigenvalues --    0.26339   0.27267   0.27489   0.27787   0.29264
 Alpha virt. eigenvalues --    0.30428   0.31117   0.31670   0.31840   0.32105

 Mulliken charges:
               1
     1  C   -0.304553
     2  C   -0.298286
     3  C   -0.483170
     4  H    0.148872
     5  H    0.157478
     6  H    0.151326
     7  H    0.151321
     8  H    0.163442
     9  H    0.154475
    10  H    0.159042
    11  C   -0.298034
    12  C   -0.299530
    13  C   -0.475620
    14  H    0.149260
    15  H    0.149158
    16  H    0.151856
    17  H    0.151596
    18  H    0.154962
    19  H    0.155164
    20  H    0.160018
    21  C   -0.298710
    22  C   -0.300592
    23  C   -0.479961
    24  H    0.149980
    25  H    0.149444
    26  H    0.152509
    27  H    0.152251
    28  H    0.155176
    29  H    0.158803
    30  H    0.161769
    31  C   -0.298344
    32  C   -0.299686
    33  C   -0.475742
    34  H    0.149725
    35  H    0.149756
    36  H    0.152047
    37  H    0.151927
    38  H    0.155224
    39  H    0.155273
    40  H    0.160371
 Sum of Mulliken charges =  -0.00000

 Dipole moment (field-independent basis, Debye):
    X=              0.0710    Y=             -0.0109    Z=              0.0251  Tot=              0.0761
 Quadrupole moment (field-independent basis, Debye-Ang):
   XX=            -85.6313   YY=            -84.5559   ZZ=            -84.8464
   XY=             -0.3726   XZ=             -0.5191   YZ=             -0.1502

 Normal termination of Gaussian 16 at Wed May  5 20:01:30 2021.
