 Gaussian 16, Revision A.03,
 Gaussian 16:  EM64L-G16RevA.03 25-Dec-2016

 -------------
 #p 6-31g* mp2
 -------------

 ------------------------------------------------------
 Input file generated by CHIRIPA (05-May-2021 14:53:13)
 ------------------------------------------------------
 Symbolic Z-matrix:
 Charge =  0 Multiplicity = 1

                         Standard orientation:
 ---------------------------------------------------------------------
 Center     Atomic      Atomic             Coordinates (Angstroms)
 Number     Number       Type             X           Y           Z
 ---------------------------------------------------------------------
      1          6           0       -3.288470    1.152133   -0.247988
      2          6           0       -2.287385    2.160871    0.316159
      3          6           0       -2.356848    3.517916   -0.384839
      4          1           0       -3.101422    1.021318   -1.322626
      5          1           0       -4.303604    1.562333   -0.155072
      6          1           0       -1.274561    1.748302    0.223468
      7          1           0       -2.476715    2.289155    1.389617
      8          1           0       -3.355491    3.954436   -0.281092
      9          1           0       -2.146507    3.410510   -1.453867
     10          1           0       -1.632871    4.223732    0.034137
     11          6           0       -3.231094   -0.209314    0.442590
     12          6           0       -4.232179   -1.218051   -0.121557
     13          6           0       -4.162716   -2.575097    0.579441
     14          1           0       -2.215959   -0.619513    0.349674
     15          1           0       -3.418142   -0.078499    1.517228
     16          1           0       -4.042848   -1.346336   -1.195015
     17          1           0       -5.245002   -0.805483   -0.028866
     18          1           0       -4.373057   -2.467691    1.648469
     19          1           0       -3.164073   -3.011617    0.475694
     20          1           0       -4.886692   -3.280913    0.160465
     21          6           0        3.920286    1.702311    0.361948
     22          6           0        4.501599    0.436564    0.490316
     23          6           0        3.750055   -0.717576    0.250123
     24          6           0        2.413911   -0.568467   -0.118357
     25          6           0        1.806185    0.678690   -0.254582
     26          6           0        2.576803    1.819129   -0.009436
     27          1           0        4.511513    2.593552    0.550459
     28          1           0        5.544745    0.342815    0.778595
     29          1           0        4.174897   -1.709774    0.342151
     30          1           0        0.763985    0.740256   -0.543455
     31          1           0        2.122707    2.800836   -0.109899
     32          7           0        1.608189   -1.783049   -0.375261
     33          8           0        0.433021   -1.624763   -0.698625
     34          8           0        2.167088   -2.870328   -0.248394
 ---------------------------------------------------------------------

 SCF Done:  E(RHF) =  -669.536031038     A.U. after   15 cycles
 E2 =    -0.2092161547D+01 EUMP2 =    -0.67162819258535D+03

 The electronic state is 1-A.
 Alpha  occ. eigenvalues --  -20.60952 -20.60939 -15.85982 -11.31271 -11.27834
 Alpha  occ. eigenvalues --  -11.27818 -11.27565 -11.26839 -11.26824 -11.21801
 Alpha  occ. eigenvalues --  -11.21372 -11.21131 -11.20881 -11.20664 -11.20212
 Alpha  occ. eigenvalues --   -1.60007  -1.39564  -1.19439  -1.08848  -1.08080
 Alpha  occ. eigenvalues --   -1.04833  -1.03217  -0.95697  -0.95646  -0.86673
 Alpha  occ. eigenvalues --   -0.86234  -0.82531  -0.79363  -0.77829  -0.77545
 Alpha  occ. eigenvalues --   -0.72207  -0.71317  -0.70559  -0.65097  -0.64909
 Alpha  occ. eigenvalues --   -0.64650  -0.62200  -0.60592  -0.59104  -0.57241
 Alpha  occ. eigenvalues --   -0.55342  -0.54910  -0.53164  -0.52941  -0.52408
 Alpha  occ. eigenvalues --   -0.52059  -0.49594  -0.48959  -0.48951  -0.47642
 Alpha  occ. eigenvalues --   -0.46400  -0.45384  -0.45271  -0.44822  -0.43433
 Alpha  occ. eigenvalues --   -0.37416  -0.36426
 Alpha virt. eigenvalues --    0.04899   0.11199   0.16390   0.19783   0.23136
 Alpha virt. eigenvalues --    0.24476   0.25735   0.27298   0.27465   0.28363
 Alpha virt. eigenvalues --    0.29685   0.30951   0.31498   0.31927   0.32423

 Mulliken charges:
               1
     1  C   -0.297414
     2  C   -0.302584
     3  C   -0.476019
     4  H    0.150993
     5  H    0.148530
     6  H    0.143057
     7  H    0.154089
     8  H    0.158838
     9  H    0.154767
    10  H    0.154191
    11  C   -0.308643
    12  C   -0.298080
    13  C   -0.478546
    14  H    0.170815
    15  H    0.145240
    16  H    0.154355
    17  H    0.147008
    18  H    0.151140
    19  H    0.167557
    20  H    0.157580
    21  C   -0.170548
    22  C   -0.218682
    23  C   -0.170394
    24  C    0.159065
    25  C   -0.178141
    26  C   -0.220884
    27  H    0.226031
    28  H    0.223793
    29  H    0.275725
    30  H    0.285304
    31  H    0.224541
    32  N    0.490079
    33  O   -0.464020
    34  O   -0.458741
 Sum of Mulliken charges =  -0.00000

 Dipole moment (field-independent basis, Debye):
    X=              2.9477    Y=              4.1226    Z=              0.8789  Tot=              5.1436
 Quadrupole moment (field-independent basis, Debye-Ang):
   XX=            -77.8224   YY=            -99.4853   ZZ=            -95.4099
   XY=              6.0613   XZ=              2.6084   YZ=             -1.0062

 Normal termination of Gaussian 16 at Thu May  6 20:16:04 2021.
