 Gaussian 16, Revision A.03,
 Gaussian 16:  EM64L-G16RevA.03 25-Dec-2016

 -------------
 #p 6-31g* mp2
 -------------

 ------------------------------------------------------
 Input file generated by CHIRIPA (05-May-2021 14:57:25)
 ------------------------------------------------------
 Symbolic Z-matrix:
 Charge =  0 Multiplicity = 1

                         Standard orientation:
 ---------------------------------------------------------------------
 Center     Atomic      Atomic             Coordinates (Angstroms)
 Number     Number       Type             X           Y           Z
 ---------------------------------------------------------------------
      1          6           0       -4.704548    1.053416    0.623917
      2          6           0       -3.474027    1.681350    0.404740
      3          6           0       -2.376313    0.950055   -0.058703
      4          6           0       -2.545311   -0.413598   -0.293608
      5          6           0       -3.758421   -1.067867   -0.084839
      6          6           0       -4.842575   -0.316772    0.378860
      7          1           0       -5.552011    1.629194    0.984030
      8          1           0       -3.363922    2.745317    0.594199
      9          1           0       -1.412312    1.410906   -0.236855
     10          1           0       -3.837501   -2.129945   -0.282717
     11          1           0       -5.797021   -0.807083    0.548188
     12          7           0       -1.390388   -1.198268   -0.784370
     13          8           0       -1.565176   -2.398413   -0.983711
     14          8           0       -0.332240   -0.598288   -0.960396
     15          6           0        2.191560    2.655507   -0.455963
     16          6           0        1.696133    2.135477    0.744305
     17          6           0        1.991203    0.822979    1.124870
     18          6           0        2.788257    0.055034    0.277371
     19          6           0        3.296775    0.544563   -0.924736
     20          6           0        2.988894    1.859793   -1.285190
     21          1           0        1.957367    3.676149   -0.743783
     22          1           0        1.076668    2.751141    1.390266
     23          1           0        1.620816    0.395163    2.048561
     24          1           0        3.911705   -0.093375   -1.547885
     25          1           0        3.375029    2.261011   -2.217912
     26          7           0        3.107416   -1.335897    0.669614
     27          8           0        3.811802   -1.992016   -0.094575
     28          8           0        2.647142   -1.743650    1.733814
 ---------------------------------------------------------------------

 SCF Done:  E(RHF) =  -868.337040200     A.U. after   16 cycles
 E2 =    -0.2602027932D+01 EUMP2 =    -0.87093906813286D+03

 The electronic state is 1-A.
 Alpha  occ. eigenvalues --  -20.60859 -20.60833 -20.59785 -20.59766 -15.85890
 Alpha  occ. eigenvalues --  -15.84838 -11.31357 -11.30266 -11.27953 -11.27910
 Alpha  occ. eigenvalues --  -11.27706 -11.27019 -11.26999 -11.26945 -11.26903
 Alpha  occ. eigenvalues --  -11.26857 -11.26137 -11.25992  -1.59914  -1.58831
 Alpha  occ. eigenvalues --   -1.39468  -1.38395  -1.19542  -1.18509  -1.08919
 Alpha  occ. eigenvalues --   -1.07923  -1.04966  -1.03993  -0.95739  -0.94740
 Alpha  occ. eigenvalues --   -0.86355  -0.85408  -0.82577  -0.81606  -0.77607
 Alpha  occ. eigenvalues --   -0.76599  -0.72146  -0.71245  -0.71091  -0.70648
 Alpha  occ. eigenvalues --   -0.70083  -0.69742  -0.65198  -0.64976  -0.64235
 Alpha  occ. eigenvalues --   -0.64082  -0.62316  -0.61374  -0.55459  -0.54583
 Alpha  occ. eigenvalues --   -0.53286  -0.53075  -0.52198  -0.52151  -0.48900
 Alpha  occ. eigenvalues --   -0.48839  -0.47844  -0.47821  -0.44867  -0.43793
 Alpha  occ. eigenvalues --   -0.37531  -0.36590  -0.36454  -0.35529
 Alpha virt. eigenvalues --    0.04922   0.06011   0.11073   0.11986   0.16403
 Alpha virt. eigenvalues --    0.17411   0.21047   0.22001   0.26753   0.27716
 Alpha virt. eigenvalues --    0.28440   0.28899   0.30712   0.31398   0.32273

 Mulliken charges:
               1
     1  C   -0.170556
     2  C   -0.219561
     3  C   -0.175418
     4  C    0.157914
     5  C   -0.169683
     6  C   -0.218573
     7  H    0.225618
     8  H    0.219944
     9  H    0.275227
    10  H    0.277663
    11  H    0.224570
    12  N    0.490246
    13  O   -0.455130
    14  O   -0.464779
    15  C   -0.172058
    16  C   -0.225310
    17  C   -0.161739
    18  C    0.176270
    19  C   -0.163581
    20  C   -0.216602
    21  H    0.219205
    22  H    0.213506
    23  H    0.271559
    24  H    0.275322
    25  H    0.220342
    26  N    0.490058
    27  O   -0.460440
    28  O   -0.464013
 Sum of Mulliken charges =  -0.00000

 Dipole moment (field-independent basis, Debye):
    X=             -5.1872    Y=              7.2643    Z=              0.2129  Tot=              8.9288
 Quadrupole moment (field-independent basis, Debye-Ang):
   XX=            -88.0231   YY=           -104.6521   ZZ=           -104.3623
   XY=             10.4341   XZ=            -10.3167   YZ=              0.3545

 Normal termination of Gaussian 16 at Thu May  6 21:20:35 2021.
