 Gaussian 16, Revision A.03,
 Gaussian 16:  EM64L-G16RevA.03 25-Dec-2016

 -------------
 #p 6-31g* mp2
 -------------

 ------------------------------------------------------
 Input file generated by CHIRIPA (05-May-2021 14:53:17)
 ------------------------------------------------------
 Symbolic Z-matrix:
 Charge =  0 Multiplicity = 1

                         Standard orientation:
 ---------------------------------------------------------------------
 Center     Atomic      Atomic             Coordinates (Angstroms)
 Number     Number       Type             X           Y           Z
 ---------------------------------------------------------------------
      1          6           0        3.786648   -0.387738    0.293125
      2          6           0        2.855437   -1.180258   -0.624886
      3          6           0        1.707907   -1.849422    0.132207
      4          1           0        4.194438   -1.060230    1.060201
      5          1           0        3.202715    0.375896    0.825365
      6          1           0        3.441201   -1.941263   -1.156270
      7          1           0        2.449965   -0.505843   -1.389982
      8          1           0        1.098980   -1.100647    0.649068
      9          1           0        2.095848   -2.544222    0.884108
     10          1           0        1.054590   -2.410542   -0.543204
     11          6           0        4.938814    0.287047   -0.449105
     12          6           0        5.870025    1.079568    0.468905
     13          6           0        7.017555    1.748731   -0.288187
     14          1           0        5.522747   -0.476587   -0.981346
     15          1           0        4.531023    0.959539   -1.216182
     16          1           0        6.275497    0.405152    1.234001
     17          1           0        5.284261    1.840572    1.000289
     18          1           0        6.629614    2.443532   -1.040088
     19          1           0        7.626482    0.999956   -0.805048
     20          1           0        7.670872    2.309852    0.387224
     21          6           0       -5.309749    1.636649   -0.385513
     22          6           0       -4.838873    0.805809   -1.407521
     23          6           0       -3.785916   -0.083083   -1.171509
     24          6           0       -3.224567   -0.115091    0.104091
     25          6           0       -3.671520    0.699966    1.142938
     26          6           0       -4.725600    1.581174    0.884216
     27          1           0       -6.128147    2.324178   -0.577674
     28          1           0       -5.290621    0.846740   -2.394584
     29          1           0       -3.401798   -0.737524   -1.944539
     30          1           0       -3.201068    0.636493    2.116623
     31          1           0       -5.089235    2.225238    1.679826
     32          7           0       -2.109254   -1.052053    0.365967
     33          8           0       -1.631698   -1.061111    1.498440
     34          8           0       -1.733747   -1.759645   -0.566205
 ---------------------------------------------------------------------

 SCF Done:  E(RHF) =  -669.535795644     A.U. after   15 cycles
 E2 =    -0.2091914077D+01 EUMP2 =    -0.67162770972029D+03

 The electronic state is 1-A.
 Alpha  occ. eigenvalues --  -20.60986 -20.60981 -15.85994 -11.31325 -11.27883
 Alpha  occ. eigenvalues --  -11.27880 -11.27619 -11.26888 -11.26878 -11.20993
 Alpha  occ. eigenvalues --  -11.20607 -11.20591 -11.20343 -11.20212 -11.18927
 Alpha  occ. eigenvalues --   -1.60029  -1.39588  -1.19489  -1.08893  -1.07486
 Alpha  occ. eigenvalues --   -1.04884  -1.02448  -0.95741  -0.94843  -0.86284
 Alpha  occ. eigenvalues --   -0.85851  -0.82570  -0.78562  -0.77624  -0.77236
 Alpha  occ. eigenvalues --   -0.72222  -0.71348  -0.70596  -0.65144  -0.64887
 Alpha  occ. eigenvalues --   -0.64138  -0.62231  -0.59868  -0.58330  -0.56443
 Alpha  occ. eigenvalues --   -0.55394  -0.54168  -0.53214  -0.52975  -0.51536
 Alpha  occ. eigenvalues --   -0.51281  -0.49195  -0.48960  -0.48533  -0.46835
 Alpha  occ. eigenvalues --   -0.45625  -0.45017  -0.44748  -0.44639  -0.42636
 Alpha  occ. eigenvalues --   -0.37464  -0.36484
 Alpha virt. eigenvalues --    0.04879   0.11171   0.16375   0.21309   0.23706
 Alpha virt. eigenvalues --    0.25490   0.27228   0.27527   0.28178   0.28354
 Alpha virt. eigenvalues --    0.29343   0.30887   0.32354   0.32487   0.32629

 Mulliken charges:
               1
     1  C   -0.296632
     2  C   -0.301148
     3  C   -0.477200
     4  H    0.148331
     5  H    0.147704
     6  H    0.146105
     7  H    0.146171
     8  H    0.164004
     9  H    0.146951
    10  H    0.175791
    11  C   -0.297007
    12  C   -0.298736
    13  C   -0.475061
    14  H    0.148024
    15  H    0.147016
    16  H    0.151415
    17  H    0.150475
    18  H    0.153704
    19  H    0.154496
    20  H    0.158179
    21  C   -0.170556
    22  C   -0.218569
    23  C   -0.170867
    24  C    0.159330
    25  C   -0.170826
    26  C   -0.218574
    27  H    0.226099
    28  H    0.223928
    29  H    0.275811
    30  H    0.275904
    31  H    0.223934
    32  N    0.488034
    33  O   -0.458501
    34  O   -0.457726
 Sum of Mulliken charges =  -0.00000

 Dipole moment (field-independent basis, Debye):
    X=             -4.3727    Y=              3.2247    Z=             -0.8895  Tot=              5.5055
 Quadrupole moment (field-independent basis, Debye-Ang):
   XX=            -71.8945   YY=            -95.2799   ZZ=            -90.7613
   XY=            -11.4701   XZ=              3.4848   YZ=              2.3483

 Normal termination of Gaussian 16 at Thu May  6 18:56:04 2021.
