 Gaussian 16, Revision A.03,
 Gaussian 16:  EM64L-G16RevA.03 25-Dec-2016

 -------------
 #p 6-31g* mp2
 -------------

 ------------------------------------------------------
 Input file generated by CHIRIPA (05-May-2021 14:53:12)
 ------------------------------------------------------
 Symbolic Z-matrix:
 Charge =  0 Multiplicity = 1

                         Standard orientation:
 ---------------------------------------------------------------------
 Center     Atomic      Atomic             Coordinates (Angstroms)
 Number     Number       Type             X           Y           Z
 ---------------------------------------------------------------------
      1          6           0        3.367277   -0.563982   -0.380642
      2          6           0        3.951918   -1.886077    0.117600
      3          6           0        3.329269   -3.103147   -0.567121
      4          1           0        2.281382   -0.564632   -0.213977
      5          1           0        3.516756   -0.491179   -1.466805
      6          1           0        3.802612   -1.955739    1.202714
      7          1           0        5.036574   -1.882202   -0.050095
      8          1           0        3.490445   -3.060811   -1.649170
      9          1           0        2.249472   -3.134765   -0.389244
     10          1           0        3.761741   -4.037544   -0.196001
     11          6           0        3.979695    0.661917    0.294521
     12          6           0        3.395055    1.984012   -0.203721
     13          6           0        4.017704    3.201082    0.481000
     14          1           0        3.830216    0.589114    1.380684
     15          1           0        5.065590    0.662566    0.127856
     16          1           0        2.310398    1.980137   -0.036026
     17          1           0        3.544361    2.053673   -1.288834
     18          1           0        5.097500    3.232700    0.303123
     19          1           0        3.856527    3.158746    1.563050
     20          1           0        3.585231    4.135479    0.109880
     21          6           0       -5.348992    0.383337   -0.172114
     22          6           0       -4.832446   -0.202030    0.988508
     23          6           0       -3.460520   -0.440270    1.113449
     24          6           0       -2.630242   -0.079014    0.053533
     25          6           0       -3.114634    0.505816   -1.115497
     26          6           0       -4.489953    0.734772   -1.218568
     27          1           0       -6.416056    0.564802   -0.260678
     28          1           0       -5.497219   -0.475987    1.802798
     29          1           0       -3.033928   -0.892019    2.000782
     30          1           0       -2.427000    0.768079   -1.910353
     31          1           0       -4.888312    1.189526   -2.121094
     32          7           0       -1.176050   -0.326314    0.174226
     33          8           0       -0.465642    0.001097   -0.773804
     34          8           0       -0.774197   -0.842876    1.214569
 ---------------------------------------------------------------------

 SCF Done:  E(RHF) =  -669.537074031     A.U. after   15 cycles
 E2 =    -0.2091717442D+01 EUMP2 =    -0.67162879147383D+03

 The electronic state is 1-A.
 Alpha  occ. eigenvalues --  -20.61199 -20.61174 -15.86173 -11.31422 -11.27970
 Alpha  occ. eigenvalues --  -11.27966 -11.27694 -11.26958 -11.26948 -11.20249
 Alpha  occ. eigenvalues --  -11.20111 -11.20061 -11.19920 -11.19711 -11.19428
 Alpha  occ. eigenvalues --   -1.60221  -1.39778  -1.19578  -1.08999  -1.06892
 Alpha  occ. eigenvalues --   -1.04960  -1.02161  -0.95852  -0.94613  -0.86365
 Alpha  occ. eigenvalues --   -0.85640  -0.82686  -0.78223  -0.77752  -0.76652
 Alpha  occ. eigenvalues --   -0.72377  -0.71519  -0.70686  -0.65233  -0.64964
 Alpha  occ. eigenvalues --   -0.63516  -0.62307  -0.59563  -0.58001  -0.56228
 Alpha  occ. eigenvalues --   -0.55471  -0.53901  -0.53297  -0.53050  -0.51386
 Alpha  occ. eigenvalues --   -0.51056  -0.49242  -0.49150  -0.48514  -0.46550
 Alpha  occ. eigenvalues --   -0.45290  -0.45154  -0.44239  -0.43933  -0.42353
 Alpha  occ. eigenvalues --   -0.37553  -0.36556
 Alpha virt. eigenvalues --    0.04769   0.11100   0.16284   0.21241   0.24364
 Alpha virt. eigenvalues --    0.25600   0.27170   0.28018   0.28270   0.29045
 Alpha virt. eigenvalues --    0.29403   0.30861   0.32364   0.32660   0.32951

 Mulliken charges:
               1
     1  C   -0.311981
     2  C   -0.297356
     3  C   -0.475723
     4  H    0.184520
     5  H    0.142082
     6  H    0.150968
     7  H    0.144282
     8  H    0.150834
     9  H    0.162428
    10  H    0.153306
    11  C   -0.296725
    12  C   -0.300185
    13  C   -0.474898
    14  H    0.147883
    15  H    0.142296
    16  H    0.161376
    17  H    0.148184
    18  H    0.151783
    19  H    0.153235
    20  H    0.155291
    21  C   -0.170262
    22  C   -0.218621
    23  C   -0.170572
    24  C    0.158197
    25  C   -0.170564
    26  C   -0.218583
    27  H    0.226494
    28  H    0.224272
    29  H    0.276042
    30  H    0.276353
    31  H    0.224348
    32  N    0.488487
    33  O   -0.457765
    34  O   -0.459424
 Sum of Mulliken charges =  -0.00000

 Dipole moment (field-independent basis, Debye):
    X=             -5.6904    Y=              0.8497    Z=             -0.4098  Tot=              5.7681
 Quadrupole moment (field-independent basis, Debye-Ang):
   XX=            -69.7128   YY=            -96.8267   ZZ=            -90.4989
   XY=             -1.9827   XZ=             -0.4470   YZ=             -2.6051

 Normal termination of Gaussian 16 at Thu May  6 00:58:43 2021.
