 Gaussian 16, Revision A.03,
 Gaussian 16:  EM64L-G16RevA.03 25-Dec-2016

 -------------
 #p 6-31g* mp2
 -------------

 ------------------------------------------------------
 Input file generated by CHIRIPA (05-May-2021 14:53:16)
 ------------------------------------------------------
 Symbolic Z-matrix:
 Charge =  0 Multiplicity = 1

                         Standard orientation:
 ---------------------------------------------------------------------
 Center     Atomic      Atomic             Coordinates (Angstroms)
 Number     Number       Type             X           Y           Z
 ---------------------------------------------------------------------
      1          6           0        2.198965    0.763412   -0.231672
      2          6           0        1.589593    2.163408   -0.313293
      3          6           0        0.078464    2.137807   -0.544872
      4          1           0        1.978054    0.219573   -1.160318
      5          1           0        1.712023    0.205926    0.580419
      6          1           0        2.078501    2.718558   -1.124090
      7          1           0        1.812144    2.704045    0.615577
      8          1           0       -0.427011    1.607458    0.268654
      9          1           0       -0.159141    1.622053   -1.480898
     10          1           0       -0.336436    3.149085   -0.599960
     11          6           0        3.708984    0.772501   -0.000400
     12          6           0        4.318356   -0.627495    0.081220
     13          6           0        5.829485   -0.601893    0.312800
     14          1           0        4.195926    1.329987   -0.812491
     15          1           0        3.929895    1.316340    0.928245
     16          1           0        4.095805   -1.168132   -0.847649
     17          1           0        3.829448   -1.182645    0.892018
     18          1           0        6.067090   -0.086140    1.248825
     19          1           0        6.334960   -0.071545   -0.500727
     20          1           0        6.244385   -1.613172    0.367888
     21          6           0       -4.219681    1.028832    0.330694
     22          6           0       -3.984339    0.401715   -0.897255
     23          6           0       -2.927914   -0.502515   -1.041766
     24          6           0       -2.122958   -0.757433    0.067447
     25          6           0       -2.331886   -0.148590    1.303954
     26          6           0       -3.394159    0.752166    1.425450
     27          1           0       -5.042610    1.729911    0.434014
     28          1           0       -4.623829    0.614660   -1.749165
     29          1           0       -2.723176   -1.002101   -1.980868
     30          1           0       -1.677324   -0.381069    2.135171
     31          1           0       -3.574566    1.237716    2.380300
     32          7           0       -1.001473   -1.712861   -0.073357
     33          8           0       -0.306732   -1.920386    0.919066
     34          8           0       -0.838430   -2.236110   -1.173478
 ---------------------------------------------------------------------

 SCF Done:  E(RHF) =  -669.534593450     A.U. after   15 cycles
 E2 =    -0.2094771383D+01 EUMP2 =    -0.67162936483297D+03

 The electronic state is 1-A.
 Alpha  occ. eigenvalues --  -20.60893 -20.60887 -15.85902 -11.31198 -11.27792
 Alpha  occ. eigenvalues --  -11.27774 -11.27546 -11.26828 -11.26818 -11.21132
 Alpha  occ. eigenvalues --  -11.20753 -11.20715 -11.20648 -11.20518 -11.20374
 Alpha  occ. eigenvalues --   -1.59937  -1.39499  -1.19414  -1.08810  -1.07730
 Alpha  occ. eigenvalues --   -1.04820  -1.02926  -0.95658  -0.95389  -0.86428
 Alpha  occ. eigenvalues --   -0.86212  -0.82495  -0.78986  -0.77565  -0.77488
 Alpha  occ. eigenvalues --   -0.72141  -0.71233  -0.70528  -0.65072  -0.64821
 Alpha  occ. eigenvalues --   -0.64364  -0.62168  -0.60346  -0.58776  -0.57054
 Alpha  occ. eigenvalues --   -0.55318  -0.54783  -0.53334  -0.52908  -0.52089
 Alpha  occ. eigenvalues --   -0.51594  -0.49339  -0.48906  -0.48894  -0.47268
 Alpha  occ. eigenvalues --   -0.46053  -0.45306  -0.45030  -0.44470  -0.43138
 Alpha  occ. eigenvalues --   -0.37319  -0.36367
 Alpha virt. eigenvalues --    0.04933   0.11144   0.16437   0.21325   0.23507
 Alpha virt. eigenvalues --    0.24751   0.27081   0.27532   0.27815   0.28414
 Alpha virt. eigenvalues --    0.28747   0.30997   0.31753   0.32158   0.32463

 Mulliken charges:
               1
     1  C   -0.308016
     2  C   -0.297829
     3  C   -0.480915
     4  H    0.154034
     5  H    0.162332
     6  H    0.149723
     7  H    0.148318
     8  H    0.156904
     9  H    0.153699
    10  H    0.155589
    11  C   -0.297776
    12  C   -0.300203
    13  C   -0.475604
    14  H    0.146114
    15  H    0.145960
    16  H    0.155314
    17  H    0.159202
    18  H    0.152490
    19  H    0.152508
    20  H    0.159989
    21  C   -0.170670
    22  C   -0.217034
    23  C   -0.171152
    24  C    0.167428
    25  C   -0.179521
    26  C   -0.214378
    27  H    0.225895
    28  H    0.223740
    29  H    0.275391
    30  H    0.275046
    31  H    0.223776
    32  N    0.489447
    33  O   -0.460204
    34  O   -0.459597
 Sum of Mulliken charges =  -0.00000

 Dipole moment (field-independent basis, Debye):
    X=             -4.1245    Y=              3.1624    Z=              0.5045  Tot=              5.2217
 Quadrupole moment (field-independent basis, Debye-Ang):
   XX=            -79.8445   YY=           -100.9687   ZZ=            -89.1411
   XY=             -4.4219   XZ=             -0.2743   YZ=              0.7819

 Normal termination of Gaussian 16 at Wed May  5 23:36:32 2021.
