 Gaussian 16, Revision A.03,
 Gaussian 16:  EM64L-G16RevA.03 25-Dec-2016

 -------------
 #p 6-31g* mp2
 -------------

 ------------------------------------------------------
 Input file generated by CHIRIPA (05-May-2021 14:51:09)
 ------------------------------------------------------
 Symbolic Z-matrix:
 Charge =  0 Multiplicity = 1

                         Standard orientation:
 ---------------------------------------------------------------------
 Center     Atomic      Atomic             Coordinates (Angstroms)
 Number     Number       Type             X           Y           Z
 ---------------------------------------------------------------------
      1          6           0        2.647076   -0.399139    1.048590
      2          6           0        1.167985   -0.784682    1.088977
      3          6           0        0.754514   -1.402994    2.424838
      4          1           0        3.257442   -1.291005    1.246005
      5          1           0        2.856504    0.309269    1.862035
      6          1           0        0.961109   -1.491087    0.274845
      7          1           0        0.561075    0.108168    0.891252
      8          1           0        0.932562   -0.700940    3.245826
      9          1           0        1.334869   -2.309281    2.625916
     10          1           0       -0.306584   -1.671105    2.431819
     11          6           0        3.075592    0.220312   -0.280464
     12          6           0        4.554683    0.605855   -0.320851
     13          6           0        4.968154    1.224167   -1.656712
     14          1           0        2.866164   -0.488096   -1.093908
     15          1           0        2.465227    1.112179   -0.477879
     16          1           0        5.161594   -0.286994   -0.123126
     17          1           0        4.761559    1.312260    0.493281
     18          1           0        4.387799    2.130455   -1.857790
     19          1           0        4.790106    0.522114   -2.477700
     20          1           0        6.029252    1.492278   -1.663692
     21          6           0       -3.104115    0.795408   -0.545498
     22          6           0       -3.036315    1.747842    0.648763
     23          6           0       -3.525334    3.156369    0.310080
     24          1           0       -2.502904    1.205862   -1.368309
     25          1           0       -4.139960    0.747407   -0.908974
     26          1           0       -2.001159    1.792964    1.010744
     27          1           0       -3.637603    1.334979    1.468893
     28          1           0       -4.565539    3.131527   -0.030447
     29          1           0       -2.919797    3.592115   -0.491200
     30          1           0       -3.468261    3.820677    1.178008
     31          6           0       -2.618553   -0.616581   -0.222629
     32          6           0       -2.686353   -1.569015   -1.416889
     33          6           0       -2.197334   -2.977542   -1.078207
     34          1           0       -1.582708   -0.568580    0.140848
     35          1           0       -3.219765   -1.027034    0.600183
     36          1           0       -2.085065   -1.156152   -2.237020
     37          1           0       -3.721510   -1.614137   -1.778870
     38          1           0       -2.802871   -3.413288   -0.276926
     39          1           0       -1.157130   -2.952701   -0.737679
     40          1           0       -2.254407   -3.641850   -1.946134
 ---------------------------------------------------------------------

 SCF Done:  E(RHF) =  -470.732757564     A.U. after   11 cycles
 E2 =    -0.1584150383D+01 EUMP2 =    -0.47231690794713D+03

 The electronic state is 1-A.
 Alpha  occ. eigenvalues --  -11.21698 -11.21646 -11.21605 -11.21553 -11.21468
 Alpha  occ. eigenvalues --  -11.21408 -11.21348 -11.21232 -11.21108 -11.21098
 Alpha  occ. eigenvalues --  -11.21074 -11.21052  -1.08511  -1.08379  -1.03604
 Alpha  occ. eigenvalues --   -1.03498  -0.96035  -0.95948  -0.87044  -0.86971
 Alpha  occ. eigenvalues --   -0.79718  -0.79547  -0.78428  -0.78089  -0.65152
 Alpha  occ. eigenvalues --   -0.65019  -0.61043  -0.60875  -0.59457  -0.59270
 Alpha  occ. eigenvalues --   -0.57699  -0.57519  -0.55351  -0.55203  -0.52729
 Alpha  occ. eigenvalues --   -0.52650  -0.52468  -0.52362  -0.49999  -0.49878
 Alpha  occ. eigenvalues --   -0.48074  -0.47866  -0.46757  -0.46573  -0.46128
 Alpha  occ. eigenvalues --   -0.45764  -0.45723  -0.45238  -0.43832  -0.43747
 Alpha virt. eigenvalues --    0.20568   0.22898   0.23187   0.24346   0.25878
 Alpha virt. eigenvalues --    0.26222   0.26917   0.27777   0.27932   0.29451
 Alpha virt. eigenvalues --    0.30081   0.31001   0.31673   0.31870   0.32077

 Mulliken charges:
               1
     1  C   -0.296833
     2  C   -0.307642
     3  C   -0.477751
     4  H    0.150037
     5  H    0.149881
     6  H    0.154205
     7  H    0.153521
     8  H    0.155409
     9  H    0.155545
    10  H    0.163460
    11  C   -0.298496
    12  C   -0.299702
    13  C   -0.475757
    14  H    0.149475
    15  H    0.149286
    16  H    0.152155
    17  H    0.152089
    18  H    0.155163
    19  H    0.155248
    20  H    0.160468
    21  C   -0.297472
    22  C   -0.301103
    23  C   -0.475645
    24  H    0.149203
    25  H    0.149330
    26  H    0.151992
    27  H    0.152142
    28  H    0.155421
    29  H    0.155037
    30  H    0.160104
    31  C   -0.311673
    32  C   -0.298542
    33  C   -0.479111
    34  H    0.166346
    35  H    0.148259
    36  H    0.151552
    37  H    0.151605
    38  H    0.155079
    39  H    0.157610
    40  H    0.160107
 Sum of Mulliken charges =  -0.00000

 Dipole moment (field-independent basis, Debye):
    X=              0.0443    Y=             -0.0042    Z=              0.0222  Tot=              0.0498
 Quadrupole moment (field-independent basis, Debye-Ang):
   XX=            -84.2114   YY=            -85.2329   ZZ=            -85.4116
   XY=              0.1409   XZ=              0.0078   YZ=              0.7393

 Normal termination of Gaussian 16 at Thu May  6 05:20:53 2021.
