 Gaussian 16, Revision A.03,
 Gaussian 16:  EM64L-G16RevA.03 25-Dec-2016

 -------------
 #p 6-31g* mp2
 -------------

 ------------------------------------------------------
 Input file generated by CHIRIPA (05-May-2021 14:57:26)
 ------------------------------------------------------
 Symbolic Z-matrix:
 Charge =  0 Multiplicity = 1

                         Standard orientation:
 ---------------------------------------------------------------------
 Center     Atomic      Atomic             Coordinates (Angstroms)
 Number     Number       Type             X           Y           Z
 ---------------------------------------------------------------------
      1          6           0        1.463240   -1.772871    0.660849
      2          6           0        1.475987   -1.115528   -0.573760
      3          6           0        2.502668   -0.221368   -0.891492
      4          6           0        3.505185   -0.007231    0.053175
      5          6           0        3.520307   -0.646881    1.291686
      6          6           0        2.483642   -1.536865    1.587997
      7          1           0        0.661812   -2.465854    0.899351
      8          1           0        0.684837   -1.296870   -1.295730
      9          1           0        2.537086    0.301006   -1.839837
     10          1           0        4.322739   -0.445642    1.990988
     11          1           0        2.476315   -2.045954    2.547591
     12          7           0        4.597371    0.937166   -0.271855
     13          8           0        5.468960    1.108540    0.577615
     14          8           0        4.561156    1.488127   -1.369930
     15          6           0       -3.797297    2.484172    0.761951
     16          6           0       -4.174436    1.365728    1.512532
     17          6           0       -3.917878    0.074833    1.041027
     18          6           0       -3.279537   -0.061535   -0.190726
     19          6           0       -2.891562    1.033089   -0.961806
     20          6           0       -3.158190    2.314582   -0.470649
     21          1           0       -4.000509    3.483318    1.135860
     22          1           0       -4.670921    1.494419    2.470126
     23          1           0       -4.199062   -0.808419    1.601580
     24          1           0       -2.398184    0.873034   -1.912794
     25          1           0       -2.864169    3.181356   -1.055711
     26          7           0       -3.002600   -1.423170   -0.700289
     27          8           0       -2.438918   -1.516489   -1.788495
     28          8           0       -3.354463   -2.371319   -0.001830
 ---------------------------------------------------------------------

 SCF Done:  E(RHF) =  -868.340106718     A.U. after   16 cycles
 E2 =    -0.2598715783D+01 EUMP2 =    -0.87093882250058D+03

 The electronic state is 1-A.
 Alpha  occ. eigenvalues --  -20.61848 -20.61812 -20.60539 -20.60534 -15.86845
 Alpha  occ. eigenvalues --  -15.85585 -11.31905 -11.30824 -11.28439 -11.28433
 Alpha  occ. eigenvalues --  -11.28094 -11.27385 -11.27371 -11.27352 -11.27336
 Alpha  occ. eigenvalues --  -11.26987 -11.26365 -11.26187  -1.60898  -1.59617
 Alpha  occ. eigenvalues --   -1.40458  -1.39175  -1.20045  -1.18962  -1.09492
 Alpha  occ. eigenvalues --   -1.08364  -1.05399  -1.04337  -0.96378  -0.95229
 Alpha  occ. eigenvalues --   -0.86811  -0.85725  -0.83220  -0.82061  -0.78310
 Alpha  occ. eigenvalues --   -0.77142  -0.73064  -0.72214  -0.71804  -0.71141
 Alpha  occ. eigenvalues --   -0.70940  -0.70030  -0.65697  -0.65391  -0.64598
 Alpha  occ. eigenvalues --   -0.64290  -0.62753  -0.61674  -0.55896  -0.54780
 Alpha  occ. eigenvalues --   -0.53743  -0.53483  -0.52690  -0.52394  -0.49844
 Alpha  occ. eigenvalues --   -0.49797  -0.48570  -0.48549  -0.45912  -0.44609
 Alpha  occ. eigenvalues --   -0.37998  -0.36990  -0.36919  -0.35953
 Alpha virt. eigenvalues --    0.04160   0.05370   0.10659   0.11707   0.15706
 Alpha virt. eigenvalues --    0.16911   0.20798   0.22007   0.26690   0.27329
 Alpha virt. eigenvalues --    0.28208   0.28792   0.30455   0.31287   0.32292

 Mulliken charges:
               1
     1  C   -0.174636
     2  C   -0.227929
     3  C   -0.173398
     4  C    0.158229
     5  C   -0.172567
     6  C   -0.218955
     7  H    0.232883
     8  H    0.239697
     9  H    0.273412
    10  H    0.273596
    11  H    0.222098
    12  N    0.488061
    13  O   -0.461832
    14  O   -0.462162
    15  C   -0.169417
    16  C   -0.218263
    17  C   -0.171288
    18  C    0.157245
    19  C   -0.170853
    20  C   -0.217720
    21  H    0.228934
    22  H    0.225576
    23  H    0.275335
    24  H    0.274153
    25  H    0.227060
    26  N    0.486925
    27  O   -0.465482
    28  O   -0.458705
 Sum of Mulliken charges =  -0.00000

 Dipole moment (field-independent basis, Debye):
    X=             -5.1708    Y=              1.5324    Z=              2.9835  Tot=              6.1634
 Quadrupole moment (field-independent basis, Debye-Ang):
   XX=           -125.1377   YY=           -105.1754   ZZ=            -98.4569
   XY=            -27.5643   XZ=             -2.1153   YZ=             -3.9231

 Normal termination of Gaussian 16 at Thu May  6 13:09:19 2021.
