 Gaussian 16, Revision A.03,
 Gaussian 16:  EM64L-G16RevA.03 25-Dec-2016

 -------------
 #p 6-31g* mp2
 -------------

 ------------------------------------------------------
 Input file generated by CHIRIPA (05-May-2021 14:53:11)
 ------------------------------------------------------
 Symbolic Z-matrix:
 Charge =  0 Multiplicity = 1

                         Standard orientation:
 ---------------------------------------------------------------------
 Center     Atomic      Atomic             Coordinates (Angstroms)
 Number     Number       Type             X           Y           Z
 ---------------------------------------------------------------------
      1          6           0        4.212135    0.275221    0.376602
      2          6           0        3.640450    1.619649   -0.074702
      3          6           0        2.232969    1.874783    0.465388
      4          1           0        3.540564   -0.530136    0.048978
      5          1           0        4.228109    0.241537    1.474785
      6          1           0        3.626846    1.651333   -1.171710
      7          1           0        4.313559    2.421885    0.253869
      8          1           0        2.233725    1.870063    1.560184
      9          1           0        1.543111    1.095132    0.126506
     10          1           0        1.843560    2.841277    0.130561
     11          6           0        5.618631    0.005755   -0.155266
     12          6           0        6.190316   -1.338673    0.296038
     13          6           0        7.597797   -1.593806   -0.244052
     14          1           0        5.602657    0.039439   -1.253449
     15          1           0        6.290202    0.811112    0.172358
     16          1           0        5.517208   -2.140909   -0.032532
     17          1           0        6.203920   -1.370357    1.393046
     18          1           0        8.287655   -0.814156    0.094831
     19          1           0        7.597041   -1.589086   -1.338848
     20          1           0        7.987206   -2.560301    0.090775
     21          6           0       -1.635152    1.055466   -0.468814
     22          6           0       -1.700382   -0.341690   -0.483658
     23          6           0       -2.916720   -0.997964   -0.272999
     24          6           0       -4.053313   -0.222406   -0.049495
     25          6           0       -4.020590    1.171075   -0.028756
     26          6           0       -2.793422    1.806066   -0.241811
     27          1           0       -0.686065    1.557008   -0.633390
     28          1           0       -0.802466   -0.927180   -0.659705
     29          1           0       -2.995691   -2.078307   -0.279239
     30          1           0       -4.932654    1.727709    0.149335
     31          1           0       -2.745747    2.891251   -0.229733
     32          7           0       -5.346729   -0.905907    0.174789
     33          8           0       -6.333736   -0.199835    0.369503
     34          8           0       -5.349008   -2.134767    0.151622
 ---------------------------------------------------------------------

 SCF Done:  E(RHF) =  -669.535390480     A.U. after   15 cycles
 E2 =    -0.2090987897D+01 EUMP2 =    -0.67162637837694D+03

 The electronic state is 1-A.
 Alpha  occ. eigenvalues --  -20.60710 -20.60705 -15.85764 -11.31113 -11.27694
 Alpha  occ. eigenvalues --  -11.27686 -11.27361 -11.26697 -11.26676 -11.22571
 Alpha  occ. eigenvalues --  -11.22362 -11.22200 -11.22138 -11.22012 -11.21512
 Alpha  occ. eigenvalues --   -1.59786  -1.39340  -1.19286  -1.09192  -1.08677
 Alpha  occ. eigenvalues --   -1.04692  -1.04323  -0.96799  -0.95514  -0.87821
 Alpha  occ. eigenvalues --   -0.86088  -0.82355  -0.80397  -0.78962  -0.77407
 Alpha  occ. eigenvalues --   -0.71982  -0.71110  -0.70400  -0.65823  -0.64937
 Alpha  occ. eigenvalues --   -0.64704  -0.62049  -0.61720  -0.60189  -0.58376
 Alpha  occ. eigenvalues --   -0.56187  -0.55132  -0.53471  -0.53212  -0.53001
 Alpha  occ. eigenvalues --   -0.52784  -0.50716  -0.48742  -0.48739  -0.48697
 Alpha  occ. eigenvalues --   -0.47410  -0.46515  -0.46411  -0.44750  -0.44563
 Alpha  occ. eigenvalues --   -0.37248  -0.36302
 Alpha virt. eigenvalues --    0.05128   0.11335   0.16605   0.20010   0.22420
 Alpha virt. eigenvalues --    0.23807   0.25468   0.26287   0.26501   0.27408
 Alpha virt. eigenvalues --    0.29226   0.29931   0.31001   0.31054   0.31751

 Mulliken charges:
               1
     1  C   -0.298491
     2  C   -0.299978
     3  C   -0.480001
     4  H    0.147046
     5  H    0.151937
     6  H    0.152573
     7  H    0.156179
     8  H    0.162345
     9  H    0.146808
    10  H    0.158497
    11  C   -0.298924
    12  C   -0.300116
    13  C   -0.476121
    14  H    0.150078
    15  H    0.151321
    16  H    0.151803
    17  H    0.153074
    18  H    0.156045
    19  H    0.155650
    20  H    0.161943
    21  C   -0.174195
    22  C   -0.220738
    23  C   -0.170803
    24  C    0.158047
    25  C   -0.170737
    26  C   -0.219950
    27  H    0.233863
    28  H    0.222239
    29  H    0.275262
    30  H    0.275288
    31  H    0.223319
    32  N    0.488109
    33  O   -0.460644
    34  O   -0.460727
 Sum of Mulliken charges =  -0.00000

 Dipole moment (field-independent basis, Debye):
    X=              4.8264    Y=              2.4408    Z=             -0.7395  Tot=              5.4588
 Quadrupole moment (field-independent basis, Debye-Ang):
   XX=           -131.1814   YY=            -91.8416   ZZ=            -94.8791
   XY=            -12.5943   XZ=              3.5188   YZ=              0.9180

 Normal termination of Gaussian 16 at Thu May  6 04:03:01 2021.
