 Gaussian 16, Revision A.03,
 Gaussian 16:  EM64L-G16RevA.03 25-Dec-2016

 -------------
 #p 6-31g* mp2
 -------------

 ------------------------------------------------------
 Input file generated by CHIRIPA (05-May-2021 14:51:08)
 ------------------------------------------------------
 Symbolic Z-matrix:
 Charge =  0 Multiplicity = 1

                         Standard orientation:
 ---------------------------------------------------------------------
 Center     Atomic      Atomic             Coordinates (Angstroms)
 Number     Number       Type             X           Y           Z
 ---------------------------------------------------------------------
      1          6           0        3.672471    0.147427   -0.075789
      2          6           0        2.464901   -0.530551    0.572367
      3          6           0        1.158885    0.224584    0.323597
      4          1           0        3.760547    1.172218    0.310204
      5          1           0        3.498538    0.234627   -1.157241
      6          1           0        2.641657   -0.617694    1.652080
      7          1           0        2.379802   -1.553911    0.184930
      8          1           0        0.955597    0.299475   -0.749560
      9          1           0        1.218939    1.241012    0.725926
     10          1           0        0.308656   -0.277482    0.795722
     11          6           0        4.985492   -0.595663    0.164045
     12          6           0        6.193061    0.082315   -0.484111
     13          6           0        7.499078   -0.672820   -0.235341
     14          1           0        5.159425   -0.682863    1.245497
     15          1           0        4.897416   -1.620454   -0.221948
     16          1           0        6.278160    1.105675   -0.096673
     17          1           0        6.016305    0.169458   -1.563824
     18          1           0        7.439023   -1.689248   -0.637670
     19          1           0        7.702366   -0.747712    0.837816
     20          1           0        8.349306   -0.170754   -0.707466
     21          6           0       -3.972835    0.874348   -0.227957
     22          6           0       -2.562732    0.978828    0.354004
     23          6           0       -1.863117    2.285185   -0.022511
     24          1           0       -3.918521    0.960811   -1.321812
     25          1           0       -4.571119    1.726318    0.123607
     26          1           0       -1.967689    0.126169    0.002558
     27          1           0       -2.620388    0.891914    1.446588
     28          1           0       -2.432611    3.146168    0.342162
     29          1           0       -1.776204    2.376072   -1.110071
     30          1           0       -0.856583    2.338933    0.403939
     31          6           0       -4.685128   -0.426112    0.139700
     32          6           0       -6.095231   -0.530591   -0.442260
     33          6           0       -6.794845   -1.836948   -0.065744
     34          1           0       -4.086843   -1.278082   -0.211863
     35          1           0       -4.739441   -0.512574    1.233556
     36          1           0       -6.037574   -0.443678   -1.534843
     37          1           0       -6.690273    0.322067   -0.090815
     38          1           0       -6.881759   -1.927835    1.021816
     39          1           0       -6.225352   -2.697931   -0.430417
     40          1           0       -7.801379   -1.890696   -0.492195
 ---------------------------------------------------------------------

 SCF Done:  E(RHF) =  -470.732011340     A.U. after   11 cycles
 E2 =    -0.1583399657D+01 EUMP2 =    -0.47231541099648D+03

 The electronic state is 1-A.
 Alpha  occ. eigenvalues --  -11.21604 -11.21589 -11.21566 -11.21464 -11.21407
 Alpha  occ. eigenvalues --  -11.21348 -11.21344 -11.21274 -11.21073 -11.21053
 Alpha  occ. eigenvalues --  -11.21046 -11.20870  -1.08438  -1.08355  -1.03574
 Alpha  occ. eigenvalues --   -1.03414  -0.96070  -0.95823  -0.87072  -0.86861
 Alpha  occ. eigenvalues --   -0.79622  -0.79515  -0.78255  -0.78169  -0.65070
 Alpha  occ. eigenvalues --   -0.64991  -0.60972  -0.60843  -0.59526  -0.59141
 Alpha  occ. eigenvalues --   -0.57619  -0.57514  -0.55309  -0.55171  -0.52883
 Alpha  occ. eigenvalues --   -0.52599  -0.52417  -0.52076  -0.49929  -0.49838
 Alpha  occ. eigenvalues --   -0.48062  -0.47672  -0.46647  -0.46524  -0.45785
 Alpha  occ. eigenvalues --   -0.45732  -0.45697  -0.45637  -0.43739  -0.43662
 Alpha virt. eigenvalues --    0.22205   0.23001   0.23513   0.24845   0.26416
 Alpha virt. eigenvalues --    0.26563   0.27005   0.27240   0.27815   0.29179
 Alpha virt. eigenvalues --    0.29831   0.30742   0.31518   0.31853   0.32637

 Mulliken charges:
               1
     1  C   -0.298567
     2  C   -0.300595
     3  C   -0.478401
     4  H    0.149600
     5  H    0.149459
     6  H    0.151804
     7  H    0.151602
     8  H    0.155729
     9  H    0.155198
    10  H    0.165344
    11  C   -0.298217
    12  C   -0.299607
    13  C   -0.475699
    14  H    0.149518
    15  H    0.149608
    16  H    0.151953
    17  H    0.151910
    18  H    0.155159
    19  H    0.155184
    20  H    0.160265
    21  C   -0.297860
    22  C   -0.302202
    23  C   -0.479048
    24  H    0.149262
    25  H    0.149153
    26  H    0.155475
    27  H    0.150508
    28  H    0.153574
    29  H    0.153720
    30  H    0.167081
    31  C   -0.298194
    32  C   -0.299539
    33  C   -0.475658
    34  H    0.149103
    35  H    0.149375
    36  H    0.151840
    37  H    0.151902
    38  H    0.155087
    39  H    0.155045
    40  H    0.160128
 Sum of Mulliken charges =  -0.00000

 Dipole moment (field-independent basis, Debye):
    X=              0.0448    Y=             -0.0082    Z=              0.0054  Tot=              0.0458
 Quadrupole moment (field-independent basis, Debye-Ang):
   XX=            -86.4107   YY=            -85.3654   ZZ=            -83.3865
   XY=             -0.1312   XZ=             -0.1711   YZ=              1.0849

 Normal termination of Gaussian 16 at Wed May  5 18:06:17 2021.
