 Gaussian 16, Revision A.03,
 Gaussian 16:  EM64L-G16RevA.03 25-Dec-2016

 -------------
 #p 6-31g* mp2
 -------------

 ------------------------------------------------------
 Input file generated by CHIRIPA (05-May-2021 14:55:19)
 ------------------------------------------------------
 Symbolic Z-matrix:
 Charge =  0 Multiplicity = 1

                         Standard orientation:
 ---------------------------------------------------------------------
 Center     Atomic      Atomic             Coordinates (Angstroms)
 Number     Number       Type             X           Y           Z
 ---------------------------------------------------------------------
      1          6           0       -3.748938    1.303076   -1.364032
      2          6           0       -2.753360    0.484001   -1.906676
      3          6           0       -1.977455   -0.333443   -1.079449
      4          6           0       -2.225189   -0.306779    0.292122
      5          6           0       -3.209742    0.498340    0.862850
      6          6           0       -3.973556    1.307623    0.016565
      7          1           0       -4.346984    1.934916   -2.014044
      8          1           0       -2.576705    0.478423   -2.978500
      9          1           0       -1.200211   -0.977200   -1.473006
     10          1           0       -3.362507    0.482330    1.935148
     11          1           0       -4.746053    1.942714    0.440771
     12          7           0       -1.410173   -1.167851    1.177958
     13          8           0       -1.648127   -1.126149    2.383062
     14          8           0       -0.548842   -1.868156    0.650399
     15          6           0        2.740925   -0.337559   -0.639261
     16          6           0        3.148181   -1.746265   -0.206044
     17          6           0        2.581827   -2.832884   -1.120537
     18          1           0        1.644608   -0.268933   -0.657272
     19          1           0        3.081849   -0.165393   -1.669564
     20          1           0        2.807801   -1.915222    0.823620
     21          1           0        4.243658   -1.811489   -0.188879
     22          1           0        2.931679   -2.692279   -2.148367
     23          1           0        1.487664   -2.796602   -1.130115
     24          1           0        2.885287   -3.831981   -0.792552
     25          6           0        3.299430    0.759612    0.265180
     26          6           0        2.892173    2.168317   -0.168038
     27          6           0        3.458527    3.254935    0.746455
     28          1           0        2.958504    0.587445    1.295482
     29          1           0        4.395746    0.690985    0.283189
     30          1           0        1.796696    2.233540   -0.185204
     31          1           0        3.232554    2.337275   -1.197703
     32          1           0        4.552690    3.218655    0.756034
     33          1           0        3.108675    3.114331    1.774286
     34          1           0        3.155068    4.254034    0.418471
 ---------------------------------------------------------------------

 SCF Done:  E(RHF) =  -669.536420504     A.U. after   15 cycles
 E2 =    -0.2092426720D+01 EUMP2 =    -0.67162884722401D+03

 The electronic state is 1-A.
 Alpha  occ. eigenvalues --  -20.61057 -20.61049 -15.86073 -11.31350 -11.27903
 Alpha  occ. eigenvalues --  -11.27899 -11.27629 -11.26902 -11.26891 -11.21249
 Alpha  occ. eigenvalues --  -11.20784 -11.20776 -11.20628 -11.20539 -11.19998
 Alpha  occ. eigenvalues --   -1.60107  -1.39666  -1.19511  -1.08924  -1.07748
 Alpha  occ. eigenvalues --   -1.04899  -1.02821  -0.95775  -0.95290  -0.86322
 Alpha  occ. eigenvalues --   -0.86299  -0.82612  -0.78937  -0.77724  -0.77496
 Alpha  occ. eigenvalues --   -0.72313  -0.71416  -0.70619  -0.65179  -0.64903
 Alpha  occ. eigenvalues --   -0.64341  -0.62248  -0.60173  -0.58703  -0.56905
 Alpha  occ. eigenvalues --   -0.55404  -0.54556  -0.53232  -0.52990  -0.52008
 Alpha  occ. eigenvalues --   -0.51734  -0.49256  -0.49077  -0.49031  -0.47247
 Alpha  occ. eigenvalues --   -0.45949  -0.45322  -0.45013  -0.44750  -0.43095
 Alpha  occ. eigenvalues --   -0.37486  -0.36494
 Alpha virt. eigenvalues --    0.04824   0.11096   0.16320   0.20808   0.23401
 Alpha virt. eigenvalues --    0.24371   0.26193   0.27472   0.27901   0.28312
 Alpha virt. eigenvalues --    0.29095   0.30585   0.31547   0.32352   0.32576

 Mulliken charges:
               1
     1  C   -0.170364
     2  C   -0.218837
     3  C   -0.171559
     4  C    0.157393
     5  C   -0.170811
     6  C   -0.218478
     7  H    0.226325
     8  H    0.224643
     9  H    0.277785
    10  H    0.275857
    11  H    0.224070
    12  N    0.493826
    13  O   -0.458118
    14  O   -0.466049
    15  C   -0.300382
    16  C   -0.296311
    17  C   -0.481742
    18  H    0.151306
    19  H    0.142323
    20  H    0.164629
    21  H    0.145606
    22  H    0.144968
    23  H    0.169932
    24  H    0.158645
    25  C   -0.299005
    26  C   -0.298585
    27  C   -0.475338
    28  H    0.154040
    29  H    0.148078
    30  H    0.148486
    31  H    0.149115
    32  H    0.155069
    33  H    0.156337
    34  H    0.157147
 Sum of Mulliken charges =  -0.00000

 Dipole moment (field-independent basis, Debye):
    X=             -3.1331    Y=              2.9444    Z=             -2.9502  Tot=              5.2143
 Quadrupole moment (field-independent basis, Debye-Ang):
   XX=            -81.1694   YY=            -97.7751   ZZ=            -93.7329
   XY=             -7.4216   XZ=              3.7979   YZ=              2.5495

 Normal termination of Gaussian 16 at Thu May  6 07:39:34 2021.
