 Gaussian 16, Revision A.03,
 Gaussian 16:  EM64L-G16RevA.03 25-Dec-2016

 -------------
 #p 6-31g* mp2
 -------------

 ------------------------------------------------------
 Input file generated by CHIRIPA (05-May-2021 14:55:23)
 ------------------------------------------------------
 Symbolic Z-matrix:
 Charge =  0 Multiplicity = 1

                         Standard orientation:
 ---------------------------------------------------------------------
 Center     Atomic      Atomic             Coordinates (Angstroms)
 Number     Number       Type             X           Y           Z
 ---------------------------------------------------------------------
      1          6           0        2.162606    1.750341    0.209656
      2          6           0        1.946774    0.387589    0.439535
      3          6           0        2.983880   -0.534249    0.268729
      4          6           0        4.229793   -0.056450   -0.134628
      5          6           0        4.476105    1.295035   -0.371506
      6          6           0        3.424358    2.198924   -0.194418
      7          1           0        1.351270    2.459476    0.344781
      8          1           0        0.967917    0.036359    0.753415
      9          1           0        2.844385   -1.594769    0.439774
     10          1           0        5.462796    1.615078   -0.683648
     11          1           0        3.594868    3.256676   -0.373671
     12          7           0        5.335481   -1.022857   -0.318777
     13          8           0        6.423916   -0.576520   -0.674769
     14          8           0        5.092748   -2.208366   -0.103635
     15          6           0       -4.701794   -0.308159    0.701579
     16          6           0       -3.280182    0.208863    0.478659
     17          6           0       -2.333474   -0.152236    1.623712
     18          1           0       -5.090642    0.101642    1.643813
     19          1           0       -4.672512   -1.399743    0.823976
     20          1           0       -3.312295    1.298990    0.355340
     21          1           0       -2.894742   -0.202064   -0.463249
     22          1           0       -2.271756   -1.238607    1.744496
     23          1           0       -2.691681    0.270975    2.567736
     24          1           0       -1.322734    0.227071    1.443742
     25          6           0       -5.659967    0.044925   -0.434626
     26          6           0       -7.081579   -0.472098   -0.211706
     27          6           0       -8.028286   -0.111000   -1.356760
     28          1           0       -5.689247    1.136508   -0.557023
     29          1           0       -5.271118   -0.364877   -1.376860
     30          1           0       -7.467018   -0.061171    0.730202
     31          1           0       -7.049465   -1.562225   -0.088387
     32          1           0       -7.670079   -0.534210   -2.300783
     33          1           0       -8.090005    0.975371   -1.477544
     34          1           0       -9.039027   -0.490306   -1.176789
 ---------------------------------------------------------------------

 SCF Done:  E(RHF) =  -669.535492634     A.U. after   15 cycles
 E2 =    -0.2090666821D+01 EUMP2 =    -0.67162615945519D+03

 The electronic state is 1-A.
 Alpha  occ. eigenvalues --  -20.60734 -20.60729 -15.85787 -11.31148 -11.27718
 Alpha  occ. eigenvalues --  -11.27710 -11.27459 -11.26736 -11.26705 -11.22465
 Alpha  occ. eigenvalues --  -11.22184 -11.22044 -11.22026 -11.21895 -11.21427
 Alpha  occ. eigenvalues --   -1.59809  -1.39363  -1.19320  -1.09061  -1.08718
 Alpha  occ. eigenvalues --   -1.04723  -1.04199  -0.96661  -0.95553  -0.87682
 Alpha  occ. eigenvalues --   -0.86124  -0.82384  -0.80266  -0.78835  -0.77434
 Alpha  occ. eigenvalues --   -0.72006  -0.71132  -0.70431  -0.65683  -0.64973
 Alpha  occ. eigenvalues --   -0.64763  -0.62111  -0.61582  -0.60058  -0.58257
 Alpha  occ. eigenvalues --   -0.55926  -0.55229  -0.53472  -0.53120  -0.53053
 Alpha  occ. eigenvalues --   -0.52683  -0.50580  -0.48769  -0.48760  -0.48572
 Alpha  occ. eigenvalues --   -0.47281  -0.46386  -0.46284  -0.44769  -0.44448
 Alpha  occ. eigenvalues --   -0.37304  -0.36326
 Alpha virt. eigenvalues --    0.05103   0.11325   0.16597   0.19602   0.22465
 Alpha virt. eigenvalues --    0.23747   0.25800   0.26072   0.26916   0.28143
 Alpha virt. eigenvalues --    0.28391   0.30288   0.30787   0.31466   0.31849

 Mulliken charges:
               1
     1  C   -0.173038
     2  C   -0.226319
     3  C   -0.172621
     4  C    0.159037
     5  C   -0.171330
     6  C   -0.218602
     7  H    0.225165
     8  H    0.234793
     9  H    0.276253
    10  H    0.275463
    11  H    0.223265
    12  N    0.487940
    13  O   -0.460599
    14  O   -0.460438
    15  C   -0.299177
    16  C   -0.299807
    17  C   -0.480331
    18  H    0.151015
    19  H    0.151446
    20  H    0.151494
    21  H    0.153125
    22  H    0.159251
    23  H    0.160304
    24  H    0.150118
    25  C   -0.298777
    26  C   -0.300171
    27  C   -0.476049
    28  H    0.149628
    29  H    0.150636
    30  H    0.152493
    31  H    0.152966
    32  H    0.155868
    33  H    0.155340
    34  H    0.161657
 Sum of Mulliken charges =  -0.00000

 Dipole moment (field-independent basis, Debye):
    X=             -4.1301    Y=              3.3818    Z=              0.6524  Tot=              5.3778
 Quadrupole moment (field-independent basis, Debye-Ang):
   XX=           -125.9830   YY=            -91.8553   ZZ=            -95.7069
   XY=             17.3895   XZ=              1.5639   YZ=             -1.1078

 Normal termination of Gaussian 16 at Thu May  6 03:06:51 2021.
