 Gaussian 16, Revision A.03,
 Gaussian 16:  EM64L-G16RevA.03 25-Dec-2016

 -------------
 #p 6-31g* mp2
 -------------

 ------------------------------------------------------
 Input file generated by CHIRIPA (05-May-2021 14:51:11)
 ------------------------------------------------------
 Symbolic Z-matrix:
 Charge =  0 Multiplicity = 1

                         Standard orientation:
 ---------------------------------------------------------------------
 Center     Atomic      Atomic             Coordinates (Angstroms)
 Number     Number       Type             X           Y           Z
 ---------------------------------------------------------------------
      1          6           0        3.564568   -0.503481    0.090906
      2          6           0        4.079546   -1.588337   -0.855598
      3          6           0        4.016951   -2.987129   -0.241386
      4          1           0        4.153436   -0.525044    1.018114
      5          1           0        2.528197   -0.734877    0.373373
      6          1           0        5.114175   -1.354227   -1.137290
      7          1           0        3.489508   -1.564063   -1.780737
      8          1           0        2.986669   -3.245743    0.023641
      9          1           0        4.620568   -3.034714    0.670745
     10          1           0        4.389825   -3.747213   -0.934999
     11          6           0        3.620799    0.900375   -0.508888
     12          6           0        3.105821    1.985231    0.437617
     13          6           0        3.168416    3.384023   -0.176595
     14          1           0        4.657169    1.131771   -0.791355
     15          1           0        3.031931    0.921938   -1.436096
     16          1           0        3.695859    1.960957    1.362755
     17          1           0        2.071192    1.751121    0.719308
     18          1           0        2.564799    3.431609   -1.088726
     19          1           0        4.198698    3.642637   -0.441623
     20          1           0        2.795542    4.144107    0.517017
     21          6           0       -3.112901   -0.274956    0.798387
     22          6           0       -1.659490   -0.487279    0.373531
     23          6           0       -0.711758   -0.638637    1.563779
     24          1           0       -3.175472    0.618454    1.434665
     25          1           0       -3.434045   -1.123384    1.418410
     26          1           0       -1.341617    0.360627   -0.246653
     27          1           0       -1.600402   -1.380177   -0.261966
     28          1           0       -1.001378   -1.495765    2.180263
     29          1           0       -0.741123    0.254929    2.195664
     30          1           0        0.321926   -0.789430    1.237254
     31          6           0       -4.072465   -0.121938   -0.380405
     32          6           0       -5.525877    0.090385    0.044450
     33          6           0       -6.473609    0.241743   -1.145797
     34          1           0       -3.751322    0.726490   -1.000429
     35          1           0       -4.009894   -1.015348   -1.016683
     36          1           0       -5.584966    0.983283    0.679947
     37          1           0       -5.843750   -0.757520    0.664635
     38          1           0       -6.444244   -0.651823   -1.777682
     39          1           0       -6.183989    1.098872   -1.762281
     40          1           0       -7.507293    0.392537   -0.819273
 ---------------------------------------------------------------------

 SCF Done:  E(RHF) =  -470.733348815     A.U. after   11 cycles
 E2 =    -0.1582824494D+01 EUMP2 =    -0.47231617330945D+03

 The electronic state is 1-A.
 Alpha  occ. eigenvalues --  -11.21659 -11.21623 -11.21602 -11.21584 -11.21439
 Alpha  occ. eigenvalues --  -11.21403 -11.21379 -11.21343 -11.21114 -11.21089
 Alpha  occ. eigenvalues --  -11.21070 -11.21068  -1.08468  -1.08428  -1.03568
 Alpha  occ. eigenvalues --   -1.03525  -0.96025  -0.95971  -0.87040  -0.86988
 Alpha  occ. eigenvalues --   -0.79633  -0.79584  -0.78279  -0.78245  -0.65109
 Alpha  occ. eigenvalues --   -0.65066  -0.60982  -0.60904  -0.59406  -0.59342
 Alpha  occ. eigenvalues --   -0.57688  -0.57539  -0.55299  -0.55269  -0.52774
 Alpha  occ. eigenvalues --   -0.52651  -0.52474  -0.52351  -0.49959  -0.49913
 Alpha  occ. eigenvalues --   -0.47986  -0.47883  -0.46668  -0.46612  -0.45825
 Alpha  occ. eigenvalues --   -0.45776  -0.45744  -0.45695  -0.43802  -0.43745
 Alpha virt. eigenvalues --    0.20658   0.23096   0.24110   0.24136   0.26081
 Alpha virt. eigenvalues --    0.26622   0.27098   0.27496   0.27947   0.28988
 Alpha virt. eigenvalues --    0.30792   0.31495   0.31770   0.31879   0.31970

 Mulliken charges:
               1
     1  C   -0.308054
     2  C   -0.298986
     3  C   -0.475802
     4  H    0.149913
     5  H    0.158066
     6  H    0.152041
     7  H    0.151898
     8  H    0.155023
     9  H    0.155313
    10  H    0.160271
    11  C   -0.297603
    12  C   -0.301576
    13  C   -0.475696
    14  H    0.149590
    15  H    0.149462
    16  H    0.151985
    17  H    0.153987
    18  H    0.154974
    19  H    0.155216
    20  H    0.160138
    21  C   -0.298477
    22  C   -0.299250
    23  C   -0.485111
    24  H    0.149846
    25  H    0.149753
    26  H    0.151594
    27  H    0.151782
    28  H    0.155723
    29  H    0.155809
    30  H    0.167906
    31  C   -0.298282
    32  C   -0.299692
    33  C   -0.475731
    34  H    0.149524
    35  H    0.149664
    36  H    0.152024
    37  H    0.152000
    38  H    0.155199
    39  H    0.155209
    40  H    0.160350
 Sum of Mulliken charges =  -0.00000

 Dipole moment (field-independent basis, Debye):
    X=             -0.0079    Y=             -0.0049    Z=              0.0093  Tot=              0.0131
 Quadrupole moment (field-independent basis, Debye-Ang):
   XX=            -84.4806   YY=            -84.9118   ZZ=            -85.3112
   XY=              0.3859   XZ=             -0.2446   YZ=              0.4807

 Normal termination of Gaussian 16 at Thu May  6 02:14:12 2021.
