 Gaussian 16, Revision A.03,
 Gaussian 16:  EM64L-G16RevA.03 25-Dec-2016

 -------------
 #p 6-31g* mp2
 -------------

 ------------------------------------------------------
 Input file generated by CHIRIPA (05-May-2021 14:53:11)
 ------------------------------------------------------
 Symbolic Z-matrix:
 Charge =  0 Multiplicity = 1

                         Standard orientation:
 ---------------------------------------------------------------------
 Center     Atomic      Atomic             Coordinates (Angstroms)
 Number     Number       Type             X           Y           Z
 ---------------------------------------------------------------------
      1          6           0        4.262065    0.116808   -0.197489
      2          6           0        5.578523    0.212287    0.574396
      3          6           0        6.480786    1.337748    0.067392
      4          1           0        4.479619   -0.037629   -1.263211
      5          1           0        3.730841    1.075766   -0.122683
      6          1           0        6.106460   -0.747015    0.499312
      7          1           0        5.357808    0.366324    1.638432
      8          1           0        5.977123    2.305608    0.157790
      9          1           0        6.730029    1.185943   -0.987802
     10          1           0        7.416340    1.388000    0.633142
     11          6           0        3.349324   -1.003636    0.297725
     12          6           0        2.032865   -1.099114   -0.474160
     13          6           0        1.130603   -2.224576    0.032845
     14          1           0        3.880548   -1.962594    0.222920
     15          1           0        3.131770   -0.849198    1.363448
     16          1           0        2.253581   -1.253151   -1.538196
     17          1           0        1.504928   -0.139812   -0.399075
     18          1           0        0.881360   -2.072770    1.088039
     19          1           0        1.634266   -3.192435   -0.057554
     20          1           0        0.195049   -2.274828   -0.532905
     21          6           0       -2.256877    2.762360   -0.165740
     22          6           0       -1.430667    1.759242   -0.683093
     23          6           0       -1.817414    0.417306   -0.618428
     24          6           0       -3.042450    0.112853   -0.026917
     25          6           0       -3.887617    1.089585    0.497465
     26          6           0       -3.480557    2.424925    0.421852
     27          1           0       -1.948552    3.802247   -0.220226
     28          1           0       -0.479799    2.018363   -1.139987
     29          1           0       -1.197198   -0.379303   -1.011065
     30          1           0       -4.829785    0.800346    0.946996
     31          1           0       -4.124236    3.201860    0.824461
     32          7           0       -3.462634   -1.304304    0.047336
     33          8           0       -4.546707   -1.546411    0.573459
     34          8           0       -2.699945   -2.146129   -0.421994
 ---------------------------------------------------------------------

 SCF Done:  E(RHF) =  -669.535485714     A.U. after   15 cycles
 E2 =    -0.2092431868D+01 EUMP2 =    -0.67162791758266D+03

 The electronic state is 1-A.
 Alpha  occ. eigenvalues --  -20.60829 -20.60824 -15.85869 -11.31194 -11.27777
 Alpha  occ. eigenvalues --  -11.27735 -11.27515 -11.26785 -11.26766 -11.21892
 Alpha  occ. eigenvalues --  -11.21833 -11.21673 -11.21579 -11.21313 -11.20860
 Alpha  occ. eigenvalues --   -1.59895  -1.39451  -1.19374  -1.08777  -1.08666
 Alpha  occ. eigenvalues --   -1.04775  -1.03715  -0.96127  -0.95610  -0.87121
 Alpha  occ. eigenvalues --   -0.86170  -0.82454  -0.79782  -0.78504  -0.77508
 Alpha  occ. eigenvalues --   -0.72099  -0.71210  -0.70495  -0.65307  -0.65027
 Alpha  occ. eigenvalues --   -0.64789  -0.62210  -0.61083  -0.59458  -0.57742
 Alpha  occ. eigenvalues --   -0.55417  -0.55251  -0.53100  -0.52997  -0.52713
 Alpha  occ. eigenvalues --   -0.52433  -0.50047  -0.48862  -0.48842  -0.48073
 Alpha  occ. eigenvalues --   -0.46839  -0.46029  -0.45966  -0.44869  -0.43915
 Alpha  occ. eigenvalues --   -0.37357  -0.36364
 Alpha virt. eigenvalues --    0.04997   0.11262   0.16440   0.20240   0.22806
 Alpha virt. eigenvalues --    0.23979   0.25521   0.26544   0.26919   0.28173
 Alpha virt. eigenvalues --    0.29211   0.30052   0.31473   0.31654   0.32266

 Mulliken charges:
               1
     1  C   -0.297653
     2  C   -0.299827
     3  C   -0.475677
     4  H    0.149653
     5  H    0.144904
     6  H    0.153522
     7  H    0.152463
     8  H    0.153588
     9  H    0.155383
    10  H    0.161276
    11  C   -0.297511
    12  C   -0.304485
    13  C   -0.487258
    14  H    0.152475
    15  H    0.150999
    16  H    0.151821
    17  H    0.140202
    18  H    0.157054
    19  H    0.158315
    20  H    0.178327
    21  C   -0.170475
    22  C   -0.223074
    23  C   -0.170610
    24  C    0.155841
    25  C   -0.170233
    26  C   -0.218987
    27  H    0.225681
    28  H    0.225079
    29  H    0.283890
    30  H    0.275591
    31  H    0.223474
    32  N    0.489635
    33  O   -0.459771
    34  O   -0.463611
 Sum of Mulliken charges =  -0.00000

 Dipole moment (field-independent basis, Debye):
    X=              1.4507    Y=              4.8650    Z=             -0.2218  Tot=              5.0816
 Quadrupole moment (field-independent basis, Debye-Ang):
   XX=           -100.5980   YY=            -93.6267   ZZ=            -94.0614
   XY=            -17.5619   XZ=             -1.5137   YZ=              1.1916

 Normal termination of Gaussian 16 at Thu May  6 00:53:06 2021.
