 Gaussian 16, Revision A.03,
 Gaussian 16:  EM64L-G16RevA.03 25-Dec-2016

 -------------
 #p 6-31g* mp2
 -------------

 ------------------------------------------------------
 Input file generated by CHIRIPA (05-May-2021 14:55:25)
 ------------------------------------------------------
 Symbolic Z-matrix:
 Charge =  0 Multiplicity = 1

                         Standard orientation:
 ---------------------------------------------------------------------
 Center     Atomic      Atomic             Coordinates (Angstroms)
 Number     Number       Type             X           Y           Z
 ---------------------------------------------------------------------
      1          6           0        2.156817   -2.056206   -1.448232
      2          6           0        1.075201   -1.381021   -0.873120
      3          6           0        1.269324   -0.168667   -0.204492
      4          6           0        2.564271    0.342010   -0.129584
      5          6           0        3.662191   -0.306984   -0.692317
      6          6           0        3.444590   -1.517981   -1.356157
      7          1           0        1.996899   -2.997464   -1.965779
      8          1           0        0.073999   -1.796649   -0.943070
      9          1           0        0.449867    0.374957    0.249799
     10          1           0        4.648635    0.132252   -0.606187
     11          1           0        4.286462   -2.040145   -1.801848
     12          7           0        2.782208    1.624756    0.575728
     13          8           0        3.932855    2.053626    0.627876
     14          8           0        1.798253    2.177014    1.063049
     15          6           0       -2.864983   -0.801998    0.520934
     16          6           0       -2.247474   -0.716733    1.917142
     17          6           0       -1.508049   -1.994360    2.315532
     18          1           0       -3.557076   -1.654421    0.484476
     19          1           0       -2.072407   -1.011365   -0.210765
     20          1           0       -3.040778   -0.506217    2.645817
     21          1           0       -1.556915    0.135701    1.950337
     22          1           0       -0.697108   -2.205728    1.611049
     23          1           0       -2.189402   -2.851293    2.310479
     24          1           0       -1.074460   -1.911581    3.317035
     25          6           0       -3.607599    0.467668    0.108386
     26          6           0       -4.225109    0.382402   -1.287821
     27          6           0       -4.964532    1.660029   -1.686212
     28          1           0       -4.400175    0.677034    0.840086
     29          1           0       -2.915506    1.320090    0.144845
     30          1           0       -4.915668   -0.470031   -1.321018
     31          1           0       -3.431804    0.171886   -2.016497
     32          1           0       -4.283181    2.516963   -1.681158
     33          1           0       -5.775475    1.871397   -0.981728
     34          1           0       -5.398122    1.577251   -2.687715
 ---------------------------------------------------------------------

 SCF Done:  E(RHF) =  -669.535052551     A.U. after   15 cycles
 E2 =    -0.2093213978D+01 EUMP2 =    -0.67162826652927D+03

 The electronic state is 1-A.
 Alpha  occ. eigenvalues --  -20.60794 -20.60788 -15.85846 -11.31206 -11.27786
 Alpha  occ. eigenvalues --  -11.27775 -11.27520 -11.26793 -11.26762 -11.22167
 Alpha  occ. eigenvalues --  -11.22104 -11.22008 -11.21826 -11.21565 -11.21315
 Alpha  occ. eigenvalues --   -1.59868  -1.39422  -1.19386  -1.08986  -1.08777
 Alpha  occ. eigenvalues --   -1.04798  -1.03987  -0.96442  -0.95613  -0.87454
 Alpha  occ. eigenvalues --   -0.86189  -0.82458  -0.80054  -0.78804  -0.77500
 Alpha  occ. eigenvalues --   -0.72066  -0.71190  -0.70503  -0.65704  -0.65019
 Alpha  occ. eigenvalues --   -0.64801  -0.62250  -0.61235  -0.59799  -0.58048
 Alpha  occ. eigenvalues --   -0.55768  -0.55283  -0.53135  -0.53101  -0.52920
 Alpha  occ. eigenvalues --   -0.52816  -0.50392  -0.48827  -0.48820  -0.48350
 Alpha  occ. eigenvalues --   -0.47086  -0.46310  -0.46240  -0.44828  -0.44267
 Alpha  occ. eigenvalues --   -0.37361  -0.36370
 Alpha virt. eigenvalues --    0.05010   0.11222   0.16381   0.18742   0.22851
 Alpha virt. eigenvalues --    0.23947   0.24930   0.25558   0.27496   0.28384
 Alpha virt. eigenvalues --    0.30081   0.30149   0.31396   0.31497   0.31893

 Mulliken charges:
               1
     1  C   -0.171289
     2  C   -0.225861
     3  C   -0.175191
     4  C    0.158004
     5  C   -0.170107
     6  C   -0.218826
     7  H    0.226367
     8  H    0.230622
     9  H    0.281552
    10  H    0.275761
    11  H    0.223619
    12  N    0.487922
    13  O   -0.460207
    14  O   -0.461067
    15  C   -0.303954
    16  C   -0.306534
    17  C   -0.479291
    18  H    0.152654
    19  H    0.138809
    20  H    0.157893
    21  H    0.157890
    22  H    0.150835
    23  H    0.155419
    24  H    0.166419
    25  C   -0.299528
    26  C   -0.299653
    27  C   -0.476370
    28  H    0.153523
    29  H    0.153882
    30  H    0.151907
    31  H    0.149081
    32  H    0.158243
    33  H    0.156598
    34  H    0.160880
 Sum of Mulliken charges =  -0.00000

 Dipole moment (field-independent basis, Debye):
    X=             -0.8771    Y=             -4.4391    Z=             -2.4045  Tot=              5.1241
 Quadrupole moment (field-independent basis, Debye-Ang):
   XX=            -92.7499   YY=            -99.1036   ZZ=            -94.3898
   XY=            -11.7734   XZ=             -8.3511   YZ=              0.0564

 Normal termination of Gaussian 16 at Thu May  6 09:36:08 2021.
