 Gaussian 16, Revision A.03,
 Gaussian 16:  EM64L-G16RevA.03 25-Dec-2016

 -------------
 #p 6-31g* mp2
 -------------

 ------------------------------------------------------
 Input file generated by CHIRIPA (05-May-2021 14:53:18)
 ------------------------------------------------------
 Symbolic Z-matrix:
 Charge =  0 Multiplicity = 1

                         Standard orientation:
 ---------------------------------------------------------------------
 Center     Atomic      Atomic             Coordinates (Angstroms)
 Number     Number       Type             X           Y           Z
 ---------------------------------------------------------------------
      1          6           0        3.476060   -0.481110   -0.383173
      2          6           0        3.814954   -1.772173    0.362677
      3          6           0        3.587531   -3.022837   -0.486977
      4          1           0        2.427895   -0.518385   -0.710139
      5          1           0        4.086061   -0.421834   -1.295193
      6          1           0        3.205491   -1.828322    1.273731
      7          1           0        4.862379   -1.731738    0.688072
      8          1           0        4.206988   -2.993506   -1.389205
      9          1           0        2.540686   -3.090638   -0.800219
     10          1           0        3.836002   -3.934270    0.065664
     11          6           0        3.698280    0.777837    0.453128
     12          6           0        3.359386    2.068900   -0.292722
     13          6           0        3.586808    3.319564    0.556933
     14          1           0        3.088279    0.718561    1.365148
     15          1           0        4.746444    0.815112    0.780094
     16          1           0        2.311961    2.028465   -0.618117
     17          1           0        3.968848    2.125049   -1.203776
     18          1           0        4.633653    3.387366    0.870174
     19          1           0        2.967352    3.290233    1.459160
     20          1           0        3.338337    4.230997    0.004291
     21          6           0       -5.219952    0.602276    0.049782
     22          6           0       -4.252040    1.458615   -0.485335
     23          6           0       -2.909608    1.071140   -0.533151
     24          6           0       -2.568763   -0.185340   -0.034781
     25          6           0       -3.509918   -1.060964    0.504480
     26          6           0       -4.846460   -0.652569    0.542115
     27          1           0       -6.260497    0.911402    0.082973
     28          1           0       -4.539206    2.433722   -0.868413
     29          1           0       -2.139812    1.714296   -0.942030
     30          1           0       -3.193177   -2.026910    0.878703
     31          1           0       -5.596007   -1.319687    0.958259
     32          7           0       -1.150709   -0.606617   -0.080011
     33          8           0       -0.876157   -1.718718    0.365510
     34          8           0       -0.340640    0.183264   -0.560129
 ---------------------------------------------------------------------

 SCF Done:  E(RHF) =  -669.536994881     A.U. after   15 cycles
 E2 =    -0.2091782097D+01 EUMP2 =    -0.67162877697827D+03

 The electronic state is 1-A.
 Alpha  occ. eigenvalues --  -20.61200 -20.61185 -15.86196 -11.31433 -11.27981
 Alpha  occ. eigenvalues --  -11.27977 -11.27703 -11.26968 -11.26958 -11.20282
 Alpha  occ. eigenvalues --  -11.20124 -11.20035 -11.19928 -11.19598 -11.19492
 Alpha  occ. eigenvalues --   -1.60234  -1.39793  -1.19589  -1.09011  -1.06893
 Alpha  occ. eigenvalues --   -1.04971  -1.02141  -0.95866  -0.94602  -0.86376
 Alpha  occ. eigenvalues --   -0.85629  -0.82703  -0.78216  -0.77766  -0.76680
 Alpha  occ. eigenvalues --   -0.72413  -0.71535  -0.70697  -0.65247  -0.64975
 Alpha  occ. eigenvalues --   -0.63491  -0.62318  -0.59526  -0.58003  -0.56223
 Alpha  occ. eigenvalues --   -0.55480  -0.53882  -0.53308  -0.53061  -0.51369
 Alpha  occ. eigenvalues --   -0.51052  -0.49239  -0.49171  -0.48493  -0.46547
 Alpha  occ. eigenvalues --   -0.45250  -0.45187  -0.44261  -0.43976  -0.42347
 Alpha  occ. eigenvalues --   -0.37563  -0.36567
 Alpha virt. eigenvalues --    0.04757   0.11090   0.16271   0.21206   0.24370
 Alpha virt. eigenvalues --    0.25615   0.27155   0.27809   0.28323   0.29120
 Alpha virt. eigenvalues --    0.29332   0.30876   0.32266   0.32708   0.32920

 Mulliken charges:
               1
     1  C   -0.311639
     2  C   -0.296639
     3  C   -0.477145
     4  H    0.181772
     5  H    0.140126
     6  H    0.154312
     7  H    0.143511
     8  H    0.148975
     9  H    0.165560
    10  H    0.153807
    11  C   -0.294252
    12  C   -0.303442
    13  C   -0.474658
    14  H    0.149172
    15  H    0.142111
    16  H    0.164656
    17  H    0.146891
    18  H    0.152023
    19  H    0.152888
    20  H    0.154604
    21  C   -0.170264
    22  C   -0.218552
    23  C   -0.170493
    24  C    0.157435
    25  C   -0.170423
    26  C   -0.218617
    27  H    0.226544
    28  H    0.224395
    29  H    0.275958
    30  H    0.276158
    31  H    0.224326
    32  N    0.491109
    33  O   -0.458593
    34  O   -0.461618
 Sum of Mulliken charges =  -0.00000

 Dipole moment (field-independent basis, Debye):
    X=             -5.5659    Y=              1.4089    Z=              0.1179  Tot=              5.7426
 Quadrupole moment (field-independent basis, Debye-Ang):
   XX=            -70.3227   YY=            -93.4997   ZZ=            -94.8920
   XY=             -1.9013   XZ=             -1.3490   YZ=             -2.9083

 Normal termination of Gaussian 16 at Thu May  6 09:09:37 2021.
