 Gaussian 16, Revision A.03,
 Gaussian 16:  EM64L-G16RevA.03 25-Dec-2016

 -------------
 #p 6-31g* mp2
 -------------

 ------------------------------------------------------
 Input file generated by CHIRIPA (05-May-2021 14:51:13)
 ------------------------------------------------------
 Symbolic Z-matrix:
 Charge =  0 Multiplicity = 1

                         Standard orientation:
 ---------------------------------------------------------------------
 Center     Atomic      Atomic             Coordinates (Angstroms)
 Number     Number       Type             X           Y           Z
 ---------------------------------------------------------------------
      1          6           0        3.511684   -0.361332   -0.151132
      2          6           0        4.385251    0.876234   -0.359212
      3          6           0        5.557424    0.619872   -1.306884
      4          1           0        4.131856   -1.178024    0.243007
      5          1           0        3.130263   -0.700172   -1.124323
      6          1           0        4.763788    1.213457    0.614239
      7          1           0        3.762887    1.690132   -0.752721
      8          1           0        5.195444    0.305196   -2.291034
      9          1           0        6.202032   -0.174188   -0.916308
     10          1           0        6.168711    1.517701   -1.441391
     11          6           0        2.335682   -0.120841    0.793809
     12          6           0        1.462116   -1.358407    1.001888
     13          6           0        0.289942   -1.102045    1.949561
     14          1           0        2.717104    0.217999    1.766999
     15          1           0        1.715510    0.695851    0.399670
     16          1           0        2.084479   -2.172305    1.395397
     17          1           0        1.083578   -1.695630    0.028438
     18          1           0       -0.354666   -0.307985    1.558984
     19          1           0        0.651922   -0.787369    2.933711
     20          1           0       -0.321345   -1.999874    2.084067
     21          6           0       -2.650172   -0.462774   -0.206432
     22          6           0       -3.386146   -1.537519   -1.007214
     23          6           0       -2.827470   -2.940316   -0.766726
     24          1           0       -1.583750   -0.484369   -0.469537
     25          1           0       -2.713114   -0.705077    0.863485
     26          1           0       -3.323016   -1.292522   -2.075206
     27          1           0       -4.450971   -1.513235   -0.742313
     28          1           0       -2.905073   -3.209680    0.291585
     29          1           0       -1.770709   -2.987714   -1.048881
     30          1           0       -3.368149   -3.693032   -1.348915
     31          6           0       -3.197195    0.944947   -0.436244
     32          6           0       -2.461221    2.019692    0.364538
     33          6           0       -3.019896    3.422489    0.124049
     34          1           0       -3.134252    1.187250   -1.506161
     35          1           0       -4.263616    0.966542   -0.173140
     36          1           0       -1.396395    1.995408    0.099637
     37          1           0       -2.524350    1.774695    1.432529
     38          1           0       -4.076656    3.469886    0.406204
     39          1           0       -2.942292    3.691853   -0.934262
     40          1           0       -2.479217    4.175205    0.706239
 ---------------------------------------------------------------------

 SCF Done:  E(RHF) =  -470.731975203     A.U. after   11 cycles
 E2 =    -0.1584481644D+01 EUMP2 =    -0.47231645684670D+03

 The electronic state is 1-A.
 Alpha  occ. eigenvalues --  -11.21673 -11.21606 -11.21602 -11.21551 -11.21417
 Alpha  occ. eigenvalues --  -11.21396 -11.21336 -11.21326 -11.21117 -11.21089
 Alpha  occ. eigenvalues --  -11.21073 -11.20836  -1.08490  -1.08388  -1.03570
 Alpha  occ. eigenvalues --   -1.03480  -0.96041  -0.95902  -0.87054  -0.86927
 Alpha  occ. eigenvalues --   -0.79642  -0.79574  -0.78345  -0.78161  -0.65168
 Alpha  occ. eigenvalues --   -0.64976  -0.60986  -0.60886  -0.59443  -0.59237
 Alpha  occ. eigenvalues --   -0.57707  -0.57480  -0.55313  -0.55224  -0.52728
 Alpha  occ. eigenvalues --   -0.52626  -0.52470  -0.52294  -0.49956  -0.49901
 Alpha  occ. eigenvalues --   -0.47949  -0.47885  -0.46777  -0.46611  -0.45938
 Alpha  occ. eigenvalues --   -0.45763  -0.45670  -0.45304  -0.43807  -0.43732
 Alpha virt. eigenvalues --    0.20367   0.22957   0.23315   0.24067   0.25521
 Alpha virt. eigenvalues --    0.26072   0.26847   0.27799   0.28182   0.29607
 Alpha virt. eigenvalues --    0.30101   0.31075   0.31718   0.32077   0.32525

 Mulliken charges:
               1
     1  C   -0.298189
     2  C   -0.299597
     3  C   -0.475684
     4  H    0.149858
     5  H    0.149044
     6  H    0.152035
     7  H    0.151695
     8  H    0.155068
     9  H    0.155243
    10  H    0.160245
    11  C   -0.298978
    12  C   -0.301397
    13  C   -0.481466
    14  H    0.149941
    15  H    0.149115
    16  H    0.151956
    17  H    0.151135
    18  H    0.165599
    19  H    0.153099
    20  H    0.159472
    21  C   -0.303037
    22  C   -0.299189
    23  C   -0.476512
    24  H    0.152854
    25  H    0.153340
    26  H    0.151465
    27  H    0.151847
    28  H    0.155372
    29  H    0.155630
    30  H    0.160342
    31  C   -0.297630
    32  C   -0.302477
    33  C   -0.475619
    34  H    0.149153
    35  H    0.149771
    36  H    0.151791
    37  H    0.153259
    38  H    0.155556
    39  H    0.155266
    40  H    0.160621
 Sum of Mulliken charges =  -0.00000

 Dipole moment (field-independent basis, Debye):
    X=             -0.0552    Y=              0.0168    Z=              0.0047  Tot=              0.0579
 Quadrupole moment (field-independent basis, Debye-Ang):
   XX=            -84.8387   YY=            -85.8753   ZZ=            -84.0789
   XY=              0.2552   XZ=              0.4479   YZ=             -0.2376

 Normal termination of Gaussian 16 at Wed May  5 23:12:02 2021.
