 Gaussian 16, Revision A.03,
 Gaussian 16:  EM64L-G16RevA.03 25-Dec-2016

 -------------
 #p 6-31g* mp2
 -------------

 ------------------------------------------------------
 Input file generated by CHIRIPA (05-May-2021 14:51:12)
 ------------------------------------------------------
 Symbolic Z-matrix:
 Charge =  0 Multiplicity = 1

                         Standard orientation:
 ---------------------------------------------------------------------
 Center     Atomic      Atomic             Coordinates (Angstroms)
 Number     Number       Type             X           Y           Z
 ---------------------------------------------------------------------
      1          6           0        3.112743   -0.636372    0.643215
      2          6           0        1.627726   -0.482193    0.313159
      3          6           0        0.724388   -1.245186    1.282498
      4          1           0        3.376031   -1.702881    0.629703
      5          1           0        3.292009   -0.283125    1.668142
      6          1           0        1.451557   -0.834339   -0.711328
      7          1           0        1.367986    0.584086    0.327270
      8          1           0        0.870914   -0.888770    2.307242
      9          1           0        0.954960   -2.315254    1.262742
     10          1           0       -0.332855   -1.121194    1.028089
     11          6           0        4.028525    0.120659   -0.316981
     12          6           0        5.513543   -0.033520    0.013075
     13          6           0        6.416880    0.729472   -0.956264
     14          1           0        3.849259   -0.232588   -1.341908
     15          1           0        3.765237    1.187168   -0.303469
     16          1           0        5.773282   -1.099799   -0.001036
     17          1           0        5.689711    0.318626    1.037562
     18          1           0        6.186309    1.799541   -0.936508
     19          1           0        6.270355    0.373057   -1.981008
     20          1           0        7.474123    0.605480   -0.701856
     21          6           0       -3.291494    0.849726    0.230841
     22          6           0       -3.619218    2.204806   -0.397125
     23          6           0       -3.054024    3.379098    0.402493
     24          1           0       -3.687519    0.822072    1.255216
     25          1           0       -2.200753    0.746391    0.314514
     26          1           0       -4.708975    2.304976   -0.480859
     27          1           0       -3.222534    2.229167   -1.420190
     28          1           0       -1.964023    3.306695    0.475004
     29          1           0       -3.458910    3.382935    1.419673
     30          1           0       -3.300038    4.338022   -0.064200
     31          6           0       -3.849775   -0.334014   -0.557074
     32          6           0       -3.522051   -1.689093    0.070891
     33          6           0       -4.087244   -2.863384   -0.728727
     34          1           0       -4.940515   -0.230677   -0.640748
     35          1           0       -3.453749   -0.306358   -1.581450
     36          1           0       -3.918735   -1.713454    1.093957
     37          1           0       -2.432293   -1.789262    0.154624
     38          1           0       -3.682358   -2.867221   -1.745906
     39          1           0       -5.177246   -2.790982   -0.801237
     40          1           0       -3.841230   -3.822309   -0.262035
 ---------------------------------------------------------------------

 SCF Done:  E(RHF) =  -470.733203478     A.U. after   11 cycles
 E2 =    -0.1582922798D+01 EUMP2 =    -0.47231612627596D+03

 The electronic state is 1-A.
 Alpha  occ. eigenvalues --  -11.21647 -11.21618 -11.21606 -11.21588 -11.21430
 Alpha  occ. eigenvalues --  -11.21409 -11.21370 -11.21349 -11.21084 -11.21076
 Alpha  occ. eigenvalues --  -11.21071 -11.21065  -1.08461  -1.08432  -1.03560
 Alpha  occ. eigenvalues --   -1.03526  -0.96005  -0.95978  -0.87028  -0.86989
 Alpha  occ. eigenvalues --   -0.79650  -0.79567  -0.78269  -0.78253  -0.65088
 Alpha  occ. eigenvalues --   -0.65082  -0.60979  -0.60915  -0.59449  -0.59279
 Alpha  occ. eigenvalues --   -0.57630  -0.57581  -0.55299  -0.55251  -0.52793
 Alpha  occ. eigenvalues --   -0.52621  -0.52428  -0.52400  -0.49954  -0.49907
 Alpha  occ. eigenvalues --   -0.48013  -0.47857  -0.46655  -0.46622  -0.45812
 Alpha  occ. eigenvalues --   -0.45780  -0.45743  -0.45683  -0.43806  -0.43720
 Alpha virt. eigenvalues --    0.20928   0.23114   0.23864   0.24208   0.26075
 Alpha virt. eigenvalues --    0.26625   0.27005   0.27494   0.27931   0.29199
 Alpha virt. eigenvalues --    0.30265   0.31416   0.31667   0.31912   0.32080

 Mulliken charges:
               1
     1  C   -0.298371
     2  C   -0.299381
     3  C   -0.486407
     4  H    0.149838
     5  H    0.149785
     6  H    0.151561
     7  H    0.151443
     8  H    0.155773
     9  H    0.155167
    10  H    0.170167
    11  C   -0.298274
    12  C   -0.299680
    13  C   -0.475725
    14  H    0.149467
    15  H    0.149632
    16  H    0.151989
    17  H    0.152016
    18  H    0.155212
    19  H    0.155174
    20  H    0.160329
    21  C   -0.302331
    22  C   -0.299537
    23  C   -0.475636
    24  H    0.149749
    25  H    0.153043
    26  H    0.152069
    27  H    0.152054
    28  H    0.154983
    29  H    0.155223
    30  H    0.160268
    31  C   -0.297896
    32  C   -0.307294
    33  C   -0.475143
    34  H    0.149640
    35  H    0.149438
    36  H    0.152019
    37  H    0.159058
    38  H    0.154997
    39  H    0.155171
    40  H    0.160412
 Sum of Mulliken charges =  -0.00000

 Dipole moment (field-independent basis, Debye):
    X=             -0.0014    Y=             -0.0037    Z=              0.0071  Tot=              0.0082
 Quadrupole moment (field-independent basis, Debye-Ang):
   XX=            -84.7480   YY=            -85.2476   ZZ=            -84.7132
   XY=             -0.7981   XZ=             -0.1982   YZ=              0.3923

 Normal termination of Gaussian 16 at Thu May  6 07:06:22 2021.
