 Gaussian 16, Revision A.03,
 Gaussian 16:  EM64L-G16RevA.03 25-Dec-2016

 -------------
 #p 6-31g* mp2
 -------------

 ------------------------------------------------------
 Input file generated by CHIRIPA (05-May-2021 14:55:25)
 ------------------------------------------------------
 Symbolic Z-matrix:
 Charge =  0 Multiplicity = 1

                         Standard orientation:
 ---------------------------------------------------------------------
 Center     Atomic      Atomic             Coordinates (Angstroms)
 Number     Number       Type             X           Y           Z
 ---------------------------------------------------------------------
      1          6           0       -3.622255    1.732452   -0.728202
      2          6           0       -3.995011    0.426321   -1.062258
      3          6           0       -3.269624   -0.665425   -0.575995
      4          6           0       -2.172021   -0.413423    0.245620
      5          6           0       -1.775688    0.876231    0.596338
      6          6           0       -2.515734    1.952850    0.098573
      7          1           0       -4.191447    2.574671   -1.110410
      8          1           0       -4.853902    0.252159   -1.704146
      9          1           0       -3.536186   -1.686893   -0.818826
     10          1           0       -0.914775    1.018254    1.238270
     11          1           0       -2.223939    2.966129    0.359660
     12          7           0       -1.396326   -1.561198    0.766494
     13          8           0       -0.433328   -1.312513    1.488594
     14          8           0       -1.766022   -2.687777    0.442791
     15          6           0        2.544369    0.892989    0.033607
     16          6           0        3.311082    2.210365   -0.087449
     17          6           0        2.498772    3.413398    0.392820
     18          1           0        1.613407    0.963373   -0.545446
     19          1           0        2.250044    0.743067    1.081601
     20          1           0        3.605071    2.357081   -1.134664
     21          1           0        4.240418    2.136768    0.491803
     22          1           0        2.217571    3.293460    1.444078
     23          1           0        1.578615    3.515025   -0.191632
     24          1           0        3.065858    4.344621    0.297438
     25          6           0        3.343284   -0.318895   -0.442628
     26          6           0        2.576571   -1.636271   -0.321573
     27          6           0        3.388881   -2.839304   -0.801841
     28          1           0        3.637609   -0.168972   -1.490622
     29          1           0        4.274245   -0.389279    0.136424
     30          1           0        1.647234   -1.562674   -0.900825
     31          1           0        2.282581   -1.782987    0.725643
     32          1           0        4.309038   -2.940932   -0.217390
     33          1           0        3.670081   -2.719367   -1.853099
     34          1           0        2.821795   -3.770527   -0.706459
 ---------------------------------------------------------------------

 SCF Done:  E(RHF) =  -669.536062781     A.U. after   15 cycles
 E2 =    -0.2092739480D+01 EUMP2 =    -0.67162880226055D+03

 The electronic state is 1-A.
 Alpha  occ. eigenvalues --  -20.60888 -20.60855 -15.85897 -11.31232 -11.27801
 Alpha  occ. eigenvalues --  -11.27777 -11.27538 -11.26810 -11.26793 -11.21452
 Alpha  occ. eigenvalues --  -11.21235 -11.20986 -11.20721 -11.20421 -11.20114
 Alpha  occ. eigenvalues --   -1.59929  -1.39486  -1.19402  -1.08806  -1.07905
 Alpha  occ. eigenvalues --   -1.04797  -1.02988  -0.95646  -0.95505  -0.86535
 Alpha  occ. eigenvalues --   -0.86195  -0.82482  -0.79097  -0.77719  -0.77427
 Alpha  occ. eigenvalues --   -0.72127  -0.71235  -0.70507  -0.65058  -0.64798
 Alpha  occ. eigenvalues --   -0.64543  -0.62141  -0.60390  -0.58918  -0.57059
 Alpha  occ. eigenvalues --   -0.55304  -0.54825  -0.53132  -0.52889  -0.52205
 Alpha  occ. eigenvalues --   -0.51922  -0.49495  -0.48914  -0.48881  -0.47385
 Alpha  occ. eigenvalues --   -0.46136  -0.45496  -0.45055  -0.44473  -0.43234
 Alpha  occ. eigenvalues --   -0.37382  -0.36393
 Alpha virt. eigenvalues --    0.04970   0.11207   0.16437   0.20901   0.23226
 Alpha virt. eigenvalues --    0.24578   0.26578   0.26824   0.27584   0.28409
 Alpha virt. eigenvalues --    0.29264   0.30647   0.31867   0.32056   0.32430

 Mulliken charges:
               1
     1  C   -0.170599
     2  C   -0.218645
     3  C   -0.170856
     4  C    0.156920
     5  C   -0.171042
     6  C   -0.219948
     7  H    0.225817
     8  H    0.223566
     9  H    0.275604
    10  H    0.278675
    11  H    0.224543
    12  N    0.488990
    13  O   -0.459163
    14  O   -0.460000
    15  C   -0.300133
    16  C   -0.298528
    17  C   -0.476073
    18  H    0.144088
    19  H    0.156065
    20  H    0.151333
    21  H    0.153195
    22  H    0.153197
    23  H    0.148341
    24  H    0.160754
    25  C   -0.299049
    26  C   -0.299515
    27  C   -0.476810
    28  H    0.145156
    29  H    0.147937
    30  H    0.145595
    31  H    0.174845
    32  H    0.151780
    33  H    0.149171
    34  H    0.164788
 Sum of Mulliken charges =  -0.00000

 Dipole moment (field-independent basis, Debye):
    X=             -2.8400    Y=              3.8907    Z=             -1.6809  Tot=              5.1018
 Quadrupole moment (field-independent basis, Debye-Ang):
   XX=            -81.8547   YY=            -97.6482   ZZ=            -94.4755
   XY=             -5.3347   XZ=              6.0842   YZ=              2.8414

 Normal termination of Gaussian 16 at Wed May  5 19:10:42 2021.
