 Gaussian 16, Revision A.03,
 Gaussian 16:  EM64L-G16RevA.03 25-Dec-2016

 -------------
 #p 6-31g* mp2
 -------------

 ------------------------------------------------------
 Input file generated by CHIRIPA (05-May-2021 14:51:13)
 ------------------------------------------------------
 Symbolic Z-matrix:
 Charge =  0 Multiplicity = 1

                         Standard orientation:
 ---------------------------------------------------------------------
 Center     Atomic      Atomic             Coordinates (Angstroms)
 Number     Number       Type             X           Y           Z
 ---------------------------------------------------------------------
      1          6           0       -3.086287   -0.527784    0.408393
      2          6           0       -2.105991    0.527208    0.922200
      3          6           0       -0.735344   -0.056882    1.265652
      4          1           0       -3.200752   -1.313466    1.167699
      5          1           0       -2.659862   -1.012277   -0.480890
      6          1           0       -2.534747    1.010527    1.809435
      7          1           0       -1.993994    1.310568    0.161661
      8          1           0       -0.283098   -0.522482    0.384011
      9          1           0       -0.826924   -0.824228    2.041148
     10          1           0       -0.050289    0.714562    1.630938
     11          6           0       -4.460929    0.040784    0.060803
     12          6           0       -5.441225   -1.014208   -0.453004
     13          6           0       -6.811873   -0.430118   -0.796456
     14          1           0       -4.887354    0.525277    0.950086
     15          1           0       -4.346464    0.826466   -0.698503
     16          1           0       -5.553222   -1.797568    0.307535
     17          1           0       -5.012469   -1.497527   -1.340239
     18          1           0       -6.720292    0.337228   -1.571952
     19          1           0       -7.264118    0.035483    0.085186
     20          1           0       -7.496927   -1.201562   -1.161742
     21          6           0        3.962984   -0.462249   -0.457054
     22          6           0        5.227198   -0.992690    0.219986
     23          6           0        5.593159   -2.405686   -0.235325
     24          1           0        3.128119   -1.144618   -0.246531
     25          1           0        4.107305   -0.471644   -1.546310
     26          1           0        5.081048   -0.980998    1.307698
     27          1           0        6.059107   -0.308876    0.007986
     28          1           0        5.765798   -2.429550   -1.316171
     29          1           0        4.782182   -3.105490   -0.009074
     30          1           0        6.499895   -2.765223    0.261085
     31          6           0        3.584232    0.949250   -0.012142
     32          6           0        2.320018    1.479689   -0.689182
     33          6           0        1.954057    2.892685   -0.233871
     34          1           0        3.439911    0.958643    1.077113
     35          1           0        4.419097    1.631618   -0.222665
     36          1           0        1.488109    0.795877   -0.477182
     37          1           0        2.466169    1.467998   -1.776895
     38          1           0        2.765035    3.592490   -0.460123
     39          1           0        1.781418    2.916550    0.846974
     40          1           0        1.047321    3.252222   -0.730281
 ---------------------------------------------------------------------

 SCF Done:  E(RHF) =  -470.732740345     A.U. after   11 cycles
 E2 =    -0.1583218814D+01 EUMP2 =    -0.47231595915878D+03

 The electronic state is 1-A.
 Alpha  occ. eigenvalues --  -11.21655 -11.21622 -11.21562 -11.21446 -11.21439
 Alpha  occ. eigenvalues --  -11.21378 -11.21348 -11.21285 -11.21143 -11.21086
 Alpha  occ. eigenvalues --  -11.21040 -11.21039  -1.08470  -1.08366  -1.03593
 Alpha  occ. eigenvalues --   -1.03455  -0.96043  -0.95919  -0.87059  -0.86941
 Alpha  occ. eigenvalues --   -0.79681  -0.79500  -0.78282  -0.78177  -0.65159
 Alpha  occ. eigenvalues --   -0.64965  -0.61152  -0.60765  -0.59378  -0.59276
 Alpha  occ. eigenvalues --   -0.57636  -0.57537  -0.55381  -0.55164  -0.52722
 Alpha  occ. eigenvalues --   -0.52623  -0.52449  -0.52353  -0.50094  -0.49800
 Alpha  occ. eigenvalues --   -0.47960  -0.47847  -0.46814  -0.46425  -0.45848
 Alpha  occ. eigenvalues --   -0.45773  -0.45697  -0.45504  -0.43815  -0.43718
 Alpha virt. eigenvalues --    0.20898   0.23044   0.23643   0.24921   0.25839
 Alpha virt. eigenvalues --    0.26489   0.26812   0.27505   0.28063   0.29272
 Alpha virt. eigenvalues --    0.30031   0.31146   0.31736   0.32121   0.32429

 Mulliken charges:
               1
     1  C   -0.298691
     2  C   -0.300301
     3  C   -0.480693
     4  H    0.149730
     5  H    0.149839
     6  H    0.152393
     7  H    0.152909
     8  H    0.156779
     9  H    0.155653
    10  H    0.163321
    11  C   -0.298339
    12  C   -0.299698
    13  C   -0.475734
    14  H    0.149625
    15  H    0.149777
    16  H    0.151959
    17  H    0.151998
    18  H    0.155240
    19  H    0.155218
    20  H    0.160328
    21  C   -0.298583
    22  C   -0.299591
    23  C   -0.475706
    24  H    0.149785
    25  H    0.149216
    26  H    0.152023
    27  H    0.151830
    28  H    0.155019
    29  H    0.155202
    30  H    0.160116
    31  C   -0.297667
    32  C   -0.308440
    33  C   -0.475809
    34  H    0.149170
    35  H    0.149226
    36  H    0.162942
    37  H    0.150708
    38  H    0.155094
    39  H    0.154495
    40  H    0.159658
 Sum of Mulliken charges =  -0.00000

 Dipole moment (field-independent basis, Debye):
    X=             -0.0513    Y=             -0.0169    Z=              0.0157  Tot=              0.0562
 Quadrupole moment (field-independent basis, Debye-Ang):
   XX=            -85.7219   YY=            -85.8069   ZZ=            -83.4395
   XY=              0.9091   XZ=             -0.9176   YZ=             -0.6043

 Normal termination of Gaussian 16 at Wed May  5 16:51:10 2021.
