 Gaussian 16, Revision A.03,
 Gaussian 16:  EM64L-G16RevA.03 25-Dec-2016

 -------------
 #p 6-31g* mp2
 -------------

 ------------------------------------------------------
 Input file generated by CHIRIPA (05-May-2021 14:51:12)
 ------------------------------------------------------
 Symbolic Z-matrix:
 Charge =  0 Multiplicity = 1

                         Standard orientation:
 ---------------------------------------------------------------------
 Center     Atomic      Atomic             Coordinates (Angstroms)
 Number     Number       Type             X           Y           Z
 ---------------------------------------------------------------------
      1          6           0        3.437895    0.778481   -0.338290
      2          6           0        3.916328    2.009886    0.431599
      3          6           0        4.130190    3.225245   -0.471152
      4          1           0        4.172041    0.533264   -1.117932
      5          1           0        2.500028    1.020578   -0.857125
      6          1           0        4.852287    1.765120    0.949948
      7          1           0        3.181051    2.252086    1.209625
      8          1           0        3.198703    3.497309   -0.978019
      9          1           0        4.879435    3.007576   -1.239171
     10          1           0        4.472087    4.094188    0.099728
     11          6           0        3.219602   -0.444655    0.550538
     12          6           0        2.741169   -1.676060   -0.219351
     13          6           0        2.527307   -2.891419    0.683400
     14          1           0        4.157469   -0.686752    1.069374
     15          1           0        2.485456   -0.199438    1.330180
     16          1           0        3.476446   -1.918260   -0.997376
     17          1           0        1.805210   -1.431294   -0.737699
     18          1           0        1.778062   -2.673750    1.451419
     19          1           0        3.458794   -3.163483    1.190267
     20          1           0        2.185410   -3.760362    0.112520
     21          6           0       -3.106871   -0.897766   -0.098633
     22          6           0       -1.664169   -1.098269   -0.563820
     23          6           0       -1.234947   -2.565628   -0.543285
     24          1           0       -3.216727   -1.299221    0.918082
     25          1           0       -3.776961   -1.485794   -0.740969
     26          1           0       -0.997127   -0.508946    0.078338
     27          1           0       -1.557687   -0.696117   -1.579472
     28          1           0       -1.876486   -3.163870   -1.198369
     29          1           0       -1.312741   -2.975635    0.468863
     30          1           0       -0.200386   -2.686035   -0.879509
     31          6           0       -3.550627    0.563940   -0.113615
     32          6           0       -4.993327    0.764443    0.351571
     33          6           0       -5.422550    2.231802    0.331037
     34          1           0       -2.880535    1.151968    0.528721
     35          1           0       -3.440769    0.965395   -1.130330
     36          1           0       -5.099810    0.362292    1.367224
     37          1           0       -5.660370    0.175120   -0.290588
     38          1           0       -5.344756    2.641809   -0.681111
     39          1           0       -4.781011    2.830044    0.986121
     40          1           0       -6.457111    2.352209    0.667261
 ---------------------------------------------------------------------

 SCF Done:  E(RHF) =  -470.732950385     A.U. after   11 cycles
 E2 =    -0.1583248907D+01 EUMP2 =    -0.47231619929294D+03

 The electronic state is 1-A.
 Alpha  occ. eigenvalues --  -11.21647 -11.21625 -11.21599 -11.21578 -11.21437
 Alpha  occ. eigenvalues --  -11.21400 -11.21378 -11.21341 -11.21091 -11.21067
 Alpha  occ. eigenvalues --  -11.21042 -11.21027  -1.08470  -1.08416  -1.03597
 Alpha  occ. eigenvalues --   -1.03483  -0.96053  -0.95917  -0.87042  -0.86956
 Alpha  occ. eigenvalues --   -0.79621  -0.79585  -0.78282  -0.78234  -0.65147
 Alpha  occ. eigenvalues --   -0.65023  -0.61114  -0.60860  -0.59539  -0.59157
 Alpha  occ. eigenvalues --   -0.57745  -0.57421  -0.55375  -0.55156  -0.52768
 Alpha  occ. eigenvalues --   -0.52572  -0.52432  -0.52354  -0.50007  -0.49833
 Alpha  occ. eigenvalues --   -0.47955  -0.47887  -0.46688  -0.46566  -0.45830
 Alpha  occ. eigenvalues --   -0.45777  -0.45738  -0.45679  -0.43801  -0.43767
 Alpha virt. eigenvalues --    0.20607   0.23161   0.23480   0.25394   0.26129
 Alpha virt. eigenvalues --    0.26489   0.26853   0.27292   0.28176   0.29001
 Alpha virt. eigenvalues --    0.30046   0.31171   0.31446   0.31959   0.32480

 Mulliken charges:
               1
     1  C   -0.298667
     2  C   -0.299590
     3  C   -0.475737
     4  H    0.149636
     5  H    0.150032
     6  H    0.151908
     7  H    0.151749
     8  H    0.155303
     9  H    0.155171
    10  H    0.160212
    11  C   -0.297623
    12  C   -0.306523
    13  C   -0.476102
    14  H    0.149554
    15  H    0.149179
    16  H    0.151843
    17  H    0.157628
    18  H    0.156267
    19  H    0.155146
    20  H    0.160468
    21  C   -0.298295
    22  C   -0.300639
    23  C   -0.481825
    24  H    0.149764
    25  H    0.149894
    26  H    0.151333
    27  H    0.151720
    28  H    0.154794
    29  H    0.155317
    30  H    0.168113
    31  C   -0.298283
    32  C   -0.299680
    33  C   -0.475725
    34  H    0.149237
    35  H    0.149663
    36  H    0.151995
    37  H    0.152045
    38  H    0.155214
    39  H    0.155143
    40  H    0.160365
 Sum of Mulliken charges =  -0.00000

 Dipole moment (field-independent basis, Debye):
    X=             -0.0046    Y=             -0.0123    Z=             -0.0058  Tot=              0.0144
 Quadrupole moment (field-independent basis, Debye-Ang):
   XX=            -84.0109   YY=            -86.6462   ZZ=            -84.0912
   XY=              0.0133   XZ=              0.2780   YZ=              0.6123

 Normal termination of Gaussian 16 at Wed May  5 19:53:17 2021.
