 Gaussian 16, Revision A.03,
 Gaussian 16:  EM64L-G16RevA.03 25-Dec-2016

 -------------
 #p 6-31g* mp2
 -------------

 ------------------------------------------------------
 Input file generated by CHIRIPA (05-May-2021 14:51:12)
 ------------------------------------------------------
 Symbolic Z-matrix:
 Charge =  0 Multiplicity = 1

                         Standard orientation:
 ---------------------------------------------------------------------
 Center     Atomic      Atomic             Coordinates (Angstroms)
 Number     Number       Type             X           Y           Z
 ---------------------------------------------------------------------
      1          6           0        3.222222   -0.235043   -0.144747
      2          6           0        4.534375   -1.012997   -0.039737
      3          6           0        4.341681   -2.521403   -0.199029
      4          1           0        2.524653   -0.599963    0.621528
      5          1           0        2.756155   -0.445402   -1.117334
      6          1           0        4.998514   -0.800151    0.931802
      7          1           0        5.228969   -0.646050   -0.806227
      8          1           0        3.900927   -2.752613   -1.174159
      9          1           0        3.669163   -2.907590    0.573744
     10          1           0        5.292308   -3.058070   -0.120563
     11          6           0        3.398519    1.274241    0.012449
     12          6           0        2.086366    2.052194   -0.092560
     13          6           0        2.279060    3.560600    0.066732
     14          1           0        3.864587    1.484599    0.985036
     15          1           0        4.096088    1.639160   -0.753825
     16          1           0        1.391772    1.685248    0.673929
     17          1           0        1.622228    1.839349   -1.064099
     18          1           0        2.951579    3.946787   -0.706041
     19          1           0        2.719814    3.791810    1.041862
     20          1           0        1.328433    4.097268   -0.011734
     21          6           0       -2.644147   -0.560026    0.437556
     22          6           0       -1.647048   -1.522360   -0.208734
     23          6           0       -0.319024   -1.592340    0.545753
     24          1           0       -2.196558    0.441974    0.488603
     25          1           0       -2.826657   -0.874038    1.474610
     26          1           0       -1.467531   -1.207431   -1.244691
     27          1           0       -2.097136   -2.522144   -0.258423
     28          1           0       -0.478217   -1.928368    1.575482
     29          1           0        0.154965   -0.606185    0.583609
     30          1           0        0.378871   -2.286023    0.066577
     31          6           0       -3.976594   -0.479172   -0.305259
     32          6           0       -4.973693    0.483163    0.341031
     33          6           0       -6.301717    0.553143   -0.413455
     34          1           0       -3.794085   -0.165160   -1.342314
     35          1           0       -4.424183   -1.481172   -0.356306
     36          1           0       -4.523606    1.482947    0.390720
     37          1           0       -5.153210    0.168233    1.376989
     38          1           0       -6.775706   -0.433013   -0.451311
     39          1           0       -6.142525    0.889171   -1.443184
     40          1           0       -6.999611    1.246825    0.065720
 ---------------------------------------------------------------------

 SCF Done:  E(RHF) =  -470.732409126     A.U. after   11 cycles
 E2 =    -0.1583657091D+01 EUMP2 =    -0.47231606621753D+03

 The electronic state is 1-A.
 Alpha  occ. eigenvalues --  -11.21653 -11.21589 -11.21551 -11.21550 -11.21381
 Alpha  occ. eigenvalues --  -11.21371 -11.21322 -11.21245 -11.21107 -11.21062
 Alpha  occ. eigenvalues --  -11.21046 -11.20953  -1.08433  -1.08383  -1.03528
 Alpha  occ. eigenvalues --   -1.03495  -0.96004  -0.95916  -0.87022  -0.86942
 Alpha  occ. eigenvalues --   -0.79623  -0.79573  -0.78301  -0.78120  -0.65103
 Alpha  occ. eigenvalues --   -0.64983  -0.60937  -0.60892  -0.59421  -0.59239
 Alpha  occ. eigenvalues --   -0.57616  -0.57534  -0.55334  -0.55174  -0.52736
 Alpha  occ. eigenvalues --   -0.52648  -0.52397  -0.52329  -0.49971  -0.49871
 Alpha  occ. eigenvalues --   -0.47980  -0.47844  -0.46743  -0.46621  -0.45907
 Alpha  occ. eigenvalues --   -0.45723  -0.45691  -0.45273  -0.43772  -0.43704
 Alpha virt. eigenvalues --    0.21731   0.23024   0.23614   0.24107   0.25494
 Alpha virt. eigenvalues --    0.26679   0.27136   0.27345   0.27729   0.29589
 Alpha virt. eigenvalues --    0.30250   0.31534   0.31604   0.31885   0.32478

 Mulliken charges:
               1
     1  C   -0.303536
     2  C   -0.299201
     3  C   -0.476398
     4  H    0.158927
     5  H    0.148797
     6  H    0.151569
     7  H    0.151363
     8  H    0.154755
     9  H    0.155858
    10  H    0.160175
    11  C   -0.298093
    12  C   -0.303013
    13  C   -0.475407
    14  H    0.149272
    15  H    0.149389
    16  H    0.153717
    17  H    0.151762
    18  H    0.155502
    19  H    0.155464
    20  H    0.160014
    21  C   -0.298673
    22  C   -0.299466
    23  C   -0.482954
    24  H    0.149753
    25  H    0.149244
    26  H    0.151665
    27  H    0.151479
    28  H    0.153413
    29  H    0.162907
    30  H    0.161908
    31  C   -0.298217
    32  C   -0.299620
    33  C   -0.475684
    34  H    0.149460
    35  H    0.149631
    36  H    0.151888
    37  H    0.151847
    38  H    0.155162
    39  H    0.155149
    40  H    0.160191
 Sum of Mulliken charges =  -0.00000

 Dipole moment (field-independent basis, Debye):
    X=              0.0177    Y=              0.0068    Z=              0.0105  Tot=              0.0217
 Quadrupole moment (field-independent basis, Debye-Ang):
   XX=            -85.8336   YY=            -85.5024   ZZ=            -83.6340
   XY=              0.4725   XZ=             -0.7253   YZ=             -0.5717

 Normal termination of Gaussian 16 at Thu May  6 03:54:46 2021.
