 Gaussian 16, Revision A.03,
 Gaussian 16:  EM64L-G16RevA.03 25-Dec-2016

 -------------
 #p 6-31g* mp2
 -------------

 ------------------------------------------------------
 Input file generated by CHIRIPA (05-May-2021 14:53:11)
 ------------------------------------------------------
 Symbolic Z-matrix:
 Charge =  0 Multiplicity = 1

                         Standard orientation:
 ---------------------------------------------------------------------
 Center     Atomic      Atomic             Coordinates (Angstroms)
 Number     Number       Type             X           Y           Z
 ---------------------------------------------------------------------
      1          6           0        4.322398    0.276278    0.318942
      2          6           0        5.402691   -0.242568   -0.630664
      3          6           0        6.644166   -0.747154    0.105493
      4          1           0        4.740720    1.085690    0.932786
      5          1           0        4.037365   -0.526771    1.012674
      6          1           0        5.684613    0.560801   -1.323292
      7          1           0        4.981693   -1.050710   -1.242451
      8          1           0        6.383556   -1.565995    0.783860
      9          1           0        7.090470    0.054672    0.702560
     10          1           0        7.403566   -1.113403   -0.592384
     11          6           0        3.075055    0.784181   -0.402096
     12          6           0        1.994763    1.303027    0.547510
     13          6           0        0.753288    1.807613   -0.188647
     14          1           0        3.360089    1.587230   -1.095828
     15          1           0        2.656733   -0.025231   -1.015940
     16          1           0        2.415760    2.111169    1.159297
     17          1           0        1.712840    0.499658    1.240138
     18          1           0        0.306984    1.005787   -0.785714
     19          1           0        1.013897    2.626455   -0.867014
     20          1           0       -0.006113    2.173862    0.509230
     21          6           0       -0.634796   -1.505655    0.333252
     22          6           0       -1.335059   -1.027581    1.445726
     23          6           0       -2.585169   -0.421108    1.290924
     24          6           0       -3.107619   -0.308728    0.003405
     25          6           0       -2.434320   -0.775129   -1.124615
     26          6           0       -1.185691   -1.378128   -0.946112
     27          1           0        0.335745   -1.975429    0.462711
     28          1           0       -0.909671   -1.125263    2.440486
     29          1           0       -3.148811   -0.042250    2.134840
     30          1           0       -2.884117   -0.663450   -2.103711
     31          1           0       -0.644113   -1.748490   -1.811890
     32          7           0       -4.430271    0.331479   -0.173023
     33          8           0       -4.868813    0.418409   -1.317907
     34          8           0       -5.003380    0.734220    0.836920
 ---------------------------------------------------------------------

 SCF Done:  E(RHF) =  -669.534087893     A.U. after   15 cycles
 E2 =    -0.2094292011D+01 EUMP2 =    -0.67162837990407D+03

 The electronic state is 1-A.
 Alpha  occ. eigenvalues --  -20.60815 -20.60810 -15.85871 -11.31274 -11.27860
 Alpha  occ. eigenvalues --  -11.27849 -11.27581 -11.26859 -11.26837 -11.22173
 Alpha  occ. eigenvalues --  -11.22111 -11.22031 -11.21974 -11.21574 -11.21162
 Alpha  occ. eigenvalues --   -1.59890  -1.39443  -1.19460  -1.09025  -1.08830
 Alpha  occ. eigenvalues --   -1.04868  -1.04006  -0.96436  -0.95669  -0.87448
 Alpha  occ. eigenvalues --   -0.86263  -0.82502  -0.80081  -0.78834  -0.77540
 Alpha  occ. eigenvalues --   -0.72089  -0.71212  -0.70571  -0.65671  -0.65110
 Alpha  occ. eigenvalues --   -0.64860  -0.62207  -0.61470  -0.59813  -0.58058
 Alpha  occ. eigenvalues --   -0.55908  -0.55363  -0.53313  -0.52975  -0.52952
 Alpha  occ. eigenvalues --   -0.52736  -0.50289  -0.48851  -0.48841  -0.48383
 Alpha  occ. eigenvalues --   -0.47130  -0.46354  -0.46327  -0.44840  -0.44285
 Alpha  occ. eigenvalues --   -0.37349  -0.36423
 Alpha virt. eigenvalues --    0.04971   0.11057   0.16393   0.19915   0.22786
 Alpha virt. eigenvalues --    0.24136   0.25744   0.26021   0.27437   0.27712
 Alpha virt. eigenvalues --    0.29083   0.30968   0.31218   0.31334   0.32115

 Mulliken charges:
               1
     1  C   -0.297620
     2  C   -0.299524
     3  C   -0.475813
     4  H    0.152415
     5  H    0.144415
     6  H    0.154096
     7  H    0.149500
     8  H    0.154120
     9  H    0.156717
    10  H    0.161741
    11  C   -0.297597
    12  C   -0.299338
    13  C   -0.478998
    14  H    0.153283
    15  H    0.141459
    16  H    0.154018
    17  H    0.141847
    18  H    0.160820
    19  H    0.154323
    20  H    0.161322
    21  C   -0.166409
    22  C   -0.215893
    23  C   -0.171065
    24  C    0.159652
    25  C   -0.168654
    26  C   -0.223791
    27  H    0.226539
    28  H    0.224050
    29  H    0.276148
    30  H    0.276295
    31  H    0.224160
    32  N    0.488070
    33  O   -0.460029
    34  O   -0.460258
 Sum of Mulliken charges =  -0.00000

 Dipole moment (field-independent basis, Debye):
    X=              4.6006    Y=             -2.2431    Z=              0.6094  Tot=              5.1545
 Quadrupole moment (field-independent basis, Debye-Ang):
   XX=           -124.8640   YY=            -93.3127   ZZ=            -90.0529
   XY=              6.4870   XZ=             -2.7365   YZ=              0.7377

 Normal termination of Gaussian 16 at Thu May  6 02:29:28 2021.
