 Gaussian 16, Revision A.03,
 Gaussian 16:  EM64L-G16RevA.03 25-Dec-2016

 -------------
 #p 6-31g* mp2
 -------------

 ------------------------------------------------------
 Input file generated by CHIRIPA (05-May-2021 14:53:16)
 ------------------------------------------------------
 Symbolic Z-matrix:
 Charge =  0 Multiplicity = 1

                         Standard orientation:
 ---------------------------------------------------------------------
 Center     Atomic      Atomic             Coordinates (Angstroms)
 Number     Number       Type             X           Y           Z
 ---------------------------------------------------------------------
      1          6           0        2.290608   -0.615110    0.394271
      2          6           0        1.951297   -1.481187    1.607845
      3          6           0        0.534182   -2.052246    1.548908
      4          1           0        1.565132    0.206901    0.324068
      5          1           0        2.173446   -1.214283   -0.519326
      6          1           0        2.070401   -0.880955    2.518971
      7          1           0        2.677779   -2.301122    1.675278
      8          1           0        0.406110   -2.673807    0.656798
      9          1           0       -0.204719   -1.245572    1.505285
     10          1           0        0.312716   -2.668107    2.426135
     11          6           0        3.703967   -0.037034    0.438694
     12          6           0        4.043278    0.829043   -0.774880
     13          6           0        5.460392    1.400102   -0.715943
     14          1           0        3.821129    0.562139    1.352291
     15          1           0        4.429442   -0.859045    0.508897
     16          1           0        3.316796    1.648978   -0.842313
     17          1           0        3.924173    0.228811   -1.686007
     18          1           0        6.199293    0.593428   -0.672321
     19          1           0        5.588465    2.021664    0.176166
     20          1           0        5.681858    2.015963   -1.593171
     21          6           0       -1.829120   -1.956412   -1.427214
     22          6           0       -3.004644   -1.799726   -0.685517
     23          6           0       -3.298858   -0.579083   -0.070685
     24          6           0       -2.391179    0.468510   -0.218855
     25          6           0       -1.211712    0.343517   -0.951335
     26          6           0       -0.937978   -0.886177   -1.557526
     27          1           0       -1.608523   -2.908153   -1.901474
     28          1           0       -3.698551   -2.629154   -0.582619
     29          1           0       -4.201619   -0.430325    0.509240
     30          1           0       -0.539300    1.188565   -1.036038
     31          1           0       -0.024286   -1.004984   -2.132938
     32          7           0       -2.691809    1.765541    0.427466
     33          8           0       -1.875841    2.673080    0.281840
     34          8           0       -3.737719    1.850056    1.067440
 ---------------------------------------------------------------------

 SCF Done:  E(RHF) =  -669.533597441     A.U. after   15 cycles
 E2 =    -0.2095273152D+01 EUMP2 =    -0.67162887059368D+03

 The electronic state is 1-A.
 Alpha  occ. eigenvalues --  -20.60804 -20.60797 -15.85856 -11.31212 -11.27767
 Alpha  occ. eigenvalues --  -11.27719 -11.27460 -11.26780 -11.26704 -11.21967
 Alpha  occ. eigenvalues --  -11.21882 -11.21822 -11.21685 -11.21310 -11.21182
 Alpha  occ. eigenvalues --   -1.59880  -1.39433  -1.19375  -1.08813  -1.08736
 Alpha  occ. eigenvalues --   -1.04768  -1.03802  -0.96256  -0.95607  -0.87273
 Alpha  occ. eigenvalues --   -0.86166  -0.82438  -0.79891  -0.78665  -0.77463
 Alpha  occ. eigenvalues --   -0.72072  -0.71207  -0.70477  -0.65447  -0.65012
 Alpha  occ. eigenvalues --   -0.64733  -0.62121  -0.61205  -0.59645  -0.57917
 Alpha  occ. eigenvalues --   -0.55552  -0.55265  -0.53444  -0.52929  -0.52857
 Alpha  occ. eigenvalues --   -0.52400  -0.50193  -0.48831  -0.48828  -0.48116
 Alpha  occ. eigenvalues --   -0.46924  -0.46126  -0.46079  -0.44837  -0.44089
 Alpha  occ. eigenvalues --   -0.37294  -0.36263
 Alpha virt. eigenvalues --    0.04996   0.11173   0.16424   0.20366   0.22910
 Alpha virt. eigenvalues --    0.24077   0.25107   0.25431   0.27418   0.28550
 Alpha virt. eigenvalues --    0.29929   0.30528   0.31201   0.31550   0.31775

 Mulliken charges:
               1
     1  C   -0.300560
     2  C   -0.299857
     3  C   -0.475071
     4  H    0.151417
     5  H    0.139914
     6  H    0.155614
     7  H    0.150980
     8  H    0.148003
     9  H    0.161497
    10  H    0.158731
    11  C   -0.297987
    12  C   -0.300475
    13  C   -0.475760
    14  H    0.153732
    15  H    0.149933
    16  H    0.152591
    17  H    0.147199
    18  H    0.155280
    19  H    0.157929
    20  H    0.161106
    21  C   -0.170644
    22  C   -0.216729
    23  C   -0.172161
    24  C    0.158346
    25  C   -0.174184
    26  C   -0.210402
    27  H    0.225138
    28  H    0.223617
    29  H    0.275678
    30  H    0.275233
    31  H    0.225022
    32  N    0.487923
    33  O   -0.460926
    34  O   -0.460126
 Sum of Mulliken charges =  -0.00000

 Dipole moment (field-independent basis, Debye):
    X=              1.0504    Y=             -4.5275    Z=             -2.2338  Tot=              5.1567
 Quadrupole moment (field-independent basis, Debye-Ang):
   XX=            -97.0087   YY=            -98.6178   ZZ=            -93.5696
   XY=             12.9498   XZ=              3.6249   YZ=             -0.2418

 Normal termination of Gaussian 16 at Wed May  5 18:43:15 2021.
