 Gaussian 16, Revision A.03,
 Gaussian 16:  EM64L-G16RevA.03 25-Dec-2016

 -------------
 #p 6-31g* mp2
 -------------

 ------------------------------------------------------
 Input file generated by CHIRIPA (05-May-2021 14:51:14)
 ------------------------------------------------------
 Symbolic Z-matrix:
 Charge =  0 Multiplicity = 1

                         Standard orientation:
 ---------------------------------------------------------------------
 Center     Atomic      Atomic             Coordinates (Angstroms)
 Number     Number       Type             X           Y           Z
 ---------------------------------------------------------------------
      1          6           0        2.545848    0.763267   -0.042966
      2          6           0        3.340336    2.053090   -0.250640
      3          6           0        2.695632    3.260665    0.430470
      4          1           0        1.526302    0.902133   -0.427918
      5          1           0        2.449515    0.569623    1.034353
      6          1           0        3.436329    2.243506   -1.327275
      7          1           0        4.358167    1.911073    0.134677
      8          1           0        2.614287    3.096233    1.509797
      9          1           0        1.687212    3.430555    0.039538
     10          1           0        3.279989    4.171918    0.269212
     11          6           0        3.177747   -0.452812   -0.717936
     12          6           0        2.383258   -1.742635   -0.510262
     13          6           0        3.027963   -2.950211   -1.191372
     14          1           0        3.274080   -0.259168   -1.795255
     15          1           0        4.197293   -0.591678   -0.332984
     16          1           0        1.365428   -1.600619   -0.895579
     17          1           0        2.287266   -1.933052    0.566373
     18          1           0        4.036383   -3.120100   -0.800440
     19          1           0        3.109308   -2.785779   -2.270699
     20          1           0        2.443606   -3.861464   -1.030114
     21          6           0       -3.589216   -0.164855    0.147641
     22          6           0       -3.829719    0.649431   -1.124004
     23          6           0       -5.289702    0.620494   -1.577223
     24          1           0       -3.900275   -1.204143   -0.025763
     25          1           0       -4.231078    0.223725    0.950395
     26          1           0       -3.186583    0.260317   -1.923743
     27          1           0       -3.517874    1.686859   -0.947615
     28          1           0       -5.942854    1.028064   -0.798839
     29          1           0       -5.609681   -0.406583   -1.780514
     30          1           0       -5.439112    1.208922   -2.487875
     31          6           0       -2.134378   -0.145599    0.613261
     32          6           0       -1.893876   -0.959885    1.884906
     33          6           0       -0.433893   -0.930949    2.338125
     34          1           0       -1.492516   -0.534180   -0.189493
     35          1           0       -1.823320    0.893688    0.786665
     36          1           0       -2.205722   -1.997313    1.708516
     37          1           0       -2.537012   -0.570771    2.684645
     38          1           0       -0.113914    0.096128    2.541416
     39          1           0        0.219260   -1.338518    1.559741
     40          1           0       -0.284483   -1.519377    3.248778
 ---------------------------------------------------------------------

 SCF Done:  E(RHF) =  -470.732828395     A.U. after   11 cycles
 E2 =    -0.1583907808D+01 EUMP2 =    -0.47231673620238D+03

 The electronic state is 1-A.
 Alpha  occ. eigenvalues --  -11.21641 -11.21609 -11.21577 -11.21543 -11.21394
 Alpha  occ. eigenvalues --  -11.21392 -11.21333 -11.21304 -11.21105 -11.21075
 Alpha  occ. eigenvalues --  -11.21062 -11.20896  -1.08447  -1.08390  -1.03551
 Alpha  occ. eigenvalues --   -1.03483  -0.95983  -0.95939  -0.87010  -0.86953
 Alpha  occ. eigenvalues --   -0.79679  -0.79527  -0.78364  -0.78083  -0.65064
 Alpha  occ. eigenvalues --   -0.65036  -0.60965  -0.60881  -0.59372  -0.59297
 Alpha  occ. eigenvalues --   -0.57611  -0.57540  -0.55282  -0.55219  -0.52718
 Alpha  occ. eigenvalues --   -0.52632  -0.52413  -0.52352  -0.49994  -0.49849
 Alpha  occ. eigenvalues --   -0.48070  -0.47822  -0.46684  -0.46546  -0.46057
 Alpha  occ. eigenvalues --   -0.45718  -0.45648  -0.45278  -0.43781  -0.43753
 Alpha virt. eigenvalues --    0.21132   0.23171   0.23699   0.24158   0.25085
 Alpha virt. eigenvalues --    0.25939   0.26928   0.27910   0.28502   0.29863
 Alpha virt. eigenvalues --    0.30281   0.30897   0.31824   0.31898   0.32081

 Mulliken charges:
               1
     1  C   -0.301603
     2  C   -0.299662
     3  C   -0.475679
     4  H    0.151442
     5  H    0.152891
     6  H    0.151712
     7  H    0.151766
     8  H    0.154950
     9  H    0.155087
    10  H    0.160196
    11  C   -0.297834
    12  C   -0.305990
    13  C   -0.474860
    14  H    0.149337
    15  H    0.149625
    16  H    0.152575
    17  H    0.156371
    18  H    0.155499
    19  H    0.155221
    20  H    0.160096
    21  C   -0.298271
    22  C   -0.299600
    23  C   -0.475673
    24  H    0.149620
    25  H    0.149727
    26  H    0.151457
    27  H    0.151837
    28  H    0.155285
    29  H    0.155204
    30  H    0.160178
    31  C   -0.300011
    32  C   -0.299222
    33  C   -0.485103
    34  H    0.150151
    35  H    0.149958
    36  H    0.151384
    37  H    0.151444
    38  H    0.155305
    39  H    0.166789
    40  H    0.158402
 Sum of Mulliken charges =  -0.00000

 Dipole moment (field-independent basis, Debye):
    X=              0.0385    Y=             -0.0100    Z=             -0.0085  Tot=              0.0407
 Quadrupole moment (field-independent basis, Debye-Ang):
   XX=            -85.6002   YY=            -85.0153   ZZ=            -84.2523
   XY=              0.0758   XZ=              0.1034   YZ=             -0.0584

 Normal termination of Gaussian 16 at Thu May  6 02:26:51 2021.
