 Gaussian 16, Revision A.03,
 Gaussian 16:  EM64L-G16RevA.03 25-Dec-2016

 -------------
 #p 6-31g* mp2
 -------------

 ------------------------------------------------------
 Input file generated by CHIRIPA (05-May-2021 14:51:12)
 ------------------------------------------------------
 Symbolic Z-matrix:
 Charge =  0 Multiplicity = 1

                         Standard orientation:
 ---------------------------------------------------------------------
 Center     Atomic      Atomic             Coordinates (Angstroms)
 Number     Number       Type             X           Y           Z
 ---------------------------------------------------------------------
      1          6           0        3.630708   -0.618599   -0.409304
      2          6           0        2.372181   -1.466264   -0.220737
      3          6           0        2.527321   -2.884981   -0.769343
      4          1           0        3.878677   -0.574670   -1.478662
      5          1           0        4.476140   -1.114417    0.087490
      6          1           0        1.529085   -0.968303   -0.716560
      7          1           0        2.127069   -1.508022    0.848278
      8          1           0        3.350217   -3.404225   -0.267518
      9          1           0        2.748835   -2.861439   -1.841247
     10          1           0        1.616038   -3.473472   -0.624080
     11          6           0        3.491132    0.802299    0.134106
     12          6           0        4.749660    1.649964   -0.054461
     13          6           0        4.594520    3.068680    0.494145
     14          1           0        2.645700    1.298116   -0.362688
     15          1           0        3.243163    0.758369    1.203464
     16          1           0        4.994771    1.691722   -1.123476
     17          1           0        5.592755    1.152003    0.441362
     18          1           0        4.373005    3.045139    1.566049
     19          1           0        3.771624    3.587925   -0.007680
     20          1           0        5.505803    3.657172    0.348882
     21          6           0       -4.257783    0.194704    0.262908
     22          6           0       -4.617932    1.346027   -0.676630
     23          6           0       -6.015059    1.908736   -0.413590
     24          1           0       -5.003103   -0.605153    0.154868
     25          1           0       -4.323378    0.544733    1.302413
     26          1           0       -4.550333    0.994312   -1.714099
     27          1           0       -3.871561    2.143155   -0.566481
     28          1           0       -6.091729    2.286059    0.611275
     29          1           0       -6.774358    1.130690   -0.542864
     30          1           0       -6.251903    2.730694   -1.096341
     31          6           0       -2.864058   -0.378403    0.012290
     32          6           0       -2.503908   -1.529727    0.951827
     33          6           0       -1.106781   -2.092435    0.688789
     34          1           0       -2.798462   -0.728432   -1.027215
     35          1           0       -2.118737    0.421453    0.120329
     36          1           0       -3.250279   -2.326855    0.841678
     37          1           0       -2.571507   -1.178012    1.989297
     38          1           0       -0.347483   -1.314389    0.818062
     39          1           0       -1.030112   -2.469759   -0.336077
     40          1           0       -0.869937   -2.914394    1.371539
 ---------------------------------------------------------------------

 SCF Done:  E(RHF) =  -470.732198810     A.U. after   11 cycles
 E2 =    -0.1583379933D+01 EUMP2 =    -0.47231557874287D+03

 The electronic state is 1-A.
 Alpha  occ. eigenvalues --  -11.21598 -11.21592 -11.21549 -11.21487 -11.21393
 Alpha  occ. eigenvalues --  -11.21377 -11.21333 -11.21297 -11.21070 -11.21068
 Alpha  occ. eigenvalues --  -11.20978 -11.20941  -1.08426  -1.08380  -1.03561
 Alpha  occ. eigenvalues --   -1.03432  -0.96022  -0.95871  -0.86981  -0.86954
 Alpha  occ. eigenvalues --   -0.79738  -0.79425  -0.78300  -0.78125  -0.65046
 Alpha  occ. eigenvalues --   -0.65022  -0.60930  -0.60866  -0.59355  -0.59313
 Alpha  occ. eigenvalues --   -0.57753  -0.57372  -0.55276  -0.55208  -0.52741
 Alpha  occ. eigenvalues --   -0.52587  -0.52375  -0.52289  -0.49954  -0.49880
 Alpha  occ. eigenvalues --   -0.48112  -0.47648  -0.46629  -0.46559  -0.45896
 Alpha  occ. eigenvalues --   -0.45726  -0.45655  -0.45446  -0.43769  -0.43717
 Alpha virt. eigenvalues --    0.22122   0.23054   0.23505   0.24747   0.26314
 Alpha virt. eigenvalues --    0.26549   0.26629   0.27445   0.27863   0.29215
 Alpha virt. eigenvalues --    0.30831   0.31060   0.31354   0.31799   0.32415

 Mulliken charges:
               1
     1  C   -0.297619
     2  C   -0.300796
     3  C   -0.478906
     4  H    0.149246
     5  H    0.149080
     6  H    0.154161
     7  H    0.153032
     8  H    0.154551
     9  H    0.154379
    10  H    0.164341
    11  C   -0.298433
    12  C   -0.299481
    13  C   -0.475694
    14  H    0.149004
    15  H    0.149057
    16  H    0.152010
    17  H    0.151989
    18  H    0.155033
    19  H    0.155047
    20  H    0.160261
    21  C   -0.298148
    22  C   -0.299627
    23  C   -0.475692
    24  H    0.149687
    25  H    0.149543
    26  H    0.151811
    27  H    0.151846
    28  H    0.155204
    29  H    0.155185
    30  H    0.160199
    31  C   -0.298401
    32  C   -0.300374
    33  C   -0.479397
    34  H    0.149162
    35  H    0.149362
    36  H    0.151288
    37  H    0.151476
    38  H    0.163272
    39  H    0.154534
    40  H    0.158808
 Sum of Mulliken charges =  -0.00000

 Dipole moment (field-independent basis, Debye):
    X=              0.0076    Y=             -0.0071    Z=              0.0033  Tot=              0.0109
 Quadrupole moment (field-independent basis, Debye-Ang):
   XX=            -85.7289   YY=            -85.6776   ZZ=            -83.6463
   XY=              0.5651   XZ=              0.6823   YZ=             -0.2343

 Normal termination of Gaussian 16 at Wed May  5 16:49:49 2021.
