 Gaussian 16, Revision A.03,
 Gaussian 16:  EM64L-G16RevA.03 25-Dec-2016

 -------------
 #p 6-31g* mp2
 -------------

 ------------------------------------------------------
 Input file generated by CHIRIPA (05-May-2021 14:57:24)
 ------------------------------------------------------
 Symbolic Z-matrix:
 Charge =  0 Multiplicity = 1

                         Standard orientation:
 ---------------------------------------------------------------------
 Center     Atomic      Atomic             Coordinates (Angstroms)
 Number     Number       Type             X           Y           Z
 ---------------------------------------------------------------------
      1          6           0       -1.999699   -2.041459    0.554195
      2          6           0       -3.320979   -2.258600    0.149735
      3          6           0       -4.156981   -1.179933   -0.153789
      4          6           0       -3.636567    0.108426   -0.041581
      5          6           0       -2.324636    0.357195    0.358719
      6          6           0       -1.506613   -0.736555    0.657214
      7          1           0       -1.357256   -2.885251    0.788026
      8          1           0       -3.706611   -3.270919    0.068843
      9          1           0       -5.183836   -1.319426   -0.469268
     10          1           0       -1.968618    1.377775    0.430031
     11          1           0       -0.480905   -0.564920    0.971076
     12          7           0       -4.512088    1.258346   -0.360246
     13          8           0       -4.029626    2.383724   -0.253518
     14          8           0       -5.664204    1.012501   -0.710710
     15          6           0        3.802828    2.564972    0.305023
     16          6           0        2.879188    1.869291    1.092067
     17          6           0        2.698815    0.492946    0.925665
     18          6           0        3.462247   -0.159037   -0.041485
     19          6           0        4.390370    0.506192   -0.841078
     20          6           0        4.554146    1.882406   -0.657341
     21          1           0        3.936499    3.634099    0.441022
     22          1           0        2.294328    2.396783    1.840221
     23          1           0        1.990714   -0.070243    1.521342
     24          1           0        4.958889   -0.047000   -1.578765
     25          1           0        5.272185    2.420101   -1.269998
     26          7           0        3.280079   -1.616042   -0.226825
     27          8           0        3.964904   -2.167340   -1.085732
     28          8           0        2.455920   -2.179157    0.490324
 ---------------------------------------------------------------------

 SCF Done:  E(RHF) =  -868.338793072     A.U. after   16 cycles
 E2 =    -0.2599374434D+01 EUMP2 =    -0.87093816750645D+03

 The electronic state is 1-A.
 Alpha  occ. eigenvalues --  -20.61695 -20.61634 -20.60658 -20.60645 -15.86708
 Alpha  occ. eigenvalues --  -15.85706 -11.31965 -11.30957 -11.28595 -11.28441
 Alpha  occ. eigenvalues --  -11.28148 -11.27564 -11.27509 -11.27503 -11.27424
 Alpha  occ. eigenvalues --  -11.27109 -11.26490 -11.26441  -1.60728  -1.59732
 Alpha  occ. eigenvalues --   -1.40292  -1.39290  -1.20102  -1.19110  -1.09500
 Alpha  occ. eigenvalues --   -1.08492  -1.05496  -1.04515  -0.96368  -0.95352
 Alpha  occ. eigenvalues --   -0.86894  -0.85894  -0.83211  -0.82210  -0.78297
 Alpha  occ. eigenvalues --   -0.77298  -0.72935  -0.72038  -0.71924  -0.71203
 Alpha  occ. eigenvalues --   -0.71054  -0.70139  -0.65754  -0.65505  -0.64751
 Alpha  occ. eigenvalues --   -0.64510  -0.62869  -0.61858  -0.55955  -0.54898
 Alpha  occ. eigenvalues --   -0.53811  -0.53596  -0.52829  -0.52577  -0.49704
 Alpha  occ. eigenvalues --   -0.49662  -0.48689  -0.48669  -0.45718  -0.44722
 Alpha  occ. eigenvalues --   -0.38035  -0.37092  -0.37025  -0.36130
 Alpha virt. eigenvalues --    0.04208   0.05257   0.10482   0.11547   0.15790
 Alpha virt. eigenvalues --    0.16795   0.19471   0.22065   0.25127   0.27170
 Alpha virt. eigenvalues --    0.28588   0.29028   0.30103   0.31031   0.32315

 Mulliken charges:
               1
     1  C   -0.171671
     2  C   -0.219221
     3  C   -0.171107
     4  C    0.158232
     5  C   -0.173112
     6  C   -0.221129
     7  H    0.237729
     8  H    0.224269
     9  H    0.274804
    10  H    0.270481
    11  H    0.223942
    12  N    0.488366
    13  O   -0.463481
    14  O   -0.460584
    15  C   -0.169655
    16  C   -0.218615
    17  C   -0.177071
    18  C    0.160234
    19  C   -0.170011
    20  C   -0.217327
    21  H    0.229695
    22  H    0.225538
    23  H    0.270672
    24  H    0.277689
    25  H    0.226971
    26  N    0.489385
    27  O   -0.454814
    28  O   -0.470209
 Sum of Mulliken charges =  -0.00000

 Dipole moment (field-independent basis, Debye):
    X=              4.0640    Y=              1.0408    Z=              1.6650  Tot=              4.5135
 Quadrupole moment (field-independent basis, Debye-Ang):
   XX=           -117.4601   YY=           -105.6680   ZZ=           -103.3687
   XY=             36.6339   XZ=             -4.3628   YZ=              0.7598

 Normal termination of Gaussian 16 at Wed May  5 16:21:54 2021.
