 Gaussian 16, Revision A.03,
 Gaussian 16:  EM64L-G16RevA.03 25-Dec-2016

 -------------
 #p 6-31g* mp2
 -------------

 ------------------------------------------------------
 Input file generated by CHIRIPA (05-May-2021 14:53:13)
 ------------------------------------------------------
 Symbolic Z-matrix:
 Charge =  0 Multiplicity = 1

                         Standard orientation:
 ---------------------------------------------------------------------
 Center     Atomic      Atomic             Coordinates (Angstroms)
 Number     Number       Type             X           Y           Z
 ---------------------------------------------------------------------
      1          6           0        3.252547    0.509030    0.126954
      2          6           0        3.065805    1.850771   -0.582159
      3          6           0        1.893231    2.656922   -0.022707
      4          1           0        2.327516   -0.077026    0.038628
      5          1           0        3.408057    0.687798    1.199919
      6          1           0        2.912072    1.669603   -1.653682
      7          1           0        3.991453    2.433623   -0.492299
      8          1           0        2.042856    2.866796    1.041326
      9          1           0        0.957342    2.098435   -0.126655
     10          1           0        1.777865    3.612327   -0.544004
     11          6           0        4.420914   -0.308419   -0.421156
     12          6           0        4.607656   -1.650160    0.287957
     13          6           0        5.780230   -2.456310   -0.271496
     14          1           0        4.265404   -0.487187   -1.494121
     15          1           0        5.345945    0.277637   -0.332830
     16          1           0        3.682008   -2.233012    0.198097
     17          1           0        4.761389   -1.468992    1.359480
     18          1           0        6.716119   -1.897823   -0.167547
     19          1           0        5.630605   -2.666185   -1.335528
     20          1           0        5.895596   -3.411716    0.249802
     21          6           0       -4.633309   -1.896908   -0.503761
     22          6           0       -3.735604   -2.092086    0.551015
     23          6           0       -2.824798   -1.091392    0.902570
     24          6           0       -2.839296    0.097446    0.174735
     25          6           0       -3.721300    0.321902   -0.881191
     26          6           0       -4.623310   -0.692660   -1.215243
     27          1           0       -5.337428   -2.679658   -0.770058
     28          1           0       -3.741108   -3.026306    1.105317
     29          1           0       -2.118882   -1.216025    1.714707
     30          1           0       -3.691975    1.263883   -1.415260
     31          1           0       -5.319332   -0.538307   -2.034861
     32          7           0       -1.879723    1.164177    0.537645
     33          8           0       -1.912621    2.202507   -0.119184
     34          8           0       -1.112881    0.941753    1.472052
 ---------------------------------------------------------------------

 SCF Done:  E(RHF) =  -669.535963142     A.U. after   15 cycles
 E2 =    -0.2091761055D+01 EUMP2 =    -0.67162772419720D+03

 The electronic state is 1-A.
 Alpha  occ. eigenvalues --  -20.61004 -20.60998 -15.86009 -11.31336 -11.27893
 Alpha  occ. eigenvalues --  -11.27889 -11.27628 -11.26895 -11.26886 -11.21075
 Alpha  occ. eigenvalues --  -11.20673 -11.20665 -11.20394 -11.20334 -11.19188
 Alpha  occ. eigenvalues --   -1.60056  -1.39607  -1.19499  -1.08905  -1.07559
 Alpha  occ. eigenvalues --   -1.04892  -1.02561  -0.95747  -0.94968  -0.86292
 Alpha  occ. eigenvalues --   -0.85974  -0.82578  -0.78673  -0.77637  -0.77299
 Alpha  occ. eigenvalues --   -0.72215  -0.71385  -0.70606  -0.65151  -0.64894
 Alpha  occ. eigenvalues --   -0.64208  -0.62238  -0.59972  -0.58445  -0.56576
 Alpha  occ. eigenvalues --   -0.55401  -0.54266  -0.53225  -0.52982  -0.51666
 Alpha  occ. eigenvalues --   -0.51401  -0.49249  -0.48987  -0.48659  -0.46892
 Alpha  occ. eigenvalues --   -0.45716  -0.45040  -0.44801  -0.44717  -0.42822
 Alpha  occ. eigenvalues --   -0.37475  -0.36492
 Alpha virt. eigenvalues --    0.04848   0.11163   0.16353   0.21304   0.23637
 Alpha virt. eigenvalues --    0.25357   0.27223   0.27473   0.28136   0.28347
 Alpha virt. eigenvalues --    0.29180   0.30862   0.32413   0.32418   0.32549

 Mulliken charges:
               1
     1  C   -0.295741
     2  C   -0.301342
     3  C   -0.475011
     4  H    0.149166
     5  H    0.150338
     6  H    0.146040
     7  H    0.146261
     8  H    0.154392
     9  H    0.173902
    10  H    0.154307
    11  C   -0.297486
    12  C   -0.298439
    13  C   -0.475063
    14  H    0.146767
    15  H    0.148197
    16  H    0.149362
    17  H    0.151815
    18  H    0.154866
    19  H    0.153747
    20  H    0.157764
    21  C   -0.170481
    22  C   -0.218633
    23  C   -0.171024
    24  C    0.160507
    25  C   -0.170886
    26  C   -0.218630
    27  H    0.226172
    28  H    0.224032
    29  H    0.276126
    30  H    0.276047
    31  H    0.223993
    32  N    0.485109
    33  O   -0.458205
    34  O   -0.457971
 Sum of Mulliken charges =  -0.00000

 Dipole moment (field-independent basis, Debye):
    X=             -3.7548    Y=             -3.7228    Z=             -1.1858  Tot=              5.4189
 Quadrupole moment (field-independent basis, Debye-Ang):
   XX=            -76.7606   YY=            -94.7968   ZZ=            -92.6379
   XY=             10.2508   XZ=              5.6912   YZ=             -3.0068

 Normal termination of Gaussian 16 at Thu May  6 20:15:54 2021.
