 Gaussian 16, Revision A.03,
 Gaussian 16:  EM64L-G16RevA.03 25-Dec-2016

 -------------
 #p 6-31g* mp2
 -------------

 ------------------------------------------------------
 Input file generated by CHIRIPA (05-May-2021 14:53:11)
 ------------------------------------------------------
 Symbolic Z-matrix:
 Charge =  0 Multiplicity = 1

                         Standard orientation:
 ---------------------------------------------------------------------
 Center     Atomic      Atomic             Coordinates (Angstroms)
 Number     Number       Type             X           Y           Z
 ---------------------------------------------------------------------
      1          6           0        3.472790    0.658811   -0.684189
      2          6           0        3.444255    1.977533    0.089207
      3          6           0        3.530513    3.200584   -0.824302
      4          1           0        4.395224    0.609740   -1.278875
      5          1           0        2.638661    0.643058   -1.399295
      6          1           0        4.277371    1.990207    0.803612
      7          1           0        2.521873    2.023385    0.682270
      8          1           0        2.692185    3.215499   -1.528280
      9          1           0        4.457658    3.182132   -1.406249
     10          1           0        3.508478    4.132447   -0.250711
     11          6           0        3.387336   -0.572998    0.215297
     12          6           0        3.415870   -1.891720   -0.558099
     13          6           0        3.329612   -3.114771    0.355410
     14          1           0        4.221464   -0.557245    0.930403
     15          1           0        2.464901   -0.523927    0.809984
     16          1           0        4.338252   -1.937572   -1.151162
     17          1           0        2.582754   -1.904393   -1.272503
     18          1           0        2.402467   -3.096319    0.937357
     19          1           0        4.167940   -3.129686    1.059388
     20          1           0        3.351647   -4.046634   -0.218181
     21          6           0       -4.938470    0.036511   -0.938953
     22          6           0       -4.005144   -0.939051   -1.304603
     23          6           0       -2.750575   -0.987330   -0.689565
     24          6           0       -2.461370   -0.040291    0.291642
     25          6           0       -3.369983    0.943886    0.677788
     26          6           0       -4.618476    0.973215    0.049334
     27          1           0       -5.910689    0.066655   -1.421941
     28          1           0       -4.250918   -1.667782   -2.071801
     29          1           0       -2.009245   -1.731813   -0.953370
     30          1           0       -3.096122    1.656894    1.445928
     31          1           0       -5.341340    1.731978    0.335322
     32          7           0       -1.136431   -0.081371    0.949858
     33          8           0       -0.906008    0.764307    1.811467
     34          8           0       -0.353453   -0.958470    0.591695
 ---------------------------------------------------------------------

 SCF Done:  E(RHF) =  -669.536867069     A.U. after   15 cycles
 E2 =    -0.2091661362D+01 EUMP2 =    -0.67162852843104D+03

 The electronic state is 1-A.
 Alpha  occ. eigenvalues --  -20.61159 -20.61146 -15.86162 -11.31411 -11.27962
 Alpha  occ. eigenvalues --  -11.27959 -11.27687 -11.26952 -11.26942 -11.20410
 Alpha  occ. eigenvalues --  -11.20267 -11.20200 -11.20122 -11.19799 -11.19674
 Alpha  occ. eigenvalues --   -1.60200  -1.39757  -1.19570  -1.08989  -1.07073
 Alpha  occ. eigenvalues --   -1.04954  -1.02304  -0.95842  -0.94763  -0.86358
 Alpha  occ. eigenvalues --   -0.85788  -0.82678  -0.78377  -0.77740  -0.76861
 Alpha  occ. eigenvalues --   -0.72384  -0.71505  -0.70678  -0.65228  -0.64958
 Alpha  occ. eigenvalues --   -0.63673  -0.62301  -0.59689  -0.58150  -0.56383
 Alpha  occ. eigenvalues --   -0.55462  -0.54043  -0.53289  -0.53044  -0.51523
 Alpha  occ. eigenvalues --   -0.51205  -0.49217  -0.49137  -0.48647  -0.46704
 Alpha  occ. eigenvalues --   -0.45392  -0.45174  -0.44444  -0.44175  -0.42518
 Alpha  occ. eigenvalues --   -0.37545  -0.36551
 Alpha virt. eigenvalues --    0.04771   0.11105   0.16278   0.21225   0.24165
 Alpha virt. eigenvalues --    0.25409   0.27166   0.27767   0.28338   0.28920
 Alpha virt. eigenvalues --    0.29208   0.30862   0.32184   0.32655   0.32857

 Mulliken charges:
               1
     1  C   -0.295921
     2  C   -0.302284
     3  C   -0.474458
     4  H    0.142958
     5  H    0.146249
     6  H    0.149142
     7  H    0.162764
     8  H    0.151610
     9  H    0.151907
    10  H    0.157335
    11  C   -0.309317
    12  C   -0.295012
    13  C   -0.478303
    14  H    0.141972
    15  H    0.180900
    16  H    0.144005
    17  H    0.150525
    18  H    0.166486
    19  H    0.150891
    20  H    0.152299
    21  C   -0.170299
    22  C   -0.218554
    23  C   -0.170685
    24  C    0.157737
    25  C   -0.170491
    26  C   -0.218599
    27  H    0.226483
    28  H    0.224328
    29  H    0.275988
    30  H    0.276115
    31  H    0.224272
    32  N    0.489630
    33  O   -0.458683
    34  O   -0.460990
 Sum of Mulliken charges =  -0.00000

 Dipole moment (field-independent basis, Debye):
    X=             -5.1357    Y=              0.1444    Z=             -2.1378  Tot=              5.5648
 Quadrupole moment (field-independent basis, Debye-Ang):
   XX=            -72.3912   YY=            -93.7240   ZZ=            -95.4948
   XY=             -1.3375   XZ=              4.3836   YZ=              3.3496

 Normal termination of Gaussian 16 at Thu May  6 02:28:40 2021.
