 Gaussian 16, Revision A.03,
 Gaussian 16:  EM64L-G16RevA.03 25-Dec-2016

 -------------
 #p 6-31g* mp2
 -------------

 ------------------------------------------------------
 Input file generated by CHIRIPA (05-May-2021 14:57:26)
 ------------------------------------------------------
 Symbolic Z-matrix:
 Charge =  0 Multiplicity = 1

                         Standard orientation:
 ---------------------------------------------------------------------
 Center     Atomic      Atomic             Coordinates (Angstroms)
 Number     Number       Type             X           Y           Z
 ---------------------------------------------------------------------
      1          6           0       -1.998155    0.010933    0.317491
      2          6           0       -2.795075    1.106749    0.664805
      3          6           0       -4.183167    1.053607    0.506930
      4          6           0       -4.743537   -0.116372   -0.003388
      5          6           0       -3.976360   -1.224792   -0.358543
      6          6           0       -2.590297   -1.149295   -0.192176
      7          1           0       -0.920640    0.060898    0.443431
      8          1           0       -2.337947    2.009094    1.060852
      9          1           0       -4.823776    1.887276    0.767763
     10          1           0       -4.460891   -2.110635   -0.750882
     11          1           0       -1.973879   -2.001858   -0.462747
     12          7           0       -6.211973   -0.184465   -0.175019
     13          8           0       -6.681308   -1.226750   -0.626686
     14          8           0       -6.865794    0.805739    0.145375
     15          6           0        3.155780    2.228953   -0.235530
     16          6           0        2.532506    1.041983    0.163407
     17          6           0        3.268285   -0.140709    0.283488
     18          6           0        4.631621   -0.100172   -0.004536
     19          6           0        5.281307    1.066627   -0.404259
     20          6           0        4.525777    2.237472   -0.517592
     21          1           0        2.576538    3.143095   -0.326192
     22          1           0        1.468699    1.032402    0.383108
     23          1           0        2.811091   -1.073571    0.590345
     24          1           0        6.343344    1.044943   -0.616446
     25          1           0        5.012474    3.157827   -0.827620
     26          7           0        5.421013   -1.345963    0.119018
     27          8           0        6.620779   -1.283881   -0.140490
     28          8           0        4.825025   -2.360907    0.473027
 ---------------------------------------------------------------------

 SCF Done:  E(RHF) =  -868.336360760     A.U. after   16 cycles
 E2 =    -0.2599497987D+01 EUMP2 =    -0.87093585874607D+03

 The electronic state is 1-A.
 Alpha  occ. eigenvalues --  -20.61398 -20.61386 -20.61170 -20.61163 -15.86456
 Alpha  occ. eigenvalues --  -15.86226 -11.31944 -11.31720 -11.28612 -11.28496
 Alpha  occ. eigenvalues --  -11.28325 -11.28306 -11.28268 -11.28209 -11.27728
 Alpha  occ. eigenvalues --  -11.27514 -11.27422 -11.27351  -1.60467  -1.60241
 Alpha  occ. eigenvalues --   -1.40018  -1.39790  -1.20144  -1.19915  -1.09514
 Alpha  occ. eigenvalues --   -1.09316  -1.05586  -1.05328  -0.96323  -0.96126
 Alpha  occ. eigenvalues --   -0.86978  -0.86737  -0.83174  -0.82941  -0.78198
 Alpha  occ. eigenvalues --   -0.77942  -0.72671  -0.72444  -0.71793  -0.71564
 Alpha  occ. eigenvalues --   -0.71249  -0.71119  -0.65805  -0.65639  -0.65578
 Alpha  occ. eigenvalues --   -0.65335  -0.62948  -0.62665  -0.56125  -0.55903
 Alpha  occ. eigenvalues --   -0.53881  -0.53685  -0.53650  -0.53432  -0.49440
 Alpha  occ. eigenvalues --   -0.49418  -0.49213  -0.49189  -0.45397  -0.45166
 Alpha  occ. eigenvalues --   -0.38117  -0.37942  -0.37184  -0.36916
 Alpha virt. eigenvalues --    0.04373   0.04581   0.10467   0.10726   0.15814
 Alpha virt. eigenvalues --    0.16019   0.17390   0.21887   0.24419   0.26645
 Alpha virt. eigenvalues --    0.27577   0.28722   0.29814   0.31545   0.32012

 Mulliken charges:
               1
     1  C   -0.173656
     2  C   -0.219576
     3  C   -0.170207
     4  C    0.159298
     5  C   -0.169852
     6  C   -0.219153
     7  H    0.220800
     8  H    0.220277
     9  H    0.276979
    10  H    0.278164
    11  H    0.226757
    12  N    0.487858
    13  O   -0.458362
    14  O   -0.459376
    15  C   -0.170862
    16  C   -0.220982
    17  C   -0.171513
    18  C    0.159120
    19  C   -0.169453
    20  C   -0.218139
    21  H    0.226920
    22  H    0.217050
    23  H    0.273176
    24  H    0.278287
    25  H    0.226375
    26  N    0.488175
    27  O   -0.457836
    28  O   -0.460269
 Sum of Mulliken charges =  -0.00000

 Dipole moment (field-independent basis, Debye):
    X=              2.4423    Y=              4.6118    Z=              0.0937  Tot=              5.2194
 Quadrupole moment (field-independent basis, Debye-Ang):
   XX=           -174.8514   YY=           -100.4366   ZZ=           -105.4091
   XY=             21.2836   XZ=             -6.5121   YZ=              1.0326

 Normal termination of Gaussian 16 at Thu May  6 19:43:58 2021.
