 Gaussian 16, Revision A.03,
 Gaussian 16:  EM64L-G16RevA.03 25-Dec-2016

 -------------
 #p 6-31g* mp2
 -------------

 ------------------------------------------------------
 Input file generated by CHIRIPA (05-May-2021 14:57:26)
 ------------------------------------------------------
 Symbolic Z-matrix:
 Charge =  0 Multiplicity = 1

                         Standard orientation:
 ---------------------------------------------------------------------
 Center     Atomic      Atomic             Coordinates (Angstroms)
 Number     Number       Type             X           Y           Z
 ---------------------------------------------------------------------
      1          6           0       -1.378991   -1.466903    1.242481
      2          6           0       -1.140261   -0.283718    0.535656
      3          6           0       -2.194920    0.408461   -0.066947
      4          6           0       -3.481546   -0.113393    0.057760
      5          6           0       -3.751468   -1.289746    0.755346
      6          6           0       -2.681536   -1.965262    1.349881
      7          1           0       -0.553774   -1.998132    1.707463
      8          1           0       -0.129717    0.105657    0.450611
      9          1           0       -2.038401    1.326636   -0.620007
     10          1           0       -4.769678   -1.653211    0.822872
     11          1           0       -2.869903   -2.883910    1.898196
     12          7           0       -4.606151    0.610566   -0.575917
     13          8           0       -5.730510    0.129972   -0.451485
     14          8           0       -4.341962    1.644890   -1.185027
     15          6           0        2.628569    2.482421    0.764625
     16          6           0        3.707108    1.787777    1.322072
     17          6           0        4.085883    0.540548    0.816604
     18          6           0        3.360741    0.015217   -0.251800
     19          6           0        2.281553    0.682917   -0.828705
     20          6           0        1.920482    1.928750   -0.307094
     21          1           0        2.341204    3.450755    1.163556
     22          1           0        4.258835    2.215332    2.154441
     23          1           0        4.916781   -0.018743    1.229182
     24          1           0        1.750721    0.231074   -1.657845
     25          1           0        1.082449    2.465963   -0.742003
     26          7           0        3.752362   -1.304430   -0.795461
     27          8           0        3.097338   -1.745603   -1.737239
     28          8           0        4.706923   -1.872606   -0.269510
 ---------------------------------------------------------------------

 SCF Done:  E(RHF) =  -868.336991102     A.U. after   16 cycles
 E2 =    -0.2601565433D+01 EUMP2 =    -0.87093855653564D+03

 The electronic state is 1-A.
 Alpha  occ. eigenvalues --  -20.61614 -20.61609 -20.60942 -20.60926 -15.86675
 Alpha  occ. eigenvalues --  -15.85988 -11.32200 -11.31323 -11.28791 -11.28743
 Alpha  occ. eigenvalues --  -11.28488 -11.27930 -11.27842 -11.27827 -11.27735
 Alpha  occ. eigenvalues --  -11.27532 -11.26834 -11.26741  -1.60693  -1.60012
 Alpha  occ. eigenvalues --   -1.40239  -1.39568  -1.20402  -1.19465  -1.09732
 Alpha  occ. eigenvalues --   -1.08852  -1.05834  -1.04867  -0.96541  -0.95706
 Alpha  occ. eigenvalues --   -0.87173  -0.86266  -0.83378  -0.82545  -0.78412
 Alpha  occ. eigenvalues --   -0.77613  -0.72877  -0.72207  -0.72034  -0.71423
 Alpha  occ. eigenvalues --   -0.71333  -0.70568  -0.66028  -0.65767  -0.65112
 Alpha  occ. eigenvalues --   -0.64898  -0.63147  -0.62236  -0.56227  -0.55362
 Alpha  occ. eigenvalues --   -0.54256  -0.53858  -0.53186  -0.52794  -0.49654
 Alpha  occ. eigenvalues --   -0.49629  -0.48971  -0.48954  -0.45607  -0.44982
 Alpha  occ. eigenvalues --   -0.38363  -0.37443  -0.37368  -0.36471
 Alpha virt. eigenvalues --    0.04095   0.04922   0.10083   0.11256   0.15471
 Alpha virt. eigenvalues --    0.16435   0.19779   0.21853   0.25091   0.27465
 Alpha virt. eigenvalues --    0.28128   0.28485   0.30604   0.31399   0.31657

 Mulliken charges:
               1
     1  C   -0.172559
     2  C   -0.226336
     3  C   -0.176933
     4  C    0.159707
     5  C   -0.171210
     6  C   -0.217778
     7  H    0.228776
     8  H    0.234317
     9  H    0.267254
    10  H    0.276046
    11  H    0.224853
    12  N    0.488303
    13  O   -0.459164
    14  O   -0.463008
    15  C   -0.169482
    16  C   -0.218381
    17  C   -0.170783
    18  C    0.160075
    19  C   -0.184238
    20  C   -0.227315
    21  H    0.231157
    22  H    0.227750
    23  H    0.278679
    24  H    0.280866
    25  H    0.227947
    26  N    0.487423
    27  O   -0.457976
    28  O   -0.457991
 Sum of Mulliken charges =  -0.00000

 Dipole moment (field-independent basis, Debye):
    X=              2.8990    Y=              2.0676    Z=              4.2380  Tot=              5.5353
 Quadrupole moment (field-independent basis, Debye-Ang):
   XX=           -136.7553   YY=           -102.1788   ZZ=           -103.6449
   XY=             27.0353   XZ=              0.9563   YZ=             -3.0309

 Normal termination of Gaussian 16 at Fri May  7 06:36:22 2021.
