 Gaussian 16, Revision A.03,
 Gaussian 16:  EM64L-G16RevA.03 25-Dec-2016

 -------------
 #p 6-31g* mp2
 -------------

 ------------------------------------------------------
 Input file generated by CHIRIPA (05-May-2021 14:57:24)
 ------------------------------------------------------
 Symbolic Z-matrix:
 Charge =  0 Multiplicity = 1

                         Standard orientation:
 ---------------------------------------------------------------------
 Center     Atomic      Atomic             Coordinates (Angstroms)
 Number     Number       Type             X           Y           Z
 ---------------------------------------------------------------------
      1          6           0        2.621966    2.371655    0.599316
      2          6           0        3.321582    1.244593    1.042926
      3          6           0        3.074568   -0.011278    0.480501
      4          6           0        2.116835   -0.104214   -0.528162
      5          6           0        1.403362    1.000072   -0.991626
      6          6           0        1.666773    2.246019   -0.414756
      7          1           0        2.820222    3.343391    1.041831
      8          1           0        4.063957    1.339182    1.830312
      9          1           0        3.601690   -0.900254    0.804972
     10          1           0        0.669221    0.874362   -1.778171
     11          1           0        1.121923    3.119586   -0.761257
     12          7           0        1.846653   -1.428495   -1.131221
     13          8           0        0.997911   -1.483847   -2.018470
     14          8           0        2.488742   -2.386040   -0.705232
     15          6           0       -3.540566    1.563949   -0.855001
     16          6           0       -2.462688    1.994541   -0.074431
     17          6           0       -1.691603    1.073671    0.641093
     18          6           0       -2.028028   -0.276266    0.552880
     19          6           0       -3.095850   -0.736355   -0.216123
     20          6           0       -3.853156    0.202276   -0.923236
     21          1           0       -4.134211    2.286201   -1.407570
     22          1           0       -2.217616    3.051411   -0.019568
     23          1           0       -0.851769    1.379597    1.253062
     24          1           0       -3.315801   -1.796457   -0.251099
     25          1           0       -4.689686   -0.135002   -1.528633
     26          7           0       -1.219010   -1.260551    1.305921
     27          8           0       -1.535956   -2.444307    1.211561
     28          8           0       -0.283272   -0.829640    1.976257
 ---------------------------------------------------------------------

 SCF Done:  E(RHF) =  -868.336482793     A.U. after   16 cycles
 E2 =    -0.2604626514D+01 EUMP2 =    -0.87094110930703D+03

 The electronic state is 1-A.
 Alpha  occ. eigenvalues --  -20.60657 -20.60611 -20.60334 -20.60273 -15.85671
 Alpha  occ. eigenvalues --  -15.85356 -11.31095 -11.30790 -11.27741 -11.27679
 Alpha  occ. eigenvalues --  -11.27543 -11.27496 -11.27349 -11.27289 -11.26829
 Alpha  occ. eigenvalues --  -11.26691 -11.26592 -11.26410  -1.59702  -1.59369
 Alpha  occ. eigenvalues --   -1.39252  -1.38924  -1.19331  -1.19024  -1.08709
 Alpha  occ. eigenvalues --   -1.08425  -1.04782  -1.04441  -0.95528  -0.95231
 Alpha  occ. eigenvalues --   -0.86143  -0.85869  -0.82377  -0.82065  -0.77391
 Alpha  occ. eigenvalues --   -0.77085  -0.71905  -0.71590  -0.71248  -0.70473
 Alpha  occ. eigenvalues --   -0.70439  -0.70178  -0.64986  -0.64776  -0.64701
 Alpha  occ. eigenvalues --   -0.64508  -0.62110  -0.61815  -0.55275  -0.55014
 Alpha  occ. eigenvalues --   -0.53255  -0.52935  -0.52589  -0.52474  -0.48673
 Alpha  occ. eigenvalues --   -0.48634  -0.48357  -0.48321  -0.44644  -0.44304
 Alpha  occ. eigenvalues --   -0.37403  -0.36994  -0.36771  -0.35512
 Alpha virt. eigenvalues --    0.05010   0.05602   0.10962   0.11852   0.16322
 Alpha virt. eigenvalues --    0.17144   0.20874   0.21932   0.26376   0.28060
 Alpha virt. eigenvalues --    0.28328   0.28576   0.30210   0.31893   0.32628

 Mulliken charges:
               1
     1  C   -0.171879
     2  C   -0.216855
     3  C   -0.158374
     4  C    0.165727
     5  C   -0.173395
     6  C   -0.227422
     7  H    0.222834
     8  H    0.223803
     9  H    0.278855
    10  H    0.274368
    11  H    0.215536
    12  N    0.487379
    13  O   -0.466528
    14  O   -0.452999
    15  C   -0.170230
    16  C   -0.226100
    17  C   -0.171903
    18  C    0.158591
    19  C   -0.164272
    20  C   -0.219156
    21  H    0.224655
    22  H    0.216859
    23  H    0.276983
    24  H    0.279448
    25  H    0.224692
    26  N    0.486636
    27  O   -0.451877
    28  O   -0.465378
 Sum of Mulliken charges =  -0.00000

 Dipole moment (field-independent basis, Debye):
    X=             -1.8101    Y=              7.6275    Z=             -0.4136  Tot=              7.8502
 Quadrupole moment (field-independent basis, Debye-Ang):
   XX=            -85.2784   YY=           -105.3569   ZZ=           -108.9813
   XY=              4.3848   XZ=             11.8720   YZ=              0.0207

 Normal termination of Gaussian 16 at Thu May  6 19:40:45 2021.
