 Gaussian 16, Revision A.03,
 Gaussian 16:  EM64L-G16RevA.03 25-Dec-2016

 -------------
 #p 6-31g* mp2
 -------------

 ------------------------------------------------------
 Input file generated by CHIRIPA (05-May-2021 14:51:10)
 ------------------------------------------------------
 Symbolic Z-matrix:
 Charge =  0 Multiplicity = 1

                         Standard orientation:
 ---------------------------------------------------------------------
 Center     Atomic      Atomic             Coordinates (Angstroms)
 Number     Number       Type             X           Y           Z
 ---------------------------------------------------------------------
      1          6           0       -3.665974   -0.478580   -0.189495
      2          6           0       -3.921464    1.014381   -0.398732
      3          6           0       -5.309087    1.301893   -0.972868
      4          1           0       -3.783356   -1.002068   -1.148205
      5          1           0       -4.433691   -0.883980    0.484045
      6          1           0       -3.152682    1.417137   -1.070578
      7          1           0       -3.803272    1.534403    0.560551
      8          1           0       -6.088822    0.926995   -0.301998
      9          1           0       -5.434535    0.809063   -1.942395
     10          1           0       -5.470521    2.375096   -1.114413
     11          6           0       -2.282926   -0.781986    0.383959
     12          6           0       -2.027436   -2.274946    0.593196
     13          6           0       -0.639813   -2.562458    1.167332
     14          1           0       -1.515209   -0.376585   -0.289581
     15          1           0       -2.165543   -0.258497    1.342670
     16          1           0       -2.145628   -2.794968   -0.366086
     17          1           0       -2.796218   -2.677702    1.265042
     18          1           0       -0.514365   -2.069628    2.136859
     19          1           0        0.139922   -2.187561    0.496463
     20          1           0       -0.478379   -3.635661    1.308877
     21          6           0        3.420399    0.196753   -0.540643
     22          6           0        3.339235   -1.293793   -0.209476
     23          6           0        4.236975   -2.148077   -1.105051
     24          1           0        3.141748    0.347855   -1.592530
     25          1           0        4.462550    0.530877   -0.442265
     26          1           0        2.297319   -1.624694   -0.307105
     27          1           0        3.617926   -1.441343    0.841798
     28          1           0        5.284145   -1.845997   -1.001201
     29          1           0        3.956034   -2.030390   -2.156632
     30          1           0        4.163465   -3.210125   -0.851064
     31          6           0        2.528501    1.063813    0.346178
     32          6           0        2.609665    2.554358    0.015011
     33          6           0        1.711925    3.408642    0.910587
     34          1           0        1.486350    0.729689    0.247801
     35          1           0        2.807151    0.912710    1.398066
     36          1           0        2.330974    2.701908   -1.036263
     37          1           0        3.651581    2.885259    0.112641
     38          1           0        1.992866    3.290955    1.962167
     39          1           0        0.664754    3.106563    0.806736
     40          1           0        1.785434    4.470690    0.656600
 ---------------------------------------------------------------------

 SCF Done:  E(RHF) =  -470.733327438     A.U. after   11 cycles
 E2 =    -0.1583050492D+01 EUMP2 =    -0.47231637793040D+03

 The electronic state is 1-A.
 Alpha  occ. eigenvalues --  -11.21632 -11.21621 -11.21583 -11.21573 -11.21446
 Alpha  occ. eigenvalues --  -11.21385 -11.21385 -11.21325 -11.21092 -11.21057
 Alpha  occ. eigenvalues --  -11.21051 -11.21045  -1.08464  -1.08411  -1.03555
 Alpha  occ. eigenvalues --   -1.03507  -0.96001  -0.95958  -0.87027  -0.86966
 Alpha  occ. eigenvalues --   -0.79655  -0.79539  -0.78317  -0.78181  -0.65144
 Alpha  occ. eigenvalues --   -0.65003  -0.61025  -0.60848  -0.59369  -0.59329
 Alpha  occ. eigenvalues --   -0.57617  -0.57562  -0.55322  -0.55222  -0.52692
 Alpha  occ. eigenvalues --   -0.52662  -0.52455  -0.52352  -0.50040  -0.49834
 Alpha  occ. eigenvalues --   -0.48045  -0.47807  -0.46785  -0.46497  -0.46007
 Alpha  occ. eigenvalues --   -0.45770  -0.45734  -0.45370  -0.43810  -0.43764
 Alpha virt. eigenvalues --    0.20691   0.23205   0.23742   0.24273   0.25451
 Alpha virt. eigenvalues --    0.26905   0.26971   0.27568   0.27998   0.29489
 Alpha virt. eigenvalues --    0.30357   0.31645   0.31679   0.31935   0.31978

 Mulliken charges:
               1
     1  C   -0.298299
     2  C   -0.299723
     3  C   -0.475724
     4  H    0.149685
     5  H    0.149874
     6  H    0.151568
     7  H    0.152147
     8  H    0.155309
     9  H    0.155194
    10  H    0.160405
    11  C   -0.299426
    12  C   -0.299419
    13  C   -0.482744
    14  H    0.149205
    15  H    0.150232
    16  H    0.151718
    17  H    0.152130
    18  H    0.155780
    19  H    0.161841
    20  H    0.160289
    21  C   -0.297841
    22  C   -0.306916
    23  C   -0.475157
    24  H    0.148981
    25  H    0.149579
    26  H    0.158692
    27  H    0.152450
    28  H    0.155177
    29  H    0.154715
    30  H    0.160447
    31  C   -0.300458
    32  C   -0.299539
    33  C   -0.475892
    34  H    0.151444
    35  H    0.149834
    36  H    0.151596
    37  H    0.151904
    38  H    0.155058
    39  H    0.155823
    40  H    0.160059
 Sum of Mulliken charges =  -0.00000

 Dipole moment (field-independent basis, Debye):
    X=             -0.0107    Y=             -0.0108    Z=              0.0188  Tot=              0.0242
 Quadrupole moment (field-independent basis, Debye-Ang):
   XX=            -85.3235   YY=            -85.4945   ZZ=            -83.9052
   XY=              0.8282   XZ=              0.1275   YZ=             -0.1422

 Normal termination of Gaussian 16 at Thu May  6 05:24:01 2021.
