 Gaussian 16, Revision A.03,
 Gaussian 16:  EM64L-G16RevA.03 25-Dec-2016

 -------------
 #p 6-31g* mp2
 -------------

 ------------------------------------------------------
 Input file generated by CHIRIPA (05-May-2021 14:53:15)
 ------------------------------------------------------
 Symbolic Z-matrix:
 Charge =  0 Multiplicity = 1

                         Standard orientation:
 ---------------------------------------------------------------------
 Center     Atomic      Atomic             Coordinates (Angstroms)
 Number     Number       Type             X           Y           Z
 ---------------------------------------------------------------------
      1          6           0        2.238862    0.903463    0.160352
      2          6           0        2.187219    2.277366   -0.508758
      3          6           0        1.713751    3.379321    0.439566
      4          1           0        1.241368    0.653113    0.546714
      5          1           0        2.907982    0.952087    1.030587
      6          1           0        1.519475    2.225808   -1.378284
      7          1           0        3.184908    2.524390   -0.893740
      8          1           0        2.383752    3.459806    1.301669
      9          1           0        0.708857    3.159528    0.814372
     10          1           0        1.684324    4.353037   -0.059304
     11          6           0        2.710353   -0.208555   -0.774978
     12          6           0        2.761997   -1.582458   -0.105869
     13          6           0        3.235465   -2.684413   -1.054192
     14          1           0        2.041233   -0.257179   -1.645213
     15          1           0        3.707848    0.041795   -1.161340
     16          1           0        1.764308   -1.829482    0.279114
     17          1           0        3.429741   -1.530900    0.763658
     18          1           0        4.240359   -2.464620   -1.428998
     19          1           0        2.565464   -2.764898   -1.916295
     20          1           0        3.264892   -3.658129   -0.555323
     21          6           0       -3.044436    0.443143   -1.909477
     22          6           0       -2.683669    1.400835   -0.955960
     23          6           0       -2.067478    1.016344    0.238621
     24          6           0       -1.825866   -0.340532    0.447900
     25          6           0       -2.173501   -1.318458   -0.482745
     26          6           0       -2.788652   -0.911060   -1.670248
     27          1           0       -3.522704    0.750723   -2.834707
     28          1           0       -2.881091    2.453234   -1.139059
     29          1           0       -1.777767    1.736798    0.993892
     30          1           0       -1.963805   -2.360085   -0.271891
     31          1           0       -3.067735   -1.657012   -2.408971
     32          7           0       -1.174082   -0.759702    1.708803
     33          8           0       -0.972109   -1.961407    1.869260
     34          8           0       -0.877530    0.121397    2.512768
 ---------------------------------------------------------------------

 SCF Done:  E(RHF) =  -669.536171867     A.U. after   15 cycles
 E2 =    -0.2094039844D+01 EUMP2 =    -0.67163021171104D+03

 The electronic state is 1-A.
 Alpha  occ. eigenvalues --  -20.61030 -20.61024 -15.86015 -11.31341 -11.27902
 Alpha  occ. eigenvalues --  -11.27896 -11.27626 -11.26905 -11.26896 -11.21417
 Alpha  occ. eigenvalues --  -11.21044 -11.20989 -11.20980 -11.20921 -11.20687
 Alpha  occ. eigenvalues --   -1.60066  -1.39624  -1.19509  -1.08914  -1.08064
 Alpha  occ. eigenvalues --   -1.04900  -1.03203  -0.95756  -0.95672  -0.86692
 Alpha  occ. eigenvalues --   -0.86302  -0.82586  -0.79256  -0.77872  -0.77622
 Alpha  occ. eigenvalues --   -0.72249  -0.71390  -0.70612  -0.65161  -0.64911
 Alpha  occ. eigenvalues --   -0.64687  -0.62255  -0.60613  -0.59033  -0.57261
 Alpha  occ. eigenvalues --   -0.55403  -0.54986  -0.53226  -0.52989  -0.52383
 Alpha  occ. eigenvalues --   -0.52089  -0.49646  -0.49023  -0.49009  -0.47595
 Alpha  occ. eigenvalues --   -0.46372  -0.45407  -0.45326  -0.44825  -0.43445
 Alpha  occ. eigenvalues --   -0.37470  -0.36489
 Alpha virt. eigenvalues --    0.04851   0.11050   0.16325   0.20710   0.22961
 Alpha virt. eigenvalues --    0.24127   0.26011   0.26979   0.27505   0.27918
 Alpha virt. eigenvalues --    0.29058   0.30463   0.31204   0.31946   0.32268

 Mulliken charges:
               1
     1  C   -0.300051
     2  C   -0.299649
     3  C   -0.474791
     4  H    0.151531
     5  H    0.153872
     6  H    0.147225
     7  H    0.151452
     8  H    0.159814
     9  H    0.150965
    10  H    0.156387
    11  C   -0.298876
    12  C   -0.303184
    13  C   -0.475206
    14  H    0.144877
    15  H    0.147676
    16  H    0.159349
    17  H    0.154897
    18  H    0.153266
    19  H    0.150110
    20  H    0.161995
    21  C   -0.170610
    22  C   -0.218639
    23  C   -0.173716
    24  C    0.156516
    25  C   -0.171332
    26  C   -0.218462
    27  H    0.226339
    28  H    0.224592
    29  H    0.277877
    30  H    0.276200
    31  H    0.224177
    32  N    0.489371
    33  O   -0.457636
    34  O   -0.456333
 Sum of Mulliken charges =  -0.00000

 Dipole moment (field-independent basis, Debye):
    X=             -2.4004    Y=              1.4050    Z=             -4.2844  Tot=              5.1080
 Quadrupole moment (field-independent basis, Debye-Ang):
   XX=            -86.1558   YY=            -92.3026   ZZ=            -99.1331
   XY=             -1.2363   XZ=              8.2574   YZ=              3.2942

 Normal termination of Gaussian 16 at Wed May  5 15:38:43 2021.
