 Gaussian 16, Revision A.03,
 Gaussian 16:  EM64L-G16RevA.03 25-Dec-2016

 -------------
 #p 6-31g* mp2
 -------------

 ------------------------------------------------------
 Input file generated by CHIRIPA (05-May-2021 14:57:23)
 ------------------------------------------------------
 Symbolic Z-matrix:
 Charge =  0 Multiplicity = 1

                         Standard orientation:
 ---------------------------------------------------------------------
 Center     Atomic      Atomic             Coordinates (Angstroms)
 Number     Number       Type             X           Y           Z
 ---------------------------------------------------------------------
      1          6           0       -3.163789   -2.504276    0.462748
      2          6           0       -2.037491   -1.807419    0.012900
      3          6           0       -2.115282   -0.441142   -0.273080
      4          6           0       -3.340725    0.199684   -0.097235
      5          6           0       -4.480609   -0.467006    0.349393
      6          6           0       -4.379610   -1.833029    0.629266
      7          1           0       -3.094345   -3.565534    0.682532
      8          1           0       -1.091965   -2.326132   -0.117339
      9          1           0       -1.258980    0.122700   -0.622720
     10          1           0       -5.409424    0.077316    0.469535
     11          1           0       -5.255947   -2.371664    0.978479
     12          7           0       -3.435363    1.645966   -0.396756
     13          8           0       -4.526573    2.187535   -0.233658
     14          8           0       -2.416539    2.210607   -0.788948
     15          6           0        3.231579    2.507592    0.559388
     16          6           0        4.465727    1.880541    0.358863
     17          6           0        4.529532    0.513128    0.074858
     18          6           0        3.334171   -0.200005   -0.001581
     19          6           0        2.089201    0.396137    0.193240
     20          6           0        2.049340    1.764697    0.476084
     21          1           0        3.191314    3.570277    0.779558
     22          1           0        5.385484    2.454982    0.422951
     23          1           0        5.471416    0.002448   -0.084765
     24          1           0        1.189362   -0.202837    0.122961
     25          1           0        1.089465    2.249027    0.631354
     26          7           0        3.389044   -1.648231   -0.301629
     27          8           0        2.321559   -2.254263   -0.363575
     28          8           0        4.498501   -2.149898   -0.469180
 ---------------------------------------------------------------------

 SCF Done:  E(RHF) =  -868.339731648     A.U. after   15 cycles
 E2 =    -0.2599658444D+01 EUMP2 =    -0.87093939009258D+03

 The electronic state is 1-A.
 Alpha  occ. eigenvalues --  -20.61284 -20.61240 -20.61170 -20.61130 -15.86304
 Alpha  occ. eigenvalues --  -15.86192 -11.31442 -11.31384 -11.28026 -11.27946
 Alpha  occ. eigenvalues --  -11.27927 -11.27876 -11.27565 -11.27501 -11.26901
 Alpha  occ. eigenvalues --  -11.26858 -11.26828 -11.26738  -1.60325  -1.60223
 Alpha  occ. eigenvalues --   -1.39892  -1.39785  -1.19559  -1.19498  -1.08977
 Alpha  occ. eigenvalues --   -1.08906  -1.04940  -1.04857  -0.95872  -0.95789
 Alpha  occ. eigenvalues --   -0.86331  -0.86257  -0.82714  -0.82627  -0.77875
 Alpha  occ. eigenvalues --   -0.77654  -0.72537  -0.72416  -0.71632  -0.71538
 Alpha  occ. eigenvalues --   -0.70744  -0.70525  -0.65216  -0.65153  -0.64899
 Alpha  occ. eigenvalues --   -0.64806  -0.62492  -0.62010  -0.55416  -0.55301
 Alpha  occ. eigenvalues --   -0.53258  -0.53213  -0.53015  -0.52892  -0.49306
 Alpha  occ. eigenvalues --   -0.49243  -0.49184  -0.49140  -0.45347  -0.45231
 Alpha  occ. eigenvalues --   -0.37490  -0.37434  -0.36516  -0.36462
 Alpha virt. eigenvalues --    0.04705   0.04770   0.11140   0.11182   0.16275
 Alpha virt. eigenvalues --    0.16305   0.19111   0.22333   0.24918   0.27279
 Alpha virt. eigenvalues --    0.28204   0.29265   0.30775   0.31480   0.33004

 Mulliken charges:
               1
     1  C   -0.170937
     2  C   -0.224816
     3  C   -0.179684
     4  C    0.160048
     5  C   -0.171644
     6  C   -0.217862
     7  H    0.229760
     8  H    0.243338
     9  H    0.268812
    10  H    0.275342
    11  H    0.224467
    12  N    0.488829
    13  O   -0.457916
    14  O   -0.467777
    15  C   -0.170339
    16  C   -0.218087
    17  C   -0.170853
    18  C    0.159831
    19  C   -0.175591
    20  C   -0.220520
    21  H    0.229575
    22  H    0.224777
    23  H    0.275598
    24  H    0.267500
    25  H    0.236414
    26  N    0.490308
    27  O   -0.471928
    28  O   -0.456644
 Sum of Mulliken charges =  -0.00000

 Dipole moment (field-independent basis, Debye):
    X=              0.1906    Y=              0.0084    Z=              2.1816  Tot=              2.1899
 Quadrupole moment (field-independent basis, Debye-Ang):
   XX=            -97.6274   YY=           -109.3034   ZZ=           -106.4038
   XY=             35.6687   XZ=             -1.7666   YZ=              0.5602

 Normal termination of Gaussian 16 at Thu May  6 03:23:56 2021.
