 Gaussian 16, Revision A.03,
 Gaussian 16:  EM64L-G16RevA.03 25-Dec-2016

 -------------
 #p 6-31g* mp2
 -------------

 ------------------------------------------------------
 Input file generated by CHIRIPA (05-May-2021 14:55:25)
 ------------------------------------------------------
 Symbolic Z-matrix:
 Charge =  0 Multiplicity = 1

                         Standard orientation:
 ---------------------------------------------------------------------
 Center     Atomic      Atomic             Coordinates (Angstroms)
 Number     Number       Type             X           Y           Z
 ---------------------------------------------------------------------
      1          6           0        0.597727   -1.454100    1.975705
      2          6           0        0.954763   -2.256495    0.887033
      3          6           0        1.795519   -1.761512   -0.114301
      4          6           0        2.263058   -0.453700    0.005385
      5          6           0        1.925316    0.370362    1.077832
      6          6           0        1.083287   -0.145539    2.067468
      7          1           0       -0.055887   -1.846740    2.749022
      8          1           0        0.579172   -3.273117    0.813155
      9          1           0        2.087791   -2.360979   -0.967901
     10          1           0        2.315547    1.379824    1.123936
     11          1           0        0.807671    0.479889    2.911815
     12          7           0        3.153803    0.081389   -1.048490
     13          8           0        3.552347    1.236914   -0.919794
     14          8           0        3.436559   -0.664865   -1.983258
     15          6           0       -3.137316    0.298477   -0.722850
     16          6           0       -3.833185   -0.907794   -0.091452
     17          6           0       -4.686723   -1.688222   -1.091552
     18          1           0       -3.894898    0.964203   -1.158537
     19          1           0       -2.507048   -0.044681   -1.554955
     20          1           0       -4.460880   -0.562620    0.740095
     21          1           0       -3.073872   -1.570630    0.342950
     22          1           0       -4.070281   -2.060297   -1.916269
     23          1           0       -5.465169   -1.046561   -1.516867
     24          1           0       -5.174997   -2.546238   -0.619052
     25          6           0       -2.280292    1.088759    0.264414
     26          6           0       -1.584421    2.295030   -0.366984
     27          6           0       -0.730884    3.075458    0.633115
     28          1           0       -2.910560    1.431918    1.096519
     29          1           0       -1.522709    0.423033    0.700101
     30          1           0       -2.343736    2.957867   -0.801386
     31          1           0       -0.956727    1.949857   -1.198531
     32          1           0        0.047562    2.433797    1.058431
     33          1           0       -1.347327    3.447534    1.457833
     34          1           0       -0.242610    3.933475    0.160615
 ---------------------------------------------------------------------

 SCF Done:  E(RHF) =  -669.534151906     A.U. after   15 cycles
 E2 =    -0.2094922375D+01 EUMP2 =    -0.67162907428097D+03

 The electronic state is 1-A.
 Alpha  occ. eigenvalues --  -20.60872 -20.60866 -15.85928 -11.31343 -11.27908
 Alpha  occ. eigenvalues --  -11.27891 -11.27650 -11.26938 -11.26909 -11.21969
 Alpha  occ. eigenvalues --  -11.21726 -11.21595 -11.21481 -11.21389 -11.21280
 Alpha  occ. eigenvalues --   -1.59947  -1.39498  -1.19532  -1.08915  -1.08644
 Alpha  occ. eigenvalues --   -1.04950  -1.03774  -0.96237  -0.95728  -0.87260
 Alpha  occ. eigenvalues --   -0.86319  -0.82568  -0.79857  -0.78477  -0.77598
 Alpha  occ. eigenvalues --   -0.72144  -0.71274  -0.70623  -0.65311  -0.65171
 Alpha  occ. eigenvalues --   -0.64922  -0.62328  -0.61172  -0.59592  -0.57840
 Alpha  occ. eigenvalues --   -0.55570  -0.55380  -0.53313  -0.53021  -0.52906
 Alpha  occ. eigenvalues --   -0.52670  -0.50193  -0.48907  -0.48895  -0.48169
 Alpha  occ. eigenvalues --   -0.46889  -0.46002  -0.45913  -0.44890  -0.44007
 Alpha  occ. eigenvalues --   -0.37456  -0.36426
 Alpha virt. eigenvalues --    0.04883   0.11035   0.16249   0.20845   0.22800
 Alpha virt. eigenvalues --    0.24060   0.26261   0.26506   0.27162   0.28140
 Alpha virt. eigenvalues --    0.28700   0.30738   0.31386   0.31706   0.31897

 Mulliken charges:
               1
     1  C   -0.171742
     2  C   -0.218362
     3  C   -0.171569
     4  C    0.157402
     5  C   -0.170376
     6  C   -0.216987
     7  H    0.227431
     8  H    0.224504
     9  H    0.276264
    10  H    0.277927
    11  H    0.226239
    12  N    0.487973
    13  O   -0.459493
    14  O   -0.460096
    15  C   -0.297662
    16  C   -0.298742
    17  C   -0.475795
    18  H    0.150576
    19  H    0.151392
    20  H    0.151005
    21  H    0.145756
    22  H    0.155916
    23  H    0.157095
    24  H    0.158950
    25  C   -0.306791
    26  C   -0.298504
    27  C   -0.479436
    28  H    0.145409
    29  H    0.156297
    30  H    0.153004
    31  H    0.155556
    32  H    0.149137
    33  H    0.152295
    34  H    0.165428
 Sum of Mulliken charges =  -0.00000

 Dipole moment (field-independent basis, Debye):
    X=             -3.0247    Y=             -1.9253    Z=              3.6697  Tot=              5.1306
 Quadrupole moment (field-independent basis, Debye-Ang):
   XX=           -109.6970   YY=            -89.5562   ZZ=            -94.2545
   XY=             -3.5028   XZ=              8.2118   YZ=              0.2342

 Normal termination of Gaussian 16 at Thu May  6 17:46:55 2021.
