 Gaussian 16, Revision A.03,
 Gaussian 16:  EM64L-G16RevA.03 25-Dec-2016

 -------------
 #p 6-31g* mp2
 -------------

 ------------------------------------------------------
 Input file generated by CHIRIPA (05-May-2021 14:51:09)
 ------------------------------------------------------
 Symbolic Z-matrix:
 Charge =  0 Multiplicity = 1

                         Standard orientation:
 ---------------------------------------------------------------------
 Center     Atomic      Atomic             Coordinates (Angstroms)
 Number     Number       Type             X           Y           Z
 ---------------------------------------------------------------------
      1          6           0       -3.138189    0.126787   -0.335990
      2          6           0       -2.577171   -1.224429   -0.780354
      3          6           0       -3.670965   -2.220295   -1.167214
      4          1           0       -3.814539   -0.026488    0.516068
      5          1           0       -3.748071    0.547488   -1.147439
      6          1           0       -1.967399   -1.641815    0.031177
      7          1           0       -1.901929   -1.067896   -1.631331
      8          1           0       -4.274153   -1.828604   -1.992649
      9          1           0       -4.339995   -2.405784   -0.320695
     10          1           0       -3.247726   -3.179391   -1.481639
     11          6           0       -2.056918    1.133029    0.053959
     12          6           0       -2.617936    2.484245    0.498323
     13          6           0       -1.524142    3.480111    0.885182
     14          1           0       -1.447037    0.712328    0.865408
     15          1           0       -1.380568    1.286304   -0.798099
     16          1           0       -3.293178    2.327713    1.349299
     17          1           0       -3.227708    2.901632   -0.313208
     18          1           0       -0.855112    3.665600    0.038664
     19          1           0       -0.920954    3.088420    1.710618
     20          1           0       -1.947381    4.439207    1.199607
     21          6           0        2.728438    0.064302   -0.149456
     22          6           0        4.196518    0.307632   -0.500906
     23          6           0        4.442459    1.700799   -1.080900
     24          1           0        2.114739    0.201592   -1.050272
     25          1           0        2.400143    0.825811    0.571461
     26          1           0        4.522336   -0.454941   -1.219892
     27          1           0        4.806814    0.169559    0.400809
     28          1           0        4.144395    2.474052   -0.365472
     29          1           0        3.858300    1.846004   -1.995382
     30          1           0        5.498387    1.853361   -1.325031
     31          6           0        2.466669   -1.324118    0.431487
     32          6           0        0.998589   -1.567448    0.782937
     33          6           0        0.752649   -2.960615    1.362932
     34          1           0        2.794965   -2.085627   -0.289430
     35          1           0        3.080367   -1.461408    1.332303
     36          1           0        0.388293   -1.429375   -0.118778
     37          1           0        0.672771   -0.804875    1.501923
     38          1           0        1.336807   -3.105820    2.277413
     39          1           0        1.050713   -3.733869    0.647503
     40          1           0       -0.303280   -3.113177    1.607062
 ---------------------------------------------------------------------

 SCF Done:  E(RHF) =  -470.732323916     A.U. after   11 cycles
 E2 =    -0.1584485643D+01 EUMP2 =    -0.47231680955925D+03

 The electronic state is 1-A.
 Alpha  occ. eigenvalues --  -11.21580 -11.21574 -11.21562 -11.21496 -11.21369
 Alpha  occ. eigenvalues --  -11.21367 -11.21307 -11.21296 -11.21080 -11.21063
 Alpha  occ. eigenvalues --  -11.21058 -11.21055  -1.08451  -1.08356  -1.03558
 Alpha  occ. eigenvalues --   -1.03468  -0.95972  -0.95954  -0.86981  -0.86976
 Alpha  occ. eigenvalues --   -0.79709  -0.79503  -0.78447  -0.77955  -0.65050
 Alpha  occ. eigenvalues --   -0.65033  -0.61013  -0.60845  -0.59457  -0.59211
 Alpha  occ. eigenvalues --   -0.57624  -0.57525  -0.55280  -0.55222  -0.52694
 Alpha  occ. eigenvalues --   -0.52632  -0.52422  -0.52358  -0.49938  -0.49875
 Alpha  occ. eigenvalues --   -0.48076  -0.47854  -0.46714  -0.46483  -0.46171
 Alpha  occ. eigenvalues --   -0.45794  -0.45531  -0.45134  -0.43768  -0.43741
 Alpha virt. eigenvalues --    0.21369   0.23017   0.23468   0.24222   0.25031
 Alpha virt. eigenvalues --    0.26006   0.27062   0.27689   0.28386   0.29900
 Alpha virt. eigenvalues --    0.30618   0.30712   0.31674   0.31947   0.32140

 Mulliken charges:
               1
     1  C   -0.297621
     2  C   -0.307424
     3  C   -0.475045
     4  H    0.149161
     5  H    0.149157
     6  H    0.161820
     7  H    0.150567
     8  H    0.154987
     9  H    0.154944
    10  H    0.160086
    11  C   -0.302122
    12  C   -0.299597
    13  C   -0.475466
    14  H    0.154614
    15  H    0.149346
    16  H    0.151612
    17  H    0.151739
    18  H    0.155565
    19  H    0.154413
    20  H    0.160120
    21  C   -0.298184
    22  C   -0.299615
    23  C   -0.475664
    24  H    0.149378
    25  H    0.149863
    26  H    0.151765
    27  H    0.151901
    28  H    0.155406
    29  H    0.154867
    30  H    0.160158
    31  C   -0.297869
    32  C   -0.307113
    33  C   -0.477863
    34  H    0.149151
    35  H    0.148995
    36  H    0.160876
    37  H    0.152172
    38  H    0.155312
    39  H    0.155451
    40  H    0.160155
 Sum of Mulliken charges =  -0.00000

 Dipole moment (field-independent basis, Debye):
    X=             -0.0023    Y=             -0.0059    Z=             -0.0023  Tot=              0.0068
 Quadrupole moment (field-independent basis, Debye-Ang):
   XX=            -85.5134   YY=            -86.2526   ZZ=            -83.2737
   XY=             -0.7788   XZ=              0.0109   YZ=              0.1941

 Normal termination of Gaussian 16 at Wed May  5 19:43:16 2021.
