 Gaussian 16, Revision A.03,
 Gaussian 16:  EM64L-G16RevA.03 25-Dec-2016

 -------------
 #p 6-31g* mp2
 -------------

 ------------------------------------------------------
 Input file generated by CHIRIPA (05-May-2021 14:57:27)
 ------------------------------------------------------
 Symbolic Z-matrix:
 Charge =  0 Multiplicity = 1

                         Standard orientation:
 ---------------------------------------------------------------------
 Center     Atomic      Atomic             Coordinates (Angstroms)
 Number     Number       Type             X           Y           Z
 ---------------------------------------------------------------------
      1          6           0        2.934519    2.410586   -0.095178
      2          6           0        2.147522    1.342614   -0.538566
      3          6           0        2.633414    0.032773   -0.485914
      4          6           0        3.916533   -0.173803    0.018292
      5          6           0        4.724792    0.869319    0.467629
      6          6           0        4.218379    2.170952    0.405622
      7          1           0        2.549096    3.424914   -0.139713
      8          1           0        1.150091    1.525741   -0.927979
      9          1           0        2.045461   -0.812478   -0.822483
     10          1           0        5.715205    0.655410    0.850702
     11          1           0        4.831806    2.998417    0.750664
     12          7           0        4.441787   -1.556128    0.078984
     13          8           0        5.575488   -1.711646    0.527508
     14          8           0        3.709835   -2.457902   -0.323119
     15          6           0       -6.267156   -0.313374    0.590674
     16          6           0       -5.873956   -0.298411   -0.751597
     17          6           0       -4.526348   -0.155272   -1.095128
     18          6           0       -3.594346   -0.028948   -0.066195
     19          6           0       -3.954796   -0.040160    1.280372
     20          6           0       -5.308012   -0.184428    1.600594
     21          1           0       -7.316188   -0.425007    0.848483
     22          1           0       -6.616655   -0.398353   -1.538015
     23          1           0       -4.194325   -0.140427   -2.126127
     24          1           0       -3.191422    0.061561    2.042165
     25          1           0       -5.610481   -0.195707    2.643872
     26          7           0       -2.164725    0.123184   -0.417537
     27          8           0       -1.363060    0.232708    0.507651
     28          8           0       -1.872924    0.130021   -1.611456
 ---------------------------------------------------------------------

 SCF Done:  E(RHF) =  -868.340881398     A.U. after   16 cycles
 E2 =    -0.2598662597D+01 EUMP2 =    -0.87093954399537D+03

 The electronic state is 1-A.
 Alpha  occ. eigenvalues --  -20.61747 -20.61741 -20.59730 -20.59715 -15.86729
 Alpha  occ. eigenvalues --  -15.84764 -11.31780 -11.29888 -11.28309 -11.28301
 Alpha  occ. eigenvalues --  -11.27996 -11.27252 -11.27241 -11.26494 -11.26253
 Alpha  occ. eigenvalues --  -11.26127 -11.25527 -11.25140  -1.60800  -1.58805
 Alpha  occ. eigenvalues --   -1.40353  -1.38364  -1.19923  -1.18023  -1.09382
 Alpha  occ. eigenvalues --   -1.07483  -1.05274  -1.03346  -0.96267  -0.94358
 Alpha  occ. eigenvalues --   -0.86688  -0.84780  -0.83105  -0.81166  -0.78190
 Alpha  occ. eigenvalues --   -0.76233  -0.72952  -0.72084  -0.71026  -0.70994
 Alpha  occ. eigenvalues --   -0.70122  -0.69166  -0.65576  -0.65276  -0.63664
 Alpha  occ. eigenvalues --   -0.63329  -0.62622  -0.60679  -0.55792  -0.53932
 Alpha  occ. eigenvalues --   -0.53622  -0.53361  -0.51749  -0.51432  -0.49736
 Alpha  occ. eigenvalues --   -0.49685  -0.47757  -0.47724  -0.45820  -0.43822
 Alpha  occ. eigenvalues --   -0.37884  -0.36861  -0.36044  -0.34924
 Alpha virt. eigenvalues --    0.04312   0.06235   0.10799   0.12697   0.15876
 Alpha virt. eigenvalues --    0.17788   0.20971   0.22840   0.26908   0.27833
 Alpha virt. eigenvalues --    0.28911   0.29572   0.30587   0.32061   0.32404

 Mulliken charges:
               1
     1  C   -0.173565
     2  C   -0.216189
     3  C   -0.170476
     4  C    0.156885
     5  C   -0.174198
     6  C   -0.218945
     7  H    0.220925
     8  H    0.241449
     9  H    0.280245
    10  H    0.270526
    11  H    0.217550
    12  N    0.488093
    13  O   -0.465376
    14  O   -0.461294
    15  C   -0.169549
    16  C   -0.218624
    17  C   -0.170269
    18  C    0.158053
    19  C   -0.170253
    20  C   -0.218617
    21  H    0.227860
    22  H    0.225414
    23  H    0.276166
    24  H    0.276752
    25  H    0.225610
    26  N    0.488645
    27  O   -0.462489
    28  O   -0.464329
 Sum of Mulliken charges =  -0.00000

 Dipole moment (field-independent basis, Debye):
    X=             -7.5954    Y=              4.2767    Z=              0.9846  Tot=              8.7721
 Quadrupole moment (field-independent basis, Debye-Ang):
   XX=            -80.7611   YY=           -107.8031   ZZ=           -100.1612
   XY=             23.2444   XZ=             -2.2626   YZ=              1.0954

 Normal termination of Gaussian 16 at Thu May  6 19:48:27 2021.
