 Gaussian 16, Revision A.03,
 Gaussian 16:  EM64L-G16RevA.03 25-Dec-2016

 -------------
 #p 6-31g* mp2
 -------------

 ------------------------------------------------------
 Input file generated by CHIRIPA (05-May-2021 14:55:19)
 ------------------------------------------------------
 Symbolic Z-matrix:
 Charge =  0 Multiplicity = 1

                         Standard orientation:
 ---------------------------------------------------------------------
 Center     Atomic      Atomic             Coordinates (Angstroms)
 Number     Number       Type             X           Y           Z
 ---------------------------------------------------------------------
      1          6           0       -3.091983    2.096530   -0.294293
      2          6           0       -1.740310    1.737626   -0.320523
      3          6           0       -1.357345    0.401676   -0.168457
      4          6           0       -2.356861   -0.553767    0.008702
      5          6           0       -3.711850   -0.227643    0.039346
      6          6           0       -4.071712    1.114482   -0.114759
      7          1           0       -3.380505    3.136727   -0.413214
      8          1           0       -0.977276    2.498171   -0.459793
      9          1           0       -0.318234    0.096064   -0.184783
     10          1           0       -4.449686   -1.008203    0.179848
     11          1           0       -5.122205    1.390302   -0.093972
     12          7           0       -1.963663   -1.971346    0.170767
     13          8           0       -2.863481   -2.794173    0.325433
     14          8           0       -0.763101   -2.232776    0.140059
     15          6           0        3.220643    1.153177    0.150166
     16          6           0        1.943085    1.992005    0.103269
     17          6           0        2.201256    3.477104    0.359444
     18          1           0        3.699028    1.279788    1.131014
     19          1           0        3.930493    1.536885   -0.595674
     20          1           0        1.235321    1.605961    0.848020
     21          1           0        1.467584    1.863234   -0.877512
     22          1           0        2.887782    3.883690   -0.390203
     23          1           0        2.654198    3.624955    1.345134
     24          1           0        1.274522    4.058112    0.321330
     25          6           0        2.978820   -0.333636   -0.104065
     26          6           0        4.256377   -1.172464   -0.057168
     27          6           0        3.998206   -2.657562   -0.313343
     28          1           0        2.268970   -0.717343    0.641775
     29          1           0        2.500434   -0.460246   -1.084913
     30          1           0        4.731879   -1.043691    0.923614
     31          1           0        4.964142   -0.786419   -0.801919
     32          1           0        3.545264   -2.805414   -1.299033
     33          1           0        3.311682   -3.064149    0.436304
     34          1           0        4.924941   -3.238570   -0.275228
 ---------------------------------------------------------------------

 SCF Done:  E(RHF) =  -669.534654557     A.U. after   15 cycles
 E2 =    -0.2093923015D+01 EUMP2 =    -0.67162857757186D+03

 The electronic state is 1-A.
 Alpha  occ. eigenvalues --  -20.60719 -20.60714 -15.85764 -11.31065 -11.27662
 Alpha  occ. eigenvalues --  -11.27538 -11.27390 -11.26673 -11.26587 -11.22477
 Alpha  occ. eigenvalues --  -11.21919 -11.21761 -11.21447 -11.21366 -11.20571
 Alpha  occ. eigenvalues --   -1.59791  -1.39345  -1.19247  -1.08746  -1.08652
 Alpha  occ. eigenvalues --   -1.04653  -1.03783  -0.96194  -0.95499  -0.87219
 Alpha  occ. eigenvalues --   -0.86042  -0.82365  -0.80032  -0.78502  -0.77281
 Alpha  occ. eigenvalues --   -0.71982  -0.71112  -0.70360  -0.65367  -0.64901
 Alpha  occ. eigenvalues --   -0.64653  -0.62081  -0.61177  -0.59605  -0.57798
 Alpha  occ. eigenvalues --   -0.55436  -0.55155  -0.53004  -0.52955  -0.52741
 Alpha  occ. eigenvalues --   -0.52549  -0.50130  -0.48754  -0.48736  -0.48198
 Alpha  occ. eigenvalues --   -0.47019  -0.45928  -0.45802  -0.44758  -0.44024
 Alpha  occ. eigenvalues --   -0.37241  -0.36223
 Alpha virt. eigenvalues --    0.05099   0.11386   0.16533   0.20316   0.23006
 Alpha virt. eigenvalues --    0.23489   0.25133   0.26129   0.26599   0.28534
 Alpha virt. eigenvalues --    0.29768   0.31071   0.31244   0.31750   0.32651

 Mulliken charges:
               1
     1  C   -0.171098
     2  C   -0.226927
     3  C   -0.180145
     4  C    0.157103
     5  C   -0.170463
     6  C   -0.219109
     7  H    0.225197
     8  H    0.232319
     9  H    0.288604
    10  H    0.275015
    11  H    0.222886
    12  N    0.488314
    13  O   -0.460628
    14  O   -0.462127
    15  C   -0.295853
    16  C   -0.314842
    17  C   -0.475851
    18  H    0.152328
    19  H    0.150912
    20  H    0.154070
    21  H    0.146805
    22  H    0.159598
    23  H    0.161057
    24  H    0.153184
    25  C   -0.306566
    26  C   -0.300045
    27  C   -0.476340
    28  H    0.160798
    29  H    0.150366
    30  H    0.151322
    31  H    0.149934
    32  H    0.157476
    33  H    0.164635
    34  H    0.158070
 Sum of Mulliken charges =  -0.00000

 Dipole moment (field-independent basis, Debye):
    X=             -1.1929    Y=              4.8693    Z=             -0.5127  Tot=              5.0395
 Quadrupole moment (field-independent basis, Debye-Ang):
   XX=            -83.3512   YY=           -101.6167   ZZ=            -94.6126
   XY=             -9.8108   XZ=              0.9269   YZ=             -0.0646

 Normal termination of Gaussian 16 at Thu May  6 09:14:45 2021.
