 Gaussian 16, Revision A.03,
 Gaussian 16:  EM64L-G16RevA.03 25-Dec-2016

 -------------
 #p 6-31g* mp2
 -------------

 ------------------------------------------------------
 Input file generated by CHIRIPA (05-May-2021 14:57:27)
 ------------------------------------------------------
 Symbolic Z-matrix:
 Charge =  0 Multiplicity = 1

                         Standard orientation:
 ---------------------------------------------------------------------
 Center     Atomic      Atomic             Coordinates (Angstroms)
 Number     Number       Type             X           Y           Z
 ---------------------------------------------------------------------
      1          6           0       -5.193922    1.260879   -0.172136
      2          6           0       -3.936421    1.863425   -0.061904
      3          6           0       -2.779144    1.082664    0.013391
      4          6           0       -2.916738   -0.304029   -0.024538
      5          6           0       -4.155479   -0.934002   -0.133838
      6          6           0       -5.299251   -0.133453   -0.207689
      7          1           0       -6.087677    1.875079   -0.230065
      8          1           0       -3.851601    2.946050   -0.034061
      9          1           0       -1.793153    1.522981    0.099193
     10          1           0       -4.208210   -2.015666   -0.159150
     11          1           0       -6.274535   -0.604140   -0.293247
     12          7           0       -1.698729   -1.141060    0.054409
     13          8           0       -1.846815   -2.360670    0.018931
     14          8           0       -0.619030   -0.561666    0.150270
     15          6           0        3.156367   -2.356395   -0.001801
     16          6           0        2.665080   -1.681307    1.120435
     17          6           0        2.638772   -0.283888    1.153251
     18          6           0        3.113721    0.409940    0.041353
     19          6           0        3.609293   -0.233911   -1.091412
     20          6           0        3.626077   -1.631820   -1.102202
     21          1           0        3.173105   -3.442135   -0.018738
     22          1           0        2.299652   -2.241424    1.976459
     23          1           0        2.263806    0.264116    2.009118
     24          1           0        3.966780    0.351812   -1.929594
     25          1           0        4.008181   -2.153442   -1.975101
     26          7           0        3.090911    1.889584    0.064435
     27          8           0        3.515073    2.477739   -0.927933
     28          8           0        2.649302    2.433156    1.074459
 ---------------------------------------------------------------------

 SCF Done:  E(RHF) =  -868.338960915     A.U. after   16 cycles
 E2 =    -0.2599568747D+01 EUMP2 =    -0.87093852966118D+03

 The electronic state is 1-A.
 Alpha  occ. eigenvalues --  -20.61050 -20.61043 -20.59888 -20.59880 -15.86086
 Alpha  occ. eigenvalues --  -15.84925 -11.31269 -11.29884 -11.27849 -11.27771
 Alpha  occ. eigenvalues --  -11.27540 -11.26823 -11.26758 -11.26499 -11.26409
 Alpha  occ. eigenvalues --  -11.26144 -11.25459 -11.25327  -1.60127  -1.58968
 Alpha  occ. eigenvalues --   -1.39684  -1.38534  -1.19431  -1.18029  -1.08864
 Alpha  occ. eigenvalues --   -1.07516  -1.04800  -1.03401  -0.95727  -0.94422
 Alpha  occ. eigenvalues --   -0.86209  -0.84845  -0.82562  -0.81288  -0.77627
 Alpha  occ. eigenvalues --   -0.76372  -0.72329  -0.71442  -0.71170  -0.70537
 Alpha  occ. eigenvalues --   -0.70269  -0.69213  -0.65085  -0.64799  -0.63726
 Alpha  occ. eigenvalues --   -0.63466  -0.62142  -0.60807  -0.55318  -0.53971
 Alpha  occ. eigenvalues --   -0.53150  -0.52887  -0.51721  -0.51552  -0.49081
 Alpha  occ. eigenvalues --   -0.49008  -0.47934  -0.47886  -0.45134  -0.44033
 Alpha  occ. eigenvalues --   -0.37412  -0.36397  -0.35975  -0.34882
 Alpha virt. eigenvalues --    0.04871   0.06183   0.11257   0.12707   0.16403
 Alpha virt. eigenvalues --    0.17767   0.21433   0.22625   0.27368   0.28289
 Alpha virt. eigenvalues --    0.28522   0.29481   0.30997   0.32111   0.32570

 Mulliken charges:
               1
     1  C   -0.170364
     2  C   -0.218928
     3  C   -0.171417
     4  C    0.156828
     5  C   -0.171235
     6  C   -0.218812
     7  H    0.226407
     8  H    0.226860
     9  H    0.280617
    10  H    0.274120
    11  H    0.223227
    12  N    0.490459
    13  O   -0.463988
    14  O   -0.462896
    15  C   -0.166949
    16  C   -0.204847
    17  C   -0.154730
    18  C    0.158357
    19  C   -0.172052
    20  C   -0.218488
    21  H    0.222680
    22  H    0.221008
    23  H    0.270209
    24  H    0.269841
    25  H    0.217985
    26  N    0.487893
    27  O   -0.465642
    28  O   -0.466142
 Sum of Mulliken charges =  -0.00000

 Dipole moment (field-independent basis, Debye):
    X=             -4.4959    Y=             -2.3384    Z=             -0.2639  Tot=              5.0745
 Quadrupole moment (field-independent basis, Debye-Ang):
   XX=            -78.9365   YY=           -108.5368   ZZ=           -101.7821
   XY=            -21.8122   XZ=             -0.8979   YZ=             -0.1899

 Normal termination of Gaussian 16 at Wed May  5 16:33:51 2021.
