 Gaussian 16, Revision A.03,
 Gaussian 16:  EM64L-G16RevA.03 25-Dec-2016

 -------------
 #p 6-31g* mp2
 -------------

 ------------------------------------------------------
 Input file generated by CHIRIPA (05-May-2021 14:55:22)
 ------------------------------------------------------
 Symbolic Z-matrix:
 Charge =  0 Multiplicity = 1

                         Standard orientation:
 ---------------------------------------------------------------------
 Center     Atomic      Atomic             Coordinates (Angstroms)
 Number     Number       Type             X           Y           Z
 ---------------------------------------------------------------------
      1          6           0        0.394003   -1.918558    0.657888
      2          6           0        1.620428   -2.046179    1.318279
      3          6           0        2.724776   -1.288221    0.917701
      4          6           0        2.566517   -0.408369   -0.151927
      5          6           0        1.357725   -0.258779   -0.829964
      6          6           0        0.266790   -1.026837   -0.412239
      7          1           0       -0.458672   -2.511281    0.975727
      8          1           0        1.722137   -2.737906    2.149671
      9          1           0        3.685815   -1.367222    1.411241
     10          1           0        1.287048    0.439143   -1.655391
     11          1           0       -0.684454   -0.925650   -0.926964
     12          7           0        3.728542    0.399393   -0.585077
     13          8           0        3.563186    1.167474   -1.530247
     14          8           0        4.782689    0.249141    0.028791
     15          6           0       -3.448376    0.065088    0.252224
     16          6           0       -4.251885   -0.435083   -0.948686
     17          6           0       -5.063661   -1.692144   -0.634661
     18          1           0       -2.774301   -0.732950    0.592375
     19          1           0       -4.135617    0.269771    1.084810
     20          1           0       -3.563482   -0.637447   -1.779207
     21          1           0       -4.923988    0.364304   -1.286137
     22          1           0       -5.772901   -1.499968    0.176911
     23          1           0       -4.404664   -2.507411   -0.318961
     24          1           0       -5.630348   -2.032416   -1.506980
     25          6           0       -2.631628    1.321148   -0.046045
     26          6           0       -1.828119    1.821320    1.154865
     27          6           0       -1.016343    3.078380    0.840840
     28          1           0       -1.944387    1.116465   -0.878632
     29          1           0       -3.305703    2.119186   -0.386197
     30          1           0       -1.156016    1.021932    1.492317
     31          1           0       -2.516522    2.023683    1.985386
     32          1           0       -1.675340    3.893647    0.525140
     33          1           0       -0.307102    2.886204    0.029269
     34          1           0       -0.449656    3.418652    1.713159
 ---------------------------------------------------------------------

 SCF Done:  E(RHF) =  -669.534660258     A.U. after   15 cycles
 E2 =    -0.2094431722D+01 EUMP2 =    -0.67162909197999D+03

 The electronic state is 1-A.
 Alpha  occ. eigenvalues --  -20.60812 -20.60807 -15.85865 -11.31266 -11.27826
 Alpha  occ. eigenvalues --  -11.27818 -11.27571 -11.26853 -11.26819 -11.22538
 Alpha  occ. eigenvalues --  -11.22346 -11.22156 -11.22002 -11.21924 -11.21329
 Alpha  occ. eigenvalues --   -1.59886  -1.39439  -1.19439  -1.09252  -1.08815
 Alpha  occ. eigenvalues --   -1.04847  -1.04188  -0.96656  -0.95656  -0.87660
 Alpha  occ. eigenvalues --   -0.86243  -0.82491  -0.80277  -0.79032  -0.77537
 Alpha  occ. eigenvalues --   -0.72084  -0.71208  -0.70546  -0.66196  -0.65090
 Alpha  occ. eigenvalues --   -0.64633  -0.62153  -0.61598  -0.60026  -0.58252
 Alpha  occ. eigenvalues --   -0.55970  -0.55334  -0.53308  -0.53152  -0.53084
 Alpha  occ. eigenvalues --   -0.52860  -0.50607  -0.48845  -0.48837  -0.48576
 Alpha  occ. eigenvalues --   -0.47341  -0.46534  -0.46508  -0.44837  -0.44482
 Alpha  occ. eigenvalues --   -0.37390  -0.36407
 Alpha virt. eigenvalues --    0.04966   0.11096   0.16372   0.18676   0.23117
 Alpha virt. eigenvalues --    0.23361   0.24646   0.25502   0.26856   0.28715
 Alpha virt. eigenvalues --    0.29525   0.30551   0.30993   0.31505   0.31874

 Mulliken charges:
               1
     1  C   -0.174411
     2  C   -0.218183
     3  C   -0.171013
     4  C    0.158984
     5  C   -0.173059
     6  C   -0.218396
     7  H    0.226545
     8  H    0.223990
     9  H    0.275954
    10  H    0.275735
    11  H    0.230971
    12  N    0.488142
    13  O   -0.460139
    14  O   -0.460118
    15  C   -0.302256
    16  C   -0.301388
    17  C   -0.474827
    18  H    0.139943
    19  H    0.155556
    20  H    0.147050
    21  H    0.157510
    22  H    0.158282
    23  H    0.150228
    24  H    0.163838
    25  C   -0.298823
    26  C   -0.303326
    27  C   -0.476185
    28  H    0.140572
    29  H    0.154793
    30  H    0.156042
    31  H    0.152311
    32  H    0.155862
    33  H    0.156299
    34  H    0.163518
 Sum of Mulliken charges =  -0.00000

 Dipole moment (field-independent basis, Debye):
    X=             -4.1524    Y=             -2.7712    Z=              1.5792  Tot=              5.2360
 Quadrupole moment (field-independent basis, Debye-Ang):
   XX=           -113.7502   YY=            -92.4295   ZZ=            -92.9791
   XY=             -8.2297   XZ=              6.7199   YZ=             -1.6848

 Normal termination of Gaussian 16 at Thu May  6 12:35:30 2021.
