 Gaussian 16, Revision A.03,
 Gaussian 16:  EM64L-G16RevA.03 25-Dec-2016

 -------------
 #p 6-31g* mp2
 -------------

 ------------------------------------------------------
 Input file generated by CHIRIPA (05-May-2021 14:53:14)
 ------------------------------------------------------
 Symbolic Z-matrix:
 Charge =  0 Multiplicity = 1

                         Standard orientation:
 ---------------------------------------------------------------------
 Center     Atomic      Atomic             Coordinates (Angstroms)
 Number     Number       Type             X           Y           Z
 ---------------------------------------------------------------------
      1          6           0       -3.080980   -0.310934    0.045013
      2          6           0       -3.183924   -1.580451   -0.800987
      3          6           0       -3.570984   -2.809523    0.022033
      4          1           0       -2.341379   -0.468050    0.842038
      5          1           0       -4.043864   -0.131487    0.543056
      6          1           0       -2.221553   -1.756687   -1.298379
      7          1           0       -3.923227   -1.420229   -1.596207
      8          1           0       -4.541293   -2.658969    0.506218
      9          1           0       -2.829950   -2.997339    0.805739
     10          1           0       -3.638887   -3.705757   -0.602478
     11          6           0       -2.694826    0.926286   -0.763627
     12          6           0       -2.591882    2.195803    0.082373
     13          6           0       -2.204822    3.424875   -0.740647
     14          1           0       -1.731941    0.746839   -1.261670
     15          1           0       -3.434427    1.083401   -1.560652
     16          1           0       -1.852579    2.035581    0.877593
     17          1           0       -3.554253    2.372039    0.579765
     18          1           0       -2.945855    3.612691   -1.524353
     19          1           0       -1.234513    3.274321   -1.224832
     20          1           0       -2.136919    4.321109   -0.116136
     21          6           0        0.459324   -0.312853    2.050454
     22          6           0        0.403097   -1.186592    0.959612
     23          6           0        1.393209   -1.155290   -0.026922
     24          6           0        2.429887   -0.233365    0.109616
     25          6           0        2.513688    0.650124    1.184659
     26          6           0        1.512583    0.601106    2.159305
     27          1           0       -0.314088   -0.344050    2.812200
     28          1           0       -0.413701   -1.897431    0.872479
     29          1           0        1.374193   -1.820275   -0.881820
     30          1           0        3.340299    1.347686    1.244143
     31          1           0        1.558818    1.280862    3.005377
     32          7           0        3.483892   -0.190849   -0.928490
     33          8           0        4.386750    0.630687   -0.785090
     34          8           0        3.387206   -0.979865   -1.865902
 ---------------------------------------------------------------------

 SCF Done:  E(RHF) =  -669.534568155     A.U. after   15 cycles
 E2 =    -0.2094461999D+01 EUMP2 =    -0.67162903015455D+03

 The electronic state is 1-A.
 Alpha  occ. eigenvalues --  -20.60838 -20.60832 -15.85891 -11.31292 -11.27851
 Alpha  occ. eigenvalues --  -11.27847 -11.27603 -11.26886 -11.26854 -11.22419
 Alpha  occ. eigenvalues --  -11.22095 -11.22031 -11.22027 -11.21838 -11.21367
 Alpha  occ. eigenvalues --   -1.59912  -1.39465  -1.19468  -1.09096  -1.08832
 Alpha  occ. eigenvalues --   -1.04875  -1.04159  -0.96601  -0.95686  -0.87618
 Alpha  occ. eigenvalues --   -0.86278  -0.82513  -0.80232  -0.78863  -0.77559
 Alpha  occ. eigenvalues --   -0.72110  -0.71236  -0.70574  -0.65974  -0.65117
 Alpha  occ. eigenvalues --   -0.64707  -0.62296  -0.61432  -0.59979  -0.58204
 Alpha  occ. eigenvalues --   -0.55937  -0.55362  -0.53298  -0.53187  -0.53003
 Alpha  occ. eigenvalues --   -0.52947  -0.50554  -0.48878  -0.48862  -0.48530
 Alpha  occ. eigenvalues --   -0.47288  -0.46395  -0.46296  -0.44863  -0.44389
 Alpha  occ. eigenvalues --   -0.37393  -0.36440
 Alpha virt. eigenvalues --    0.04930   0.11071   0.16315   0.19114   0.23059
 Alpha virt. eigenvalues --    0.23348   0.25561   0.25922   0.26929   0.28325
 Alpha virt. eigenvalues --    0.29413   0.30054   0.31069   0.31128   0.31902

 Mulliken charges:
               1
     1  C   -0.299610
     2  C   -0.303937
     3  C   -0.477498
     4  H    0.141584
     5  H    0.150928
     6  H    0.149160
     7  H    0.158576
     8  H    0.159662
     9  H    0.145514
    10  H    0.165146
    11  C   -0.298252
    12  C   -0.300888
    13  C   -0.476337
    14  H    0.153500
    15  H    0.151732
    16  H    0.149481
    17  H    0.150860
    18  H    0.156452
    19  H    0.158545
    20  H    0.159960
    21  C   -0.171827
    22  C   -0.220410
    23  C   -0.175417
    24  C    0.158819
    25  C   -0.170926
    26  C   -0.219231
    27  H    0.227025
    28  H    0.232784
    29  H    0.276298
    30  H    0.276094
    31  H    0.224275
    32  N    0.488030
    33  O   -0.460063
    34  O   -0.460032
 Sum of Mulliken charges =  -0.00000

 Dipole moment (field-independent basis, Debye):
    X=             -3.7360    Y=             -0.1051    Z=              3.5735  Tot=              5.1709
 Quadrupole moment (field-independent basis, Debye-Ang):
   XX=           -111.0964   YY=            -93.1881   ZZ=            -93.3258
   XY=              2.1276   XZ=             10.4871   YZ=              1.6948

 Normal termination of Gaussian 16 at Thu May  6 12:07:11 2021.
