 Gaussian 16, Revision A.03,
 Gaussian 16:  EM64L-G16RevA.03 25-Dec-2016

 -------------
 #p 6-31g* mp2
 -------------

 ------------------------------------------------------
 Input file generated by CHIRIPA (05-May-2021 14:55:20)
 ------------------------------------------------------
 Symbolic Z-matrix:
 Charge =  0 Multiplicity = 1

                         Standard orientation:
 ---------------------------------------------------------------------
 Center     Atomic      Atomic             Coordinates (Angstroms)
 Number     Number       Type             X           Y           Z
 ---------------------------------------------------------------------
      1          6           0       -0.315164   -1.768271   -0.444074
      2          6           0       -0.355630   -0.426189   -0.836118
      3          6           0       -1.517892    0.330406   -0.659317
      4          6           0       -2.626251   -0.289761   -0.084668
      5          6           0       -2.617070   -1.624872    0.316189
      6          6           0       -1.444023   -2.362282    0.129817
      7          1           0        0.591898   -2.348561   -0.585134
      8          1           0        0.519544    0.037749   -1.282074
      9          1           0       -1.576693    1.371201   -0.953778
     10          1           0       -3.505422   -2.059729    0.757944
     11          1           0       -1.415476   -3.404372    0.435232
     12          7           0       -3.862395    0.501057    0.107569
     13          8           0       -4.825407   -0.068630    0.616196
     14          8           0       -3.844866    1.675613   -0.254022
     15          6           0        3.150085   -0.158379    0.459484
     16          6           0        4.017945   -1.123128   -0.349258
     17          6           0        4.106799   -2.511621    0.284766
     18          1           0        3.557297   -0.073353    1.476290
     19          1           0        2.141025   -0.581271    0.561242
     20          1           0        5.024682   -0.697900   -0.450639
     21          1           0        3.608730   -1.205720   -1.364313
     22          1           0        3.111784   -2.960028    0.371234
     23          1           0        4.535780   -2.449322    1.290100
     24          1           0        4.731953   -3.185154   -0.309705
     25          6           0        3.051566    1.233830   -0.161626
     26          6           0        2.183706    2.198579    0.647117
     27          6           0        2.094852    3.587072    0.013092
     28          1           0        4.060626    1.656722   -0.263383
     29          1           0        2.644354    1.148803   -1.178432
     30          1           0        2.592921    2.281171    1.662172
     31          1           0        1.176969    1.773351    0.748497
     32          1           0        1.665871    3.524773   -0.992241
     33          1           0        3.089868    4.035478   -0.073375
     34          1           0        1.469698    4.260605    0.607564
 ---------------------------------------------------------------------

 SCF Done:  E(RHF) =  -669.533779676     A.U. after   15 cycles
 E2 =    -0.2095245599D+01 EUMP2 =    -0.67162902527477D+03

 The electronic state is 1-A.
 Alpha  occ. eigenvalues --  -20.60806 -20.60801 -15.85859 -11.31257 -11.27818
 Alpha  occ. eigenvalues --  -11.27809 -11.27546 -11.26842 -11.26795 -11.22642
 Alpha  occ. eigenvalues --  -11.22367 -11.22259 -11.22240 -11.22150 -11.21637
 Alpha  occ. eigenvalues --   -1.59881  -1.39433  -1.19434  -1.09400  -1.08807
 Alpha  occ. eigenvalues --   -1.04839  -1.04403  -0.96859  -0.95653  -0.87866
 Alpha  occ. eigenvalues --   -0.86242  -0.82484  -0.80455  -0.79165  -0.77532
 Alpha  occ. eigenvalues --   -0.72079  -0.71204  -0.70570  -0.66386  -0.65086
 Alpha  occ. eigenvalues --   -0.64572  -0.62203  -0.61755  -0.60211  -0.58440
 Alpha  occ. eigenvalues --   -0.56230  -0.55287  -0.53519  -0.53278  -0.53157
 Alpha  occ. eigenvalues --   -0.52889  -0.50825  -0.48840  -0.48831  -0.48756
 Alpha  occ. eigenvalues --   -0.47523  -0.46690  -0.46632  -0.44832  -0.44650
 Alpha  occ. eigenvalues --   -0.37354  -0.36385
 Alpha virt. eigenvalues --    0.04944   0.11102   0.16265   0.18290   0.21859
 Alpha virt. eigenvalues --    0.23799   0.25206   0.25958   0.27399   0.27979
 Alpha virt. eigenvalues --    0.29733   0.30532   0.30990   0.31816   0.32293

 Mulliken charges:
               1
     1  C   -0.177079
     2  C   -0.220722
     3  C   -0.174494
     4  C    0.158628
     5  C   -0.170740
     6  C   -0.220027
     7  H    0.231652
     8  H    0.233777
     9  H    0.276623
    10  H    0.275950
    11  H    0.224128
    12  N    0.488056
    13  O   -0.460218
    14  O   -0.460027
    15  C   -0.308398
    16  C   -0.301514
    17  C   -0.476261
    18  H    0.155393
    19  H    0.152377
    20  H    0.157635
    21  H    0.146105
    22  H    0.146670
    23  H    0.160695
    24  H    0.164124
    25  C   -0.303024
    26  C   -0.305842
    27  C   -0.475996
    28  H    0.155879
    29  H    0.140559
    30  H    0.156343
    31  H    0.154997
    32  H    0.151294
    33  H    0.157387
    34  H    0.166074
 Sum of Mulliken charges =  -0.00000

 Dipole moment (field-independent basis, Debye):
    X=              4.4489    Y=             -2.7219    Z=             -0.5530  Tot=              5.2447
 Quadrupole moment (field-independent basis, Debye-Ang):
   XX=           -115.7646   YY=            -90.8412   ZZ=            -94.3997
   XY=              8.7049   XZ=              1.1412   YZ=             -0.7917

 Normal termination of Gaussian 16 at Wed May  5 17:25:03 2021.
