 Gaussian 16, Revision A.03,
 Gaussian 16:  EM64L-G16RevA.03 25-Dec-2016

 -------------
 #p 6-31g* mp2
 -------------

 ------------------------------------------------------
 Input file generated by CHIRIPA (05-May-2021 14:57:26)
 ------------------------------------------------------
 Symbolic Z-matrix:
 Charge =  0 Multiplicity = 1

                         Standard orientation:
 ---------------------------------------------------------------------
 Center     Atomic      Atomic             Coordinates (Angstroms)
 Number     Number       Type             X           Y           Z
 ---------------------------------------------------------------------
      1          6           0        5.726500   -1.791555    0.561172
      2          6           0        4.608381   -1.541762    1.363627
      3          6           0        3.714678   -0.517438    1.037125
      4          6           0        3.970853    0.241032   -0.104098
      5          6           0        5.075982    0.016632   -0.923625
      6          6           0        5.956327   -1.012933   -0.577884
      7          1           0        6.415562   -2.589310    0.822279
      8          1           0        4.427379   -2.144851    2.248820
      9          1           0        2.841230   -0.302462    1.640691
     10          1           0        5.229913    0.634671   -1.799839
     11          1           0        6.823853   -1.204662   -1.202932
     12          7           0        3.031801    1.328212   -0.459934
     13          8           0        3.279865    1.982198   -1.470579
     14          8           0        2.065488    1.505772    0.278544
     15          6           0       -1.963149    1.074397    0.676786
     16          6           0       -3.179561    1.565072    1.162691
     17          6           0       -4.383862    0.943480    0.819429
     18          6           0       -4.334680   -0.171700   -0.015583
     19          6           0       -3.138730   -0.684321   -0.515797
     20          6           0       -1.946646   -0.046757   -0.159433
     21          1           0       -1.032365    1.563469    0.948528
     22          1           0       -3.195405    2.435604    1.812281
     23          1           0       -5.339676    1.302388    1.181400
     24          1           0       -3.154841   -1.553918   -1.161522
     25          1           0       -1.003445   -0.430018   -0.538282
     26          7           0       -5.603153   -0.838206   -0.385914
     27          8           0       -5.532887   -1.819155   -1.123098
     28          8           0       -6.643630   -0.367044    0.068015
 ---------------------------------------------------------------------

 SCF Done:  E(RHF) =  -868.340129558     A.U. after   16 cycles
 E2 =    -0.2598197168D+01 EUMP2 =    -0.87093832672675D+03

 The electronic state is 1-A.
 Alpha  occ. eigenvalues --  -20.61904 -20.61827 -20.60221 -20.60216 -15.86906
 Alpha  occ. eigenvalues --  -15.85270 -11.32004 -11.30459 -11.28562 -11.28512
 Alpha  occ. eigenvalues --  -11.28207 -11.27489 -11.27464 -11.27037 -11.27027
 Alpha  occ. eigenvalues --  -11.26521 -11.25942 -11.25901  -1.60928  -1.59301
 Alpha  occ. eigenvalues --   -1.40493  -1.38860  -1.20146  -1.18604  -1.09584
 Alpha  occ. eigenvalues --   -1.07987  -1.05507  -1.03995  -0.96466  -0.94856
 Alpha  occ. eigenvalues --   -0.86916  -0.85372  -0.83312  -0.81712  -0.78392
 Alpha  occ. eigenvalues --   -0.76823  -0.73142  -0.72237  -0.71490  -0.71243
 Alpha  occ. eigenvalues --   -0.70625  -0.69583  -0.65800  -0.65499  -0.64234
 Alpha  occ. eigenvalues --   -0.63973  -0.62859  -0.61358  -0.56003  -0.54324
 Alpha  occ. eigenvalues --   -0.53851  -0.53591  -0.52324  -0.52069  -0.49900
 Alpha  occ. eigenvalues --   -0.49845  -0.48257  -0.48230  -0.45954  -0.44306
 Alpha  occ. eigenvalues --   -0.38103  -0.37100  -0.36513  -0.35625
 Alpha virt. eigenvalues --    0.04112   0.05725   0.10558   0.12049   0.15655
 Alpha virt. eigenvalues --    0.17282   0.20684   0.22338   0.26650   0.27405
 Alpha virt. eigenvalues --    0.28102   0.29237   0.30480   0.31708   0.32126

 Mulliken charges:
               1
     1  C   -0.169782
     2  C   -0.218228
     3  C   -0.171707
     4  C    0.157228
     5  C   -0.170323
     6  C   -0.218348
     7  H    0.228621
     8  H    0.225802
     9  H    0.272615
    10  H    0.277172
    11  H    0.226285
    12  N    0.491805
    13  O   -0.454093
    14  O   -0.474838
    15  C   -0.176012
    16  C   -0.220222
    17  C   -0.171637
    18  C    0.157123
    19  C   -0.172274
    20  C   -0.220391
    21  H    0.246606
    22  H    0.222254
    23  H    0.272969
    24  H    0.272254
    25  H    0.224230
    26  N    0.488311
    27  O   -0.462933
    28  O   -0.462485
 Sum of Mulliken charges =  -0.00000

 Dipole moment (field-independent basis, Debye):
    X=              8.3593    Y=             -1.4450    Z=              2.5384  Tot=              8.8550
 Quadrupole moment (field-independent basis, Debye-Ang):
   XX=           -115.2548   YY=           -105.9556   ZZ=           -101.2028
   XY=            -27.4586   XZ=             -5.4661   YZ=              1.3423

 Normal termination of Gaussian 16 at Wed May  5 16:28:20 2021.
