 Gaussian 16, Revision A.03,
 Gaussian 16:  EM64L-G16RevA.03 25-Dec-2016

 -------------
 #p 6-31g* mp2
 -------------

 ------------------------------------------------------
 Input file generated by CHIRIPA (05-May-2021 14:53:14)
 ------------------------------------------------------
 Symbolic Z-matrix:
 Charge =  0 Multiplicity = 1

                         Standard orientation:
 ---------------------------------------------------------------------
 Center     Atomic      Atomic             Coordinates (Angstroms)
 Number     Number       Type             X           Y           Z
 ---------------------------------------------------------------------
      1          6           0       -3.187593   -0.643607    0.236844
      2          6           0       -2.392774   -1.473248   -0.772088
      3          6           0       -1.319224   -2.338244   -0.110978
      4          1           0       -2.495854   -0.003905    0.801842
      5          1           0       -3.656753   -1.317767    0.966771
      6          1           0       -1.926385   -0.797816   -1.500709
      7          1           0       -3.086508   -2.110910   -1.334881
      8          1           0       -1.771233   -3.035017    0.602321
      9          1           0       -0.604518   -1.714462    0.435552
     10          1           0       -0.763158   -2.922915   -0.850444
     11          6           0       -4.264588    0.226377   -0.408863
     12          6           0       -5.059407    1.056018    0.600069
     13          6           0       -6.132957    1.921013   -0.061041
     14          1           0       -3.795428    0.900536   -1.138790
     15          1           0       -4.956327   -0.413326   -0.973861
     16          1           0       -4.365673    1.693680    1.162862
     17          1           0       -5.525796    0.380586    1.328690
     18          1           0       -6.847663    1.297232   -0.607571
     19          1           0       -5.680948    2.617787   -0.774340
     20          1           0       -6.689023    2.505685    0.678425
     21          6           0        3.640655    2.555029   -0.266935
     22          6           0        3.573033    1.684653   -1.359819
     23          6           0        3.170082    0.357207   -1.186430
     24          6           0        2.840468   -0.068274    0.099498
     25          6           0        2.897790    0.774760    1.208235
     26          6           0        3.303412    2.098110    1.011350
     27          1           0        3.954714    3.584631   -0.410754
     28          1           0        3.834349    2.036751   -2.353693
     29          1           0        3.108861   -0.337911   -2.014972
     30          1           0        2.631071    0.394770    2.186951
     31          1           0        3.354999    2.771822    1.861936
     32          7           0        2.412469   -1.471414    0.295493
     33          8           0        2.127336   -1.821777    1.438551
     34          8           0        2.370240   -2.194263   -0.697655
 ---------------------------------------------------------------------

 SCF Done:  E(RHF) =  -669.535793566     A.U. after   15 cycles
 E2 =    -0.2091628332D+01 EUMP2 =    -0.67162742189867D+03

 The electronic state is 1-A.
 Alpha  occ. eigenvalues --  -20.60891 -20.60880 -15.85897 -11.31268 -11.27835
 Alpha  occ. eigenvalues --  -11.27831 -11.27576 -11.26848 -11.26838 -11.21350
 Alpha  occ. eigenvalues --  -11.21023 -11.20898 -11.20869 -11.20810 -11.19818
 Alpha  occ. eigenvalues --   -1.59938  -1.39494  -1.19439  -1.08836  -1.07954
 Alpha  occ. eigenvalues --   -1.04840  -1.02966  -0.95674  -0.95379  -0.86387
 Alpha  occ. eigenvalues --   -0.86238  -0.82506  -0.79050  -0.77745  -0.77555
 Alpha  occ. eigenvalues --   -0.72130  -0.71272  -0.70546  -0.65093  -0.64842
 Alpha  occ. eigenvalues --   -0.64598  -0.62186  -0.60376  -0.58795  -0.56984
 Alpha  occ. eigenvalues --   -0.55344  -0.54684  -0.53173  -0.52931  -0.52025
 Alpha  occ. eigenvalues --   -0.51800  -0.49377  -0.48892  -0.48846  -0.47353
 Alpha  occ. eigenvalues --   -0.46116  -0.45301  -0.45220  -0.44828  -0.43191
 Alpha  occ. eigenvalues --   -0.37419  -0.36443
 Alpha virt. eigenvalues --    0.04953   0.11210   0.16422   0.21346   0.23275
 Alpha virt. eigenvalues --    0.24887   0.27068   0.27263   0.27907   0.28157
 Alpha virt. eigenvalues --    0.28695   0.30885   0.31936   0.32200   0.32430

 Mulliken charges:
               1
     1  C   -0.296877
     2  C   -0.300973
     3  C   -0.475808
     4  H    0.147006
     5  H    0.149879
     6  H    0.146769
     7  H    0.149453
     8  H    0.153466
     9  H    0.156368
    10  H    0.171460
    11  C   -0.297427
    12  C   -0.298980
    13  C   -0.475286
    14  H    0.147045
    15  H    0.149369
    16  H    0.150082
    17  H    0.152264
    18  H    0.155278
    19  H    0.153716
    20  H    0.159028
    21  C   -0.170700
    22  C   -0.218610
    23  C   -0.170837
    24  C    0.157970
    25  C   -0.171352
    26  C   -0.218586
    27  H    0.225905
    28  H    0.223748
    29  H    0.275817
    30  H    0.275903
    31  H    0.223763
    32  N    0.487627
    33  O   -0.458463
    34  O   -0.458014
 Sum of Mulliken charges =  -0.00000

 Dipole moment (field-independent basis, Debye):
    X=              1.7230    Y=              4.8380    Z=             -0.6791  Tot=              5.1803
 Quadrupole moment (field-independent basis, Debye-Ang):
   XX=            -87.7371   YY=            -95.4977   ZZ=            -90.2627
   XY=             15.2963   XZ=             -2.9171   YZ=              1.6637

 Normal termination of Gaussian 16 at Thu May  6 01:03:04 2021.
