 Gaussian 16, Revision A.03,
 Gaussian 16:  EM64L-G16RevA.03 25-Dec-2016

 -------------
 #p 6-31g* mp2
 -------------

 ------------------------------------------------------
 Input file generated by CHIRIPA (05-May-2021 14:51:11)
 ------------------------------------------------------
 Symbolic Z-matrix:
 Charge =  0 Multiplicity = 1

                         Standard orientation:
 ---------------------------------------------------------------------
 Center     Atomic      Atomic             Coordinates (Angstroms)
 Number     Number       Type             X           Y           Z
 ---------------------------------------------------------------------
      1          6           0       -4.024638    0.970964   -0.253980
      2          6           0       -2.656980    1.360205    0.308149
      3          6           0       -2.195165    2.739654   -0.162639
      4          1           0       -3.981771    0.990005   -1.351589
      5          1           0       -4.764200    1.727389    0.043112
      6          1           0       -1.920490    0.602546    0.011248
      7          1           0       -2.703054    1.340049    1.404546
      8          1           0       -2.908012    3.510867    0.146683
      9          1           0       -2.121001    2.769173   -1.254532
     10          1           0       -1.215329    2.997796    0.251058
     11          6           0       -4.499931   -0.405519    0.207668
     12          6           0       -5.867589   -0.794759   -0.354461
     13          6           0       -6.329404   -2.174208    0.116327
     14          1           0       -3.760369   -1.161943   -0.089425
     15          1           0       -4.542798   -0.424559    1.305277
     16          1           0       -5.821515   -0.774604   -1.450859
     17          1           0       -6.604079   -0.037100   -0.057560
     18          1           0       -6.403568   -2.203727    1.208219
     19          1           0       -5.616558   -2.945421   -0.192996
     20          1           0       -7.309240   -2.432350   -0.297370
     21          6           0        3.616316   -0.080013    0.376802
     22          6           0        2.354798   -0.547326   -0.349956
     23          6           0        1.070615   -0.134189    0.369756
     24          1           0        3.617561   -0.489685    1.396170
     25          1           0        3.588041    1.013628    0.479491
     26          1           0        2.386103   -1.639630   -0.452469
     27          1           0        2.356650   -0.136651   -1.367777
     28          1           0        1.012549    0.955420    0.459092
     29          1           0        1.042170   -0.556098    1.379600
     30          1           0        0.181072   -0.478468   -0.166942
     31          6           0        4.908253   -0.485433   -0.330489
     32          6           0        6.169771   -0.018120    0.396269
     33          6           0        7.453954   -0.431257   -0.323443
     34          1           0        4.936529   -1.579074   -0.433177
     35          1           0        4.907009   -0.075762   -1.349857
     36          1           0        6.167919   -0.428795    1.414089
     37          1           0        6.138467    1.074184    0.498782
     38          1           0        7.482399   -0.009348   -1.333288
     39          1           0        7.512019   -1.520866   -0.412779
     40          1           0        8.343498   -0.086979    0.213255
 ---------------------------------------------------------------------

 SCF Done:  E(RHF) =  -470.733007949     A.U. after   11 cycles
 E2 =    -0.1582676984D+01 EUMP2 =    -0.47231568493370D+03

 The electronic state is 1-A.
 Alpha  occ. eigenvalues --  -11.21616 -11.21609 -11.21573 -11.21465 -11.21418
 Alpha  occ. eigenvalues --  -11.21358 -11.21356 -11.21290 -11.21085 -11.21077
 Alpha  occ. eigenvalues --  -11.21050 -11.21012  -1.08445  -1.08374  -1.03556
 Alpha  occ. eigenvalues --   -1.03462  -0.96012  -0.95916  -0.87021  -0.86944
 Alpha  occ. eigenvalues --   -0.79666  -0.79485  -0.78264  -0.78174  -0.65078
 Alpha  occ. eigenvalues --   -0.65012  -0.60980  -0.60869  -0.59440  -0.59226
 Alpha  occ. eigenvalues --   -0.57610  -0.57543  -0.55303  -0.55193  -0.52747
 Alpha  occ. eigenvalues --   -0.52611  -0.52442  -0.52323  -0.49929  -0.49867
 Alpha  occ. eigenvalues --   -0.47959  -0.47818  -0.46656  -0.46544  -0.45803
 Alpha  occ. eigenvalues --   -0.45735  -0.45718  -0.45655  -0.43777  -0.43676
 Alpha virt. eigenvalues --    0.21792   0.23035   0.23540   0.24880   0.25949
 Alpha virt. eigenvalues --    0.26442   0.26944   0.27187   0.27790   0.29029
 Alpha virt. eigenvalues --    0.30069   0.30807   0.31640   0.31805   0.32507

 Mulliken charges:
               1
     1  C   -0.297912
     2  C   -0.305973
     3  C   -0.476110
     4  H    0.149030
     5  H    0.149118
     6  H    0.160310
     7  H    0.151527
     8  H    0.154800
     9  H    0.154550
    10  H    0.160398
    11  C   -0.298030
    12  C   -0.299573
    13  C   -0.475668
    14  H    0.148817
    15  H    0.149714
    16  H    0.151801
    17  H    0.151930
    18  H    0.155154
    19  H    0.155070
    20  H    0.160142
    21  C   -0.298712
    22  C   -0.299694
    23  C   -0.478628
    24  H    0.149702
    25  H    0.149551
    26  H    0.151819
    27  H    0.151969
    28  H    0.156885
    29  H    0.155661
    30  H    0.162187
    31  C   -0.298272
    32  C   -0.299639
    33  C   -0.475708
    34  H    0.149528
    35  H    0.149674
    36  H    0.151958
    37  H    0.151965
    38  H    0.155193
    39  H    0.155181
    40  H    0.160290
 Sum of Mulliken charges =  -0.00000

 Dipole moment (field-independent basis, Debye):
    X=              0.0346    Y=             -0.0117    Z=              0.0105  Tot=              0.0380
 Quadrupole moment (field-independent basis, Debye-Ang):
   XX=            -86.0134   YY=            -84.9050   ZZ=            -84.0643
   XY=             -0.4083   XZ=              0.1450   YZ=              0.0377

 Normal termination of Gaussian 16 at Wed May  5 16:45:20 2021.
