 Gaussian 16, Revision A.03,
 Gaussian 16:  EM64L-G16RevA.03 25-Dec-2016

 -------------
 #p 6-31g* mp2
 -------------

 ------------------------------------------------------
 Input file generated by CHIRIPA (05-May-2021 14:55:21)
 ------------------------------------------------------
 Symbolic Z-matrix:
 Charge =  0 Multiplicity = 1

                         Standard orientation:
 ---------------------------------------------------------------------
 Center     Atomic      Atomic             Coordinates (Angstroms)
 Number     Number       Type             X           Y           Z
 ---------------------------------------------------------------------
      1          6           0       -5.486059    1.502582    0.479677
      2          6           0       -5.707888    0.188308    0.055418
      3          6           0       -4.637975   -0.620695   -0.338726
      4          6           0       -3.353495   -0.080720   -0.295963
      5          6           0       -3.100229    1.224870    0.121867
      6          6           0       -4.185231    2.015764    0.511491
      7          1           0       -6.323053    2.124001    0.784102
      8          1           0       -6.717058   -0.212889    0.029687
      9          1           0       -4.781250   -1.641562   -0.671472
     10          1           0       -2.082966    1.596853    0.136731
     11          1           0       -4.009972    3.036090    0.840526
     12          7           0       -2.212839   -0.927589   -0.710833
     13          8           0       -1.090728   -0.428274   -0.664053
     14          8           0       -2.462503   -2.074644   -1.074933
     15          6           0        5.199099   -0.108855   -0.081197
     16          6           0        5.849942    1.259801   -0.284093
     17          6           0        7.181573    1.176296   -1.030806
     18          1           0        5.891161   -0.758514    0.471919
     19          1           0        5.042249   -0.581360   -1.060753
     20          1           0        6.004252    1.730173    0.695475
     21          1           0        5.156173    1.906338   -0.836624
     22          1           0        7.040814    0.730519   -2.020791
     23          1           0        7.893711    0.553351   -0.479987
     24          1           0        7.629399    2.165907   -1.164907
     25          6           0        3.867113   -0.041812    0.663819
     26          6           0        3.216269   -1.410468    0.866716
     27          6           0        1.884639   -1.326963    1.613428
     28          1           0        4.023962    0.430693    1.643376
     29          1           0        3.175051    0.607847    0.110703
     30          1           0        3.910039   -2.057005    1.419246
     31          1           0        3.061960   -1.880840   -0.112853
     32          1           0        1.172501   -0.704019    1.062610
     33          1           0        2.025398   -0.881186    2.603413
     34          1           0        1.436813   -2.316574    1.747529
 ---------------------------------------------------------------------

 SCF Done:  E(RHF) =  -669.536152754     A.U. after   15 cycles
 E2 =    -0.2090739606D+01 EUMP2 =    -0.67162689235969D+03

 The electronic state is 1-A.
 Alpha  occ. eigenvalues --  -20.60935 -20.60927 -15.85968 -11.31283 -11.27848
 Alpha  occ. eigenvalues --  -11.27843 -11.27584 -11.26854 -11.26845 -11.21056
 Alpha  occ. eigenvalues --  -11.20683 -11.20613 -11.20539 -11.20480 -11.19707
 Alpha  occ. eigenvalues --   -1.59992  -1.39550  -1.19452  -1.08857  -1.07630
 Alpha  occ. eigenvalues --   -1.04848  -1.02678  -0.95702  -0.95123  -0.86250
 Alpha  occ. eigenvalues --   -0.86145  -0.82537  -0.78778  -0.77592  -0.77422
 Alpha  occ. eigenvalues --   -0.72198  -0.71304  -0.70562  -0.65110  -0.64852
 Alpha  occ. eigenvalues --   -0.64256  -0.62197  -0.60058  -0.58540  -0.56734
 Alpha  occ. eigenvalues --   -0.55354  -0.54394  -0.53179  -0.52941  -0.51822
 Alpha  occ. eigenvalues --   -0.51559  -0.49144  -0.48950  -0.48862  -0.47087
 Alpha  occ. eigenvalues --   -0.45831  -0.45058  -0.44930  -0.44743  -0.42950
 Alpha  occ. eigenvalues --   -0.37430  -0.36449
 Alpha virt. eigenvalues --    0.04915   0.11206   0.16388   0.21313   0.23643
 Alpha virt. eigenvalues --    0.25209   0.27215   0.27421   0.28054   0.28322
 Alpha virt. eigenvalues --    0.28995   0.30838   0.32055   0.32465   0.32636

 Mulliken charges:
               1
     1  C   -0.170604
     2  C   -0.218560
     3  C   -0.170710
     4  C    0.158103
     5  C   -0.170482
     6  C   -0.218522
     7  H    0.225967
     8  H    0.223781
     9  H    0.275833
    10  H    0.275459
    11  H    0.223845
    12  N    0.490808
    13  O   -0.462534
    14  O   -0.458794
    15  C   -0.297906
    16  C   -0.299016
    17  C   -0.475283
    18  H    0.147819
    19  H    0.150659
    20  H    0.149958
    21  H    0.151374
    22  H    0.155310
    23  H    0.154341
    24  H    0.158090
    25  C   -0.298378
    26  C   -0.298344
    27  C   -0.483309
    28  H    0.145218
    29  H    0.152153
    30  H    0.146463
    31  H    0.156744
    32  H    0.176624
    33  H    0.144664
    34  H    0.159227
 Sum of Mulliken charges =  -0.00000

 Dipole moment (field-independent basis, Debye):
    X=             -4.3223    Y=              2.9682    Z=              1.3486  Tot=              5.4140
 Quadrupole moment (field-independent basis, Debye-Ang):
   XX=            -67.8010   YY=            -92.7413   ZZ=            -96.1709
   XY=             -7.3551   XZ=             -2.5233   YZ=              0.0280

 Normal termination of Gaussian 16 at Thu May  6 20:46:05 2021.
