 Gaussian 16, Revision A.03,
 Gaussian 16:  EM64L-G16RevA.03 25-Dec-2016

 -------------
 #p 6-31g* mp2
 -------------

 ------------------------------------------------------
 Input file generated by CHIRIPA (05-May-2021 14:57:22)
 ------------------------------------------------------
 Symbolic Z-matrix:
 Charge =  0 Multiplicity = 1

                         Standard orientation:
 ---------------------------------------------------------------------
 Center     Atomic      Atomic             Coordinates (Angstroms)
 Number     Number       Type             X           Y           Z
 ---------------------------------------------------------------------
      1          6           0       -2.065346    0.955370   -0.447624
      2          6           0       -2.310671   -0.403162   -0.222399
      3          6           0       -3.615424   -0.866473   -0.028721
      4          6           0       -4.655828    0.060565   -0.066815
      5          6           0       -4.443589    1.420291   -0.289052
      6          6           0       -3.130710    1.861164   -0.480175
      7          1           0       -1.048627    1.306566   -0.597085
      8          1           0       -1.485243   -1.108886   -0.196596
      9          1           0       -3.833745   -1.912744    0.147548
     10          1           0       -5.286926    2.099844   -0.309254
     11          1           0       -2.943164    2.916790   -0.654888
     12          7           0       -6.041413   -0.418044    0.136870
     13          8           0       -6.940696    0.418895    0.098650
     14          8           0       -6.201916   -1.621055    0.330883
     15          6           0        2.010942   -0.778529    0.443753
     16          6           0        2.458923    0.492460    0.818482
     17          6           0        3.795679    0.857404    0.632885
     18          6           0        4.661088   -0.077661    0.067190
     19          6           0        4.245002   -1.351635   -0.316416
     20          6           0        2.903838   -1.694904   -0.121503
     21          1           0        0.970806   -1.053608    0.591548
     22          1           0        1.767728    1.206169    1.257701
     23          1           0        4.169182    1.834605    0.913940
     24          1           0        4.957609   -2.041599   -0.751798
     25          1           0        2.558728   -2.682679   -0.413471
     26          7           0        6.078586    0.297215   -0.134225
     27          8           0        6.821096   -0.544727   -0.634674
     28          8           0        6.420269    1.425887    0.212167
 ---------------------------------------------------------------------

 SCF Done:  E(RHF) =  -868.336515974     A.U. after   16 cycles
 E2 =    -0.2599903798D+01 EUMP2 =    -0.87093641977227D+03

 The electronic state is 1-A.
 Alpha  occ. eigenvalues --  -20.61389 -20.61382 -20.61363 -20.61355 -15.86447
 Alpha  occ. eigenvalues --  -15.86423 -11.31984 -11.31938 -11.28577 -11.28574
 Alpha  occ. eigenvalues --  -11.28541 -11.28503 -11.28465 -11.28369 -11.27717
 Alpha  occ. eigenvalues --  -11.27696 -11.27632 -11.27544  -1.60460  -1.60434
 Alpha  occ. eigenvalues --   -1.40008  -1.39984  -1.20184  -1.20144  -1.09580
 Alpha  occ. eigenvalues --   -1.09519  -1.05602  -1.05578  -0.96383  -0.96317
 Alpha  occ. eigenvalues --   -0.87009  -0.86983  -0.83200  -0.83150  -0.78191
 Alpha  occ. eigenvalues --   -0.78166  -0.72663  -0.72640  -0.71784  -0.71760
 Alpha  occ. eigenvalues --   -0.71426  -0.71219  -0.65848  -0.65808  -0.65694
 Alpha  occ. eigenvalues --   -0.65539  -0.62936  -0.62930  -0.56247  -0.56065
 Alpha  occ. eigenvalues --   -0.53930  -0.53888  -0.53702  -0.53671  -0.49440
 Alpha  occ. eigenvalues --   -0.49407  -0.49406  -0.49382  -0.45375  -0.45355
 Alpha  occ. eigenvalues --   -0.38216  -0.38150  -0.37195  -0.37174
 Alpha virt. eigenvalues --    0.04325   0.04382   0.10381   0.10426   0.15692
 Alpha virt. eigenvalues --    0.15813   0.17681   0.22110   0.24233   0.25520
 Alpha virt. eigenvalues --    0.27662   0.28853   0.29819   0.31102   0.32562

 Mulliken charges:
               1
     1  C   -0.173659
     2  C   -0.221976
     3  C   -0.169644
     4  C    0.159302
     5  C   -0.169480
     6  C   -0.218080
     7  H    0.224000
     8  H    0.216821
     9  H    0.277142
    10  H    0.278376
    11  H    0.226143
    12  N    0.487942
    13  O   -0.458070
    14  O   -0.459156
    15  C   -0.176489
    16  C   -0.222286
    17  C   -0.169700
    18  C    0.159570
    19  C   -0.169673
    20  C   -0.218471
    21  H    0.222474
    22  H    0.222375
    23  H    0.277679
    24  H    0.278495
    25  H    0.225173
    26  N    0.487865
    27  O   -0.457995
    28  O   -0.458675
 Sum of Mulliken charges =  -0.00000

 Dipole moment (field-independent basis, Debye):
    X=             -0.0879    Y=              0.4218    Z=             -0.0413  Tot=              0.4328
 Quadrupole moment (field-independent basis, Debye-Ang):
   XX=           -194.9301   YY=            -95.8412   ZZ=           -105.4323
   XY=            -16.4686   XZ=              5.8132   YZ=              1.1700

 Normal termination of Gaussian 16 at Thu May  6 08:06:32 2021.
