 Gaussian 16, Revision A.03,
 Gaussian 16:  EM64L-G16RevA.03 25-Dec-2016

 -------------
 #p 6-31g* mp2
 -------------

 ------------------------------------------------------
 Input file generated by CHIRIPA (05-May-2021 14:53:13)
 ------------------------------------------------------
 Symbolic Z-matrix:
 Charge =  0 Multiplicity = 1

                         Standard orientation:
 ---------------------------------------------------------------------
 Center     Atomic      Atomic             Coordinates (Angstroms)
 Number     Number       Type             X           Y           Z
 ---------------------------------------------------------------------
      1          6           0       -2.894654    0.965741   -0.725097
      2          6           0       -1.784804    1.977298   -0.437051
      3          6           0       -1.685113    3.065901   -1.506069
      4          1           0       -2.715378    0.503555   -1.705500
      5          1           0       -3.854083    1.496059   -0.800287
      6          1           0       -0.827955    1.445057   -0.361054
      7          1           0       -1.966638    2.436990    0.542865
      8          1           0       -2.625110    3.622543   -1.577878
      9          1           0       -1.479957    2.624974   -2.486933
     10          1           0       -0.885413    3.778210   -1.280337
     11          6           0       -3.006781   -0.128760    0.334725
     12          6           0       -4.116631   -1.140317    0.046679
     13          6           0       -4.216322   -2.228920    1.115697
     14          1           0       -2.047352   -0.659078    0.409916
     15          1           0       -3.186057    0.333426    1.315128
     16          1           0       -3.934797   -1.600009   -0.933237
     17          1           0       -5.073480   -0.608076   -0.029318
     18          1           0       -4.421478   -1.787993    2.096562
     19          1           0       -3.276325   -2.785562    1.187507
     20          1           0       -5.016022   -2.941229    0.889966
     21          6           0        2.197496    0.828837    2.392685
     22          6           0        1.096601    0.103257    1.925688
     23          6           0        1.145100   -0.541156    0.685960
     24          6           0        2.315665   -0.438682   -0.064084
     25          6           0        3.429089    0.276709    0.373857
     26          6           0        3.358180    0.913098    1.616648
     27          1           0        2.151117    1.326316    3.356925
     28          1           0        0.193890    0.036105    2.526228
     29          1           0        0.307450   -1.109514    0.300302
     30          1           0        4.315168    0.325597   -0.247344
     31          1           0        4.214682    1.475898    1.976795
     32          7           0        2.378871   -1.116648   -1.378151
     33          8           0        3.421781   -1.011126   -2.019900
     34          8           0        1.384306   -1.740720   -1.741484
 ---------------------------------------------------------------------

 SCF Done:  E(RHF) =  -669.535090122     A.U. after   15 cycles
 E2 =    -0.2093248074D+01 EUMP2 =    -0.67162833819614D+03

 The electronic state is 1-A.
 Alpha  occ. eigenvalues --  -20.60815 -20.60809 -15.85867 -11.31222 -11.27779
 Alpha  occ. eigenvalues --  -11.27767 -11.27510 -11.26798 -11.26775 -11.21909
 Alpha  occ. eigenvalues --  -11.21838 -11.21731 -11.21555 -11.21356 -11.21121
 Alpha  occ. eigenvalues --   -1.59889  -1.39443  -1.19395  -1.08785  -1.08712
 Alpha  occ. eigenvalues --   -1.04796  -1.03736  -0.96206  -0.95626  -0.87216
 Alpha  occ. eigenvalues --   -0.86189  -0.82459  -0.79816  -0.78585  -0.77486
 Alpha  occ. eigenvalues --   -0.72085  -0.71213  -0.70510  -0.65397  -0.65032
 Alpha  occ. eigenvalues --   -0.64751  -0.62139  -0.61130  -0.59576  -0.57820
 Alpha  occ. eigenvalues --   -0.55516  -0.55270  -0.53171  -0.52890  -0.52843
 Alpha  occ. eigenvalues --   -0.52621  -0.50137  -0.48843  -0.48840  -0.48132
 Alpha  occ. eigenvalues --   -0.46850  -0.46076  -0.45986  -0.44847  -0.44023
 Alpha  occ. eigenvalues --   -0.37368  -0.36324
 Alpha virt. eigenvalues --    0.04996   0.11204   0.16470   0.19964   0.22951
 Alpha virt. eigenvalues --    0.24075   0.25136   0.26204   0.27708   0.28132
 Alpha virt. eigenvalues --    0.30222   0.30750   0.31277   0.31597   0.31885

 Mulliken charges:
               1
     1  C   -0.298972
     2  C   -0.305014
     3  C   -0.476079
     4  H    0.157109
     5  H    0.150409
     6  H    0.156370
     7  H    0.146688
     8  H    0.154636
     9  H    0.159861
    10  H    0.159564
    11  C   -0.301480
    12  C   -0.299969
    13  C   -0.476218
    14  H    0.141793
    15  H    0.146195
    16  H    0.158146
    17  H    0.153550
    18  H    0.152887
    19  H    0.153992
    20  H    0.163274
    21  C   -0.171043
    22  C   -0.217886
    23  C   -0.179395
    24  C    0.160430
    25  C   -0.170817
    26  C   -0.218406
    27  H    0.225851
    28  H    0.225928
    29  H    0.282385
    30  H    0.275672
    31  H    0.223636
    32  N    0.488039
    33  O   -0.460007
    34  O   -0.461127
 Sum of Mulliken charges =  -0.00000

 Dipole moment (field-independent basis, Debye):
    X=             -0.2552    Y=              2.3753    Z=              4.5378  Tot=              5.1282
 Quadrupole moment (field-independent basis, Debye-Ang):
   XX=            -90.6998   YY=            -97.4558   ZZ=            -95.9739
   XY=              7.1827   XZ=             10.3458   YZ=             -1.4981

 Normal termination of Gaussian 16 at Thu May  6 20:18:11 2021.
