 Gaussian 16, Revision A.03,
 Gaussian 16:  EM64L-G16RevA.03 25-Dec-2016

 -------------
 #p 6-31g* mp2
 -------------

 ------------------------------------------------------
 Input file generated by CHIRIPA (05-May-2021 14:57:23)
 ------------------------------------------------------
 Symbolic Z-matrix:
 Charge =  0 Multiplicity = 1

                         Standard orientation:
 ---------------------------------------------------------------------
 Center     Atomic      Atomic             Coordinates (Angstroms)
 Number     Number       Type             X           Y           Z
 ---------------------------------------------------------------------
      1          6           0       -6.710868    0.272396   -0.191836
      2          6           0       -5.835000    1.322815    0.101413
      3          6           0       -4.459829    1.092894    0.204316
      4          6           0       -3.992744   -0.205650    0.007071
      5          6           0       -4.840026   -1.273032   -0.286357
      6          6           0       -6.211466   -1.019897   -0.384445
      7          1           0       -7.777685    0.460020   -0.269904
      8          1           0       -6.220023    2.327444    0.251490
      9          1           0       -3.759377    1.887720    0.430231
     10          1           0       -4.426508   -2.263775   -0.430753
     11          1           0       -6.889331   -1.837592   -0.612302
     12          7           0       -2.538887   -0.461344    0.113462
     13          8           0       -2.152466   -1.614415   -0.064708
     14          8           0       -1.813304    0.496154    0.373006
     15          6           0        2.079143    1.468026    0.177263
     16          6           0        3.250177    2.101814   -0.251122
     17          6           0        4.448925    1.388867   -0.347329
     18          6           0        4.440522    0.037392   -0.005662
     19          6           0        3.290260   -0.622291    0.424460
     20          6           0        2.102880    0.110390    0.513094
     21          1           0        1.152341    2.029526    0.249057
     22          1           0        3.234707    3.156063   -0.512587
     23          1           0        5.370031    1.854620   -0.676048
     24          1           0        3.336919   -1.674360    0.678210
     25          1           0        1.194963   -0.384428    0.846090
     26          7           0        5.703566   -0.727818   -0.103505
     27          8           0        5.669791   -1.917505    0.203323
     28          8           0        6.703400   -0.123415   -0.485167
 ---------------------------------------------------------------------

 SCF Done:  E(RHF) =  -868.341383407     A.U. after   16 cycles
 E2 =    -0.2598494160D+01 EUMP2 =    -0.87093987756634D+03

 The electronic state is 1-A.
 Alpha  occ. eigenvalues --  -20.62040 -20.62012 -20.59822 -20.59811 -15.87021
 Alpha  occ. eigenvalues --  -15.84860 -11.32034 -11.29978 -11.28574 -11.28534
 Alpha  occ. eigenvalues --  -11.28225 -11.27494 -11.27469 -11.26565 -11.26415
 Alpha  occ. eigenvalues --  -11.26047 -11.25532 -11.25174  -1.61067  -1.58900
 Alpha  occ. eigenvalues --   -1.40631  -1.38461  -1.20168  -1.18094  -1.09629
 Alpha  occ. eigenvalues --   -1.07506  -1.05516  -1.03445  -0.96525  -0.94396
 Alpha  occ. eigenvalues --   -0.86931  -0.84828  -0.83373  -0.81237  -0.78458
 Alpha  occ. eigenvalues --   -0.76338  -0.73266  -0.72347  -0.71270  -0.71084
 Alpha  occ. eigenvalues --   -0.70221  -0.69137  -0.65825  -0.65516  -0.63719
 Alpha  occ. eigenvalues --   -0.63385  -0.62868  -0.60783  -0.56027  -0.53870
 Alpha  occ. eigenvalues --   -0.53854  -0.53603  -0.51814  -0.51509  -0.50021
 Alpha  occ. eigenvalues --   -0.49971  -0.47855  -0.47811  -0.46107  -0.43923
 Alpha  occ. eigenvalues --   -0.38122  -0.37101  -0.36036  -0.35059
 Alpha virt. eigenvalues --    0.04057   0.06158   0.10559   0.12604   0.15629
 Alpha virt. eigenvalues --    0.17744   0.20719   0.22897   0.26668   0.27557
 Alpha virt. eigenvalues --    0.28836   0.29573   0.30400   0.31790   0.32463

 Mulliken charges:
               1
     1  C   -0.169431
     2  C   -0.218430
     3  C   -0.170173
     4  C    0.157883
     5  C   -0.169920
     6  C   -0.218503
     7  H    0.228536
     8  H    0.225463
     9  H    0.273586
    10  H    0.277288
    11  H    0.226407
    12  N    0.491461
    13  O   -0.456995
    14  O   -0.472530
    15  C   -0.173578
    16  C   -0.219710
    17  C   -0.173615
    18  C    0.157650
    19  C   -0.173803
    20  C   -0.222771
    21  H    0.233606
    22  H    0.217666
    23  H    0.270733
    24  H    0.273441
    25  H    0.244660
    26  N    0.488194
    27  O   -0.462595
    28  O   -0.464519
 Sum of Mulliken charges =  -0.00000

 Dipole moment (field-independent basis, Debye):
    X=            -10.3862    Y=              3.4731    Z=             -0.0047  Tot=             10.9516
 Quadrupole moment (field-independent basis, Debye-Ang):
   XX=           -103.6684   YY=            -97.2628   ZZ=           -105.8191
   XY=             12.2500   XZ=              2.6619   YZ=             -0.2116

 Normal termination of Gaussian 16 at Fri May  7 08:00:21 2021.
