 Gaussian 16, Revision A.03,
 Gaussian 16:  EM64L-G16RevA.03 25-Dec-2016

 -------------
 #p 6-31g* mp2
 -------------

 ------------------------------------------------------
 Input file generated by CHIRIPA (05-May-2021 14:51:12)
 ------------------------------------------------------
 Symbolic Z-matrix:
 Charge =  0 Multiplicity = 1

                         Standard orientation:
 ---------------------------------------------------------------------
 Center     Atomic      Atomic             Coordinates (Angstroms)
 Number     Number       Type             X           Y           Z
 ---------------------------------------------------------------------
      1          6           0       -2.469601    0.216307   -0.011858
      2          6           0       -3.908870   -0.214804    0.272103
      3          6           0       -4.077896   -1.734291    0.291675
      4          1           0       -2.151927   -0.201851   -0.976830
      5          1           0       -1.807197   -0.217453    0.750028
      6          1           0       -4.568541    0.220771   -0.489293
      7          1           0       -4.223219    0.204587    1.236422
      8          1           0       -3.443423   -2.182577    1.063093
      9          1           0       -3.790707   -2.166300   -0.672426
     10          1           0       -5.114299   -2.020341    0.496381
     11          6           0       -2.284663    1.732554   -0.034644
     12          6           0       -0.845394    2.163665   -0.318605
     13          6           0       -0.676368    3.683152   -0.338177
     14          1           0       -2.947066    2.166313   -0.796530
     15          1           0       -2.602337    2.150712    0.930328
     16          1           0       -0.531044    1.744274   -1.282924
     17          1           0       -0.185722    1.728089    0.442791
     18          1           0       -0.963556    4.115161    0.625924
     19          1           0       -1.310841    4.131437   -1.109595
     20          1           0        0.360035    3.969201   -0.542883
     21          6           0        2.236232   -1.668517   -0.262797
     22          6           0        0.873697   -2.228234    0.147328
     23          6           0        0.606375   -3.617432   -0.432725
     24          1           0        2.293504   -1.626900   -1.359124
     25          1           0        3.023335   -2.361525    0.065235
     26          1           0        0.089487   -1.533697   -0.180160
     27          1           0        0.819590   -2.268344    1.242810
     28          1           0        1.367522   -4.328582   -0.095795
     29          1           0        0.633273   -3.589760   -1.526851
     30          1           0       -0.372990   -3.998504   -0.126967
     31          6           0        2.518032   -0.280344    0.309298
     32          6           0        3.880566    0.279373   -0.100826
     33          6           0        4.147888    1.668571    0.479227
     34          1           0        1.730929    0.412664   -0.018732
     35          1           0        2.460760   -0.321961    1.405626
     36          1           0        3.934675    0.319483   -1.196307
     37          1           0        4.664777   -0.415164    0.226663
     38          1           0        4.120991    1.640899    1.573353
     39          1           0        3.386741    2.379722    0.142297
     40          1           0        5.127254    2.049643    0.173470
 ---------------------------------------------------------------------

 SCF Done:  E(RHF) =  -470.732516385     A.U. after   11 cycles
 E2 =    -0.1584775337D+01 EUMP2 =    -0.47231729172265D+03

 The electronic state is 1-A.
 Alpha  occ. eigenvalues --  -11.21657 -11.21638 -11.21551 -11.21455 -11.21450
 Alpha  occ. eigenvalues --  -11.21387 -11.21306 -11.21238 -11.21136 -11.21100
 Alpha  occ. eigenvalues --  -11.21052 -11.20995  -1.08506  -1.08339  -1.03590
 Alpha  occ. eigenvalues --   -1.03456  -0.96033  -0.95914  -0.87060  -0.86921
 Alpha  occ. eigenvalues --   -0.79718  -0.79487  -0.78536  -0.77961  -0.65141
 Alpha  occ. eigenvalues --   -0.64967  -0.60994  -0.60868  -0.59444  -0.59248
 Alpha  occ. eigenvalues --   -0.57669  -0.57505  -0.55317  -0.55209  -0.52734
 Alpha  occ. eigenvalues --   -0.52608  -0.52536  -0.52277  -0.49990  -0.49855
 Alpha  occ. eigenvalues --   -0.48114  -0.47748  -0.46767  -0.46685  -0.46284
 Alpha  occ. eigenvalues --   -0.45820  -0.45642  -0.44839  -0.43826  -0.43699
 Alpha virt. eigenvalues --    0.21346   0.22358   0.23439   0.24758   0.25518
 Alpha virt. eigenvalues --    0.26219   0.26310   0.27272   0.28676   0.29646
 Alpha virt. eigenvalues --    0.30841   0.31071   0.31746   0.31873   0.32058

 Mulliken charges:
               1
     1  C   -0.303502
     2  C   -0.299058
     3  C   -0.476347
     4  H    0.149675
     5  H    0.155035
     6  H    0.151912
     7  H    0.152030
     8  H    0.155537
     9  H    0.155380
    10  H    0.160509
    11  C   -0.297134
    12  C   -0.306584
    13  C   -0.475674
    14  H    0.149472
    15  H    0.149819
    16  H    0.150984
    17  H    0.158624
    18  H    0.155733
    19  H    0.155472
    20  H    0.160171
    21  C   -0.296915
    22  C   -0.308455
    23  C   -0.475523
    24  H    0.148773
    25  H    0.148851
    26  H    0.162695
    27  H    0.149852
    28  H    0.154735
    29  H    0.154428
    30  H    0.160454
    31  C   -0.308055
    32  C   -0.298794
    33  C   -0.476181
    34  H    0.160780
    35  H    0.147918
    36  H    0.151542
    37  H    0.151706
    38  H    0.154967
    39  H    0.154971
    40  H    0.160194
 Sum of Mulliken charges =  -0.00000

 Dipole moment (field-independent basis, Debye):
    X=             -0.0729    Y=              0.0433    Z=              0.0073  Tot=              0.0851
 Quadrupole moment (field-independent basis, Debye-Ang):
   XX=            -84.8954   YY=            -86.8941   ZZ=            -83.2025
   XY=             -0.7743   XZ=              0.4027   YZ=             -0.6330

 Normal termination of Gaussian 16 at Wed May  5 21:30:52 2021.
