 Gaussian 16, Revision A.03,
 Gaussian 16:  EM64L-G16RevA.03 25-Dec-2016

 -------------
 #p 6-31g* mp2
 -------------

 ------------------------------------------------------
 Input file generated by CHIRIPA (05-May-2021 14:55:20)
 ------------------------------------------------------
 Symbolic Z-matrix:
 Charge =  0 Multiplicity = 1

                         Standard orientation:
 ---------------------------------------------------------------------
 Center     Atomic      Atomic             Coordinates (Angstroms)
 Number     Number       Type             X           Y           Z
 ---------------------------------------------------------------------
      1          6           0       -5.098458    0.327966    0.027187
      2          6           0       -4.414988    0.121057    1.229925
      3          6           0       -3.047083   -0.167707    1.228647
      4          6           0       -2.390996   -0.242343    0.000938
      5          6           0       -3.044118   -0.041203   -1.214078
      6          6           0       -4.412052    0.246319   -1.188832
      7          1           0       -6.161090    0.551802    0.037489
      8          1           0       -4.945489    0.183843    2.175796
      9          1           0       -2.493403   -0.332308    2.145032
     10          1           0       -2.488200   -0.110331   -2.141220
     11          1           0       -4.940269    0.406544   -2.124438
     12          7           0       -0.942842   -0.547387   -0.013102
     13          8           0       -0.387698   -0.607620   -1.108010
     14          8           0       -0.390343   -0.720471    1.071068
     15          6           0        2.941021    0.863904   -0.148558
     16          6           0        3.624070    2.174520    0.243508
     17          6           0        2.761468    3.401997   -0.051475
     18          1           0        2.694662    0.892079   -1.218819
     19          1           0        1.986736    0.780535    0.389759
     20          1           0        4.577433    2.254739   -0.294338
     21          1           0        3.869003    2.143144    1.312918
     22          1           0        1.815421    3.348826    0.496948
     23          1           0        2.527877    3.461054   -1.119440
     24          1           0        3.268979    4.327932    0.236509
     25          6           0        3.790933   -0.372210    0.140232
     26          6           0        3.107884   -1.682826   -0.251833
     27          6           0        3.970485   -2.910302    0.043150
     28          1           0        4.745218   -0.288841   -0.398084
     29          1           0        4.037292   -0.400385    1.210493
     30          1           0        2.862951   -1.651450   -1.321244
     31          1           0        2.154521   -1.763044    0.286012
     32          1           0        4.204077   -2.969360    1.111114
     33          1           0        4.916533   -2.857132   -0.505274
     34          1           0        3.462975   -3.836238   -0.244834
 ---------------------------------------------------------------------

 SCF Done:  E(RHF) =  -669.536843112     A.U. after   15 cycles
 E2 =    -0.2093277280D+01 EUMP2 =    -0.67163012039155D+03

 The electronic state is 1-A.
 Alpha  occ. eigenvalues --  -20.61235 -20.61229 -15.86203 -11.31450 -11.27995
 Alpha  occ. eigenvalues --  -11.27989 -11.27714 -11.26977 -11.26967 -11.20313
 Alpha  occ. eigenvalues --  -11.20107 -11.19665 -11.19530 -11.19496 -11.19392
 Alpha  occ. eigenvalues --   -1.60250  -1.39809  -1.19601  -1.09023  -1.06731
 Alpha  occ. eigenvalues --   -1.04982  -1.01987  -0.95876  -0.94496  -0.86387
 Alpha  occ. eigenvalues --   -0.85529  -0.82716  -0.78028  -0.77784  -0.76451
 Alpha  occ. eigenvalues --   -0.72410  -0.71546  -0.70709  -0.65257  -0.64985
 Alpha  occ. eigenvalues --   -0.63372  -0.62328  -0.59399  -0.57891  -0.56080
 Alpha  occ. eigenvalues --   -0.55491  -0.53813  -0.53316  -0.53071  -0.51281
 Alpha  occ. eigenvalues --   -0.50917  -0.49306  -0.49178  -0.48477  -0.46345
 Alpha  occ. eigenvalues --   -0.45313  -0.44950  -0.44002  -0.43685  -0.42189
 Alpha  occ. eigenvalues --   -0.37571  -0.36576
 Alpha virt. eigenvalues --    0.04706   0.11081   0.16228   0.21218   0.24492
 Alpha virt. eigenvalues --    0.25705   0.27152   0.28053   0.28324   0.29112
 Alpha virt. eigenvalues --    0.29743   0.30902   0.32327   0.32766   0.33184

 Mulliken charges:
               1
     1  C   -0.170165
     2  C   -0.218592
     3  C   -0.170538
     4  C    0.160358
     5  C   -0.170512
     6  C   -0.218632
     7  H    0.226615
     8  H    0.224378
     9  H    0.275971
    10  H    0.276248
    11  H    0.224433
    12  N    0.487832
    13  O   -0.455093
    14  O   -0.459696
    15  C   -0.301721
    16  C   -0.298637
    17  C   -0.473701
    18  H    0.149646
    19  H    0.166449
    20  H    0.146934
    21  H    0.148261
    22  H    0.152215
    23  H    0.153084
    24  H    0.154887
    25  C   -0.296750
    26  C   -0.306075
    27  C   -0.475164
    28  H    0.140441
    29  H    0.144008
    30  H    0.151371
    31  H    0.178704
    32  H    0.150234
    33  H    0.147942
    34  H    0.155265
 Sum of Mulliken charges =  -0.00000

 Dipole moment (field-independent basis, Debye):
    X=             -5.7264    Y=              0.9929    Z=              0.0270  Tot=              5.8119
 Quadrupole moment (field-independent basis, Debye-Ang):
   XX=            -72.9693   YY=            -98.3568   ZZ=            -88.8799
   XY=             -0.8434   XZ=             -0.5821   YZ=             -0.2653

 Normal termination of Gaussian 16 at Thu May  6 09:16:58 2021.
