 Gaussian 16, Revision A.03,
 Gaussian 16:  EM64L-G16RevA.03 25-Dec-2016

 -------------
 #p 6-31g* mp2
 -------------

 ------------------------------------------------------
 Input file generated by CHIRIPA (05-May-2021 14:57:27)
 ------------------------------------------------------
 Symbolic Z-matrix:
 Charge =  0 Multiplicity = 1

                         Standard orientation:
 ---------------------------------------------------------------------
 Center     Atomic      Atomic             Coordinates (Angstroms)
 Number     Number       Type             X           Y           Z
 ---------------------------------------------------------------------
      1          6           0       -1.820916    2.909106    0.030375
      2          6           0       -1.951077    2.221256   -1.180592
      3          6           0       -2.261445    0.858147   -1.193077
      4          6           0       -2.435711    0.211271    0.029409
      5          6           0       -2.312689    0.868949    1.252362
      6          6           0       -2.001818    2.231952    1.240853
      7          1           0       -1.579619    3.967960    0.030754
      8          1           0       -1.811138    2.744572   -2.122187
      9          1           0       -2.368088    0.301244   -2.116063
     10          1           0       -2.458007    0.320198    2.174953
     11          1           0       -1.901349    2.763589    2.182826
     12          7           0       -2.764549   -1.231735    0.028892
     13          8           0       -2.913164   -1.778769    1.119445
     14          8           0       -2.867451   -1.788405   -1.062055
     15          6           0        4.549439    0.833255    0.117485
     16          6           0        3.947699    0.615834   -1.126364
     17          6           0        2.746483   -0.093326   -1.219724
     18          6           0        2.171928   -0.573068   -0.043704
     19          6           0        2.747032   -0.372774    1.210261
     20          6           0        3.948244    0.339128    1.279777
     21          1           0        5.482571    1.385213    0.180748
     22          1           0        4.412335    0.998416   -2.030681
     23          1           0        2.259087   -0.276054   -2.169711
     24          1           0        2.260052   -0.766401    2.094187
     25          1           0        4.413304    0.506471    2.247125
     26          7           0        0.900255   -1.325277   -0.129920
     27          8           0        0.414171   -1.737588    0.920966
     28          8           0        0.413680   -1.488302   -1.246747
 ---------------------------------------------------------------------

 SCF Done:  E(RHF) =  -868.336518952     A.U. after   16 cycles
 E2 =    -0.2604427940D+01 EUMP2 =    -0.87094094689206D+03

 The electronic state is 1-A.
 Alpha  occ. eigenvalues --  -20.60798 -20.60782 -20.59040 -20.59001 -15.85791
 Alpha  occ. eigenvalues --  -15.84094 -11.31270 -11.30018 -11.27860 -11.27845
 Alpha  occ. eigenvalues --  -11.27621 -11.26899 -11.26885 -11.26711 -11.26674
 Alpha  occ. eigenvalues --  -11.26632 -11.25881 -11.25862  -1.59861  -1.58041
 Alpha  occ. eigenvalues --   -1.39404  -1.37596  -1.19456  -1.18295  -1.08834
 Alpha  occ. eigenvalues --   -1.07580  -1.04876  -1.03792  -0.95648  -0.94319
 Alpha  occ. eigenvalues --   -0.86268  -0.85150  -0.82479  -0.81179  -0.77522
 Alpha  occ. eigenvalues --   -0.76083  -0.71995  -0.71306  -0.70570  -0.70369
 Alpha  occ. eigenvalues --   -0.69413  -0.69225  -0.65106  -0.64875  -0.63938
 Alpha  occ. eigenvalues --   -0.63818  -0.62222  -0.61123  -0.55374  -0.54314
 Alpha  occ. eigenvalues --   -0.53202  -0.52970  -0.52089  -0.51896  -0.48817
 Alpha  occ. eigenvalues --   -0.48743  -0.47151  -0.47053  -0.44868  -0.42769
 Alpha  occ. eigenvalues --   -0.37461  -0.36486  -0.36295  -0.35409
 Alpha virt. eigenvalues --    0.05003   0.06508   0.11168   0.12248   0.16473
 Alpha virt. eigenvalues --    0.17851   0.21288   0.22208   0.27188   0.28064
 Alpha virt. eigenvalues --    0.28193   0.29194   0.30823   0.31714   0.32409

 Mulliken charges:
               1
     1  C   -0.173432
     2  C   -0.222922
     3  C   -0.164827
     4  C    0.159245
     5  C   -0.169013
     6  C   -0.222016
     7  H    0.219317
     8  H    0.217660
     9  H    0.277887
    10  H    0.275636
    11  H    0.217634
    12  N    0.497526
    13  O   -0.460147
    14  O   -0.455685
    15  C   -0.171345
    16  C   -0.218994
    17  C   -0.171149
    18  C    0.161307
    19  C   -0.171269
    20  C   -0.218961
    21  H    0.225147
    22  H    0.222711
    23  H    0.274905
    24  H    0.276355
    25  H    0.223134
    26  N    0.484266
    27  O   -0.456076
    28  O   -0.456891
 Sum of Mulliken charges =  -0.00000

 Dipole moment (field-independent basis, Debye):
    X=              5.6998    Y=              7.2393    Z=              0.2628  Tot=              9.2176
 Quadrupole moment (field-independent basis, Debye-Ang):
   XX=            -92.8502   YY=           -107.7481   ZZ=            -94.9200
   XY=             -8.1952   XZ=              0.5573   YZ=             -0.7756

 Normal termination of Gaussian 16 at Wed May  5 16:34:20 2021.
