 Gaussian 16, Revision A.03,
 Gaussian 16:  EM64L-G16RevA.03 25-Dec-2016

 -------------
 #p 6-31g* mp2
 -------------

 ------------------------------------------------------
 Input file generated by CHIRIPA (05-May-2021 14:57:21)
 ------------------------------------------------------
 Symbolic Z-matrix:
 Charge =  0 Multiplicity = 1

                         Standard orientation:
 ---------------------------------------------------------------------
 Center     Atomic      Atomic             Coordinates (Angstroms)
 Number     Number       Type             X           Y           Z
 ---------------------------------------------------------------------
      1          6           0        3.855928    2.193586   -1.095231
      2          6           0        5.017922    1.536005   -0.678244
      3          6           0        4.948734    0.253213   -0.126696
      4          6           0        3.695401   -0.345088   -0.006353
      5          6           0        2.519692    0.284203   -0.412543
      6          6           0        2.612713    1.566692   -0.961286
      7          1           0        3.918932    3.189972   -1.522597
      8          1           0        5.984778    2.020428   -0.781054
      9          1           0        5.832441   -0.278694    0.204296
     10          1           0        1.570196   -0.224315   -0.297281
     11          1           0        1.708630    2.074985   -1.284267
     12          7           0        3.609539   -1.702962    0.576061
     13          8           0        2.493266   -2.208434    0.671297
     14          8           0        4.660139   -2.236080    0.926292
     15          6           0       -2.286763    1.833586    1.289627
     16          6           0       -1.695382    0.690250    0.742295
     17          6           0       -2.473957   -0.265127    0.082278
     18          6           0       -3.847102   -0.044244   -0.012440
     19          6           0       -4.465736    1.084675    0.522464
     20          6           0       -3.667618    2.026809    1.178162
     21          1           0       -1.674356    2.570603    1.800667
     22          1           0       -0.623235    0.537568    0.827351
     23          1           0       -2.042094   -1.159272   -0.350639
     24          1           0       -5.537073    1.209229    0.421753
     25          1           0       -4.129614    2.913794    1.602263
     26          7           0       -4.681689   -1.048650   -0.708884
     27          8           0       -5.889264   -0.830708   -0.778890
     28          8           0       -4.112460   -2.034826   -1.171565
 ---------------------------------------------------------------------

 SCF Done:  E(RHF) =  -868.337086258     A.U. after   16 cycles
 E2 =    -0.2599692461D+01 EUMP2 =    -0.87093677871920D+03

 The electronic state is 1-A.
 Alpha  occ. eigenvalues --  -20.61360 -20.61342 -20.60842 -20.60830 -15.86410
 Alpha  occ. eigenvalues --  -15.85897 -11.31875 -11.31364 -11.28534 -11.28384
 Alpha  occ. eigenvalues --  -11.28145 -11.27961 -11.27955 -11.27764 -11.27501
 Alpha  occ. eigenvalues --  -11.27413 -11.27055 -11.26988  -1.60425  -1.59914
 Alpha  occ. eigenvalues --   -1.39979  -1.39463  -1.20038  -1.19566  -1.09402
 Alpha  occ. eigenvalues --   -1.08947  -1.05465  -1.04990  -0.96231  -0.95756
 Alpha  occ. eigenvalues --   -0.86850  -0.86386  -0.83067  -0.82591  -0.78122
 Alpha  occ. eigenvalues --   -0.77608  -0.72624  -0.72112  -0.71749  -0.71240
 Alpha  occ. eigenvalues --   -0.71146  -0.70673  -0.65692  -0.65478  -0.65221
 Alpha  occ. eigenvalues --   -0.65008  -0.62869  -0.62272  -0.55929  -0.55497
 Alpha  occ. eigenvalues --   -0.53773  -0.53577  -0.53311  -0.53053  -0.49391
 Alpha  occ. eigenvalues --   -0.49375  -0.48884  -0.48859  -0.45362  -0.44846
 Alpha  occ. eigenvalues --   -0.37993  -0.37565  -0.37069  -0.36597
 Alpha virt. eigenvalues --    0.04408   0.04931   0.10556   0.11027   0.15891
 Alpha virt. eigenvalues --    0.16355   0.18873   0.21867   0.24693   0.27113
 Alpha virt. eigenvalues --    0.28000   0.29045   0.30233   0.30921   0.32331

 Mulliken charges:
               1
     1  C   -0.170752
     2  C   -0.217703
     3  C   -0.170116
     4  C    0.161514
     5  C   -0.178116
     6  C   -0.219796
     7  H    0.227655
     8  H    0.226097
     9  H    0.277945
    10  H    0.271256
    11  H    0.223725
    12  N    0.487896
    13  O   -0.461819
    14  O   -0.456897
    15  C   -0.171893
    16  C   -0.224987
    17  C   -0.171160
    18  C    0.158506
    19  C   -0.170266
    20  C   -0.218658
    21  H    0.225261
    22  H    0.222528
    23  H    0.279803
    24  H    0.276534
    25  H    0.223802
    26  N    0.487936
    27  O   -0.460374
    28  O   -0.457919
 Sum of Mulliken charges =  -0.00000

 Dipole moment (field-independent basis, Debye):
    X=              3.3774    Y=              8.2998    Z=              0.3769  Tot=              8.9686
 Quadrupole moment (field-independent basis, Debye-Ang):
   XX=           -115.4950   YY=           -107.8344   ZZ=           -106.1800
   XY=              1.4604   XZ=            -17.4875   YZ=              1.0220

 Normal termination of Gaussian 16 at Wed May  5 19:17:53 2021.
