 Gaussian 16, Revision A.03,
 Gaussian 16:  EM64L-G16RevA.03 25-Dec-2016

 -------------
 #p 6-31g* mp2
 -------------

 ------------------------------------------------------
 Input file generated by CHIRIPA (05-May-2021 14:57:26)
 ------------------------------------------------------
 Symbolic Z-matrix:
 Charge =  0 Multiplicity = 1

                         Standard orientation:
 ---------------------------------------------------------------------
 Center     Atomic      Atomic             Coordinates (Angstroms)
 Number     Number       Type             X           Y           Z
 ---------------------------------------------------------------------
      1          6           0       -3.774123    2.620015    0.223822
      2          6           0       -2.582326    1.888549    0.256948
      3          6           0       -2.598568    0.497894    0.114247
      4          6           0       -3.829922   -0.131754   -0.060680
      5          6           0       -5.034294    0.569232   -0.098034
      6          6           0       -4.994153    1.959187    0.046749
      7          1           0       -3.752223    3.700037    0.335485
      8          1           0       -1.633373    2.399098    0.394327
      9          1           0       -1.690879   -0.092904    0.136053
     10          1           0       -5.964852    0.032272   -0.236438
     11          1           0       -5.921287    2.524682    0.020621
     12          7           0       -3.859767   -1.603608   -0.212853
     13          8           0       -4.957599   -2.134673   -0.365734
     14          8           0       -2.784763   -2.198311   -0.176364
     15          6           0        1.591294   -1.221613    0.413244
     16          6           0        1.657354    0.155707    0.178403
     17          6           0        2.889533    0.781771   -0.032132
     18          6           0        4.040950   -0.003438   -0.000910
     19          6           0        4.007821   -1.377703    0.230581
     20          6           0        2.764669   -1.982580    0.438538
     21          1           0        0.629845   -1.699726    0.575792
     22          1           0        0.747727    0.749184    0.158202
     23          1           0        2.969517    1.846274   -0.216134
     24          1           0        4.931779   -1.942961    0.244848
     25          1           0        2.716389   -3.052409    0.620689
     26          7           0        5.351210    0.648134   -0.222430
     27          8           0        6.351091   -0.065884   -0.189968
     28          8           0        5.353502    1.860515   -0.424325
 ---------------------------------------------------------------------

 SCF Done:  E(RHF) =  -868.337422959     A.U. after   16 cycles
 E2 =    -0.2600123812D+01 EUMP2 =    -0.87093754677088D+03

 The electronic state is 1-A.
 Alpha  occ. eigenvalues --  -20.61729 -20.61690 -20.60889 -20.60876 -15.86761
 Alpha  occ. eigenvalues --  -15.85944 -11.32101 -11.31316 -11.28792 -11.28590
 Alpha  occ. eigenvalues --  -11.28341 -11.27993 -11.27867 -11.27734 -11.27588
 Alpha  occ. eigenvalues --  -11.27580 -11.27074 -11.26808  -1.60772  -1.59962
 Alpha  occ. eigenvalues --   -1.40333  -1.39515  -1.20258  -1.19506  -1.09640
 Alpha  occ. eigenvalues --   -1.08885  -1.05682  -1.04934  -0.96492  -0.95711
 Alpha  occ. eigenvalues --   -0.87069  -0.86337  -0.83347  -0.82559  -0.78423
 Alpha  occ. eigenvalues --   -0.77619  -0.72986  -0.72163  -0.72085  -0.71376
 Alpha  occ. eigenvalues --   -0.71286  -0.70551  -0.65928  -0.65696  -0.65164
 Alpha  occ. eigenvalues --   -0.65013  -0.63064  -0.62244  -0.56128  -0.55354
 Alpha  occ. eigenvalues --   -0.53972  -0.53780  -0.53231  -0.53042  -0.49749
 Alpha  occ. eigenvalues --   -0.49714  -0.48921  -0.48914  -0.45743  -0.44920
 Alpha  occ. eigenvalues --   -0.38192  -0.37453  -0.37265  -0.36539
 Alpha virt. eigenvalues --    0.04159   0.04956   0.10394   0.11112   0.15669
 Alpha virt. eigenvalues --    0.16442   0.17380   0.22275   0.24459   0.25122
 Alpha virt. eigenvalues --    0.27658   0.28888   0.30571   0.31441   0.33311

 Mulliken charges:
               1
     1  C   -0.169408
     2  C   -0.220412
     3  C   -0.173553
     4  C    0.159464
     5  C   -0.168885
     6  C   -0.218221
     7  H    0.229477
     8  H    0.220775
     9  H    0.269923
    10  H    0.278274
    11  H    0.227235
    12  N    0.489628
    13  O   -0.454934
    14  O   -0.468593
    15  C   -0.176209
    16  C   -0.221034
    17  C   -0.170769
    18  C    0.158184
    19  C   -0.169808
    20  C   -0.218844
    21  H    0.240414
    22  H    0.211444
    23  H    0.273552
    24  H    0.276815
    25  H    0.228166
    26  N    0.488196
    27  O   -0.459229
    28  O   -0.461649
 Sum of Mulliken charges =  -0.00000

 Dipole moment (field-independent basis, Debye):
    X=             -4.7634    Y=              2.7958    Z=              1.3176  Tot=              5.6782
 Quadrupole moment (field-independent basis, Debye-Ang):
   XX=           -135.3616   YY=           -102.3786   ZZ=           -106.5659
   XY=            -32.6498   XZ=              1.9739   YZ=             -0.9908

 Normal termination of Gaussian 16 at Thu May  6 14:47:53 2021.
