 Gaussian 16, Revision A.03,
 Gaussian 16:  EM64L-G16RevA.03 25-Dec-2016

 -------------
 #p 6-31g* mp2
 -------------

 ------------------------------------------------------
 Input file generated by CHIRIPA (05-May-2021 14:55:21)
 ------------------------------------------------------
 Symbolic Z-matrix:
 Charge =  0 Multiplicity = 1

                         Standard orientation:
 ---------------------------------------------------------------------
 Center     Atomic      Atomic             Coordinates (Angstroms)
 Number     Number       Type             X           Y           Z
 ---------------------------------------------------------------------
      1          6           0        6.246516    1.148593   -0.196660
      2          6           0        5.068362    1.883679   -0.028959
      3          6           0        3.832311    1.235369    0.051161
      4          6           0        3.811076   -0.155465   -0.040597
      5          6           0        4.967514   -0.915714   -0.207820
      6          6           0        6.192427   -0.246298   -0.285399
      7          1           0        7.202384    1.660413   -0.257912
      8          1           0        5.107348    2.967068    0.040267
      9          1           0        2.904883    1.779861    0.180868
     10          1           0        4.896825   -1.994648   -0.273568
     11          1           0        7.105788   -0.819753   -0.415651
     12          7           0        2.508420   -0.852973    0.042877
     13          8           0        2.516581   -2.079180   -0.040714
     14          8           0        1.503902   -0.160266    0.190315
     15          6           0       -5.803849    0.437769    0.173857
     16          6           0       -6.980545   -0.132436   -0.618756
     17          6           0       -8.275566    0.650340   -0.399725
     18          1           0       -6.056598    0.439445    1.242997
     19          1           0       -5.651849    1.487523   -0.113039
     20          1           0       -7.129401   -1.181205   -0.331460
     21          1           0       -6.724890   -0.132932   -1.686116
     22          1           0       -8.150763    1.694506   -0.704263
     23          1           0       -8.557573    0.640276    0.658090
     24          1           0       -9.103687    0.225632   -0.975661
     25          6           0       -4.502122   -0.334071   -0.034710
     26          6           0       -3.325426    0.236133    0.757904
     27          6           0       -2.030403   -0.546643    0.538873
     28          1           0       -4.654121   -1.383824    0.252187
     29          1           0       -4.249372   -0.335747   -1.103849
     30          1           0       -3.581080    0.236629    1.825263
     31          1           0       -3.176569    1.284904    0.470607
     32          1           0       -1.748397   -0.536578   -0.518942
     33          1           0       -2.155208   -1.590808    0.843411
     34          1           0       -1.202285   -0.121934    1.114808
 ---------------------------------------------------------------------

 SCF Done:  E(RHF) =  -669.535631374     A.U. after   15 cycles
 E2 =    -0.2090750526D+01 EUMP2 =    -0.67162638189982D+03

 The electronic state is 1-A.
 Alpha  occ. eigenvalues --  -20.60871 -20.60866 -15.85912 -11.31263 -11.27831
 Alpha  occ. eigenvalues --  -11.27826 -11.27572 -11.26844 -11.26834 -11.21005
 Alpha  occ. eigenvalues --  -11.20652 -11.20590 -11.20435 -11.20357 -11.19229
 Alpha  occ. eigenvalues --   -1.59936  -1.39492  -1.19434  -1.08832  -1.07556
 Alpha  occ. eigenvalues --   -1.04835  -1.02546  -0.95673  -0.94949  -0.86235
 Alpha  occ. eigenvalues --   -0.85951  -0.82503  -0.78641  -0.77552  -0.77331
 Alpha  occ. eigenvalues --   -0.72133  -0.71255  -0.70543  -0.65090  -0.64838
 Alpha  occ. eigenvalues --   -0.64202  -0.62182  -0.59959  -0.58393  -0.56555
 Alpha  occ. eigenvalues --   -0.55338  -0.54257  -0.53165  -0.52928  -0.51602
 Alpha  occ. eigenvalues --   -0.51379  -0.48983  -0.48885  -0.48771  -0.46934
 Alpha  occ. eigenvalues --   -0.45717  -0.44920  -0.44846  -0.44785  -0.42746
 Alpha  occ. eigenvalues --   -0.37415  -0.36438
 Alpha virt. eigenvalues --    0.04973   0.11216   0.16462   0.21348   0.23660
 Alpha virt. eigenvalues --    0.25336   0.27265   0.27463   0.28194   0.28304
 Alpha virt. eigenvalues --    0.29128   0.30911   0.32345   0.32423   0.32569

 Mulliken charges:
               1
     1  C   -0.170706
     2  C   -0.218524
     3  C   -0.170954
     4  C    0.157725
     5  C   -0.170627
     6  C   -0.218575
     7  H    0.225852
     8  H    0.223680
     9  H    0.275553
    10  H    0.275843
    11  H    0.223700
    12  N    0.491112
    13  O   -0.459118
    14  O   -0.461756
    15  C   -0.297188
    16  C   -0.298943
    17  C   -0.475163
    18  H    0.148034
    19  H    0.147478
    20  H    0.151441
    21  H    0.151157
    22  H    0.154023
    23  H    0.154322
    24  H    0.158531
    25  C   -0.297123
    26  C   -0.301434
    27  C   -0.471805
    28  H    0.148534
    29  H    0.148486
    30  H    0.146842
    31  H    0.147029
    32  H    0.156626
    33  H    0.150747
    34  H    0.175200
 Sum of Mulliken charges =  -0.00000

 Dipole moment (field-independent basis, Debye):
    X=              4.9637    Y=              2.4157    Z=             -0.2978  Tot=              5.5283
 Quadrupole moment (field-independent basis, Debye-Ang):
   XX=            -61.7156   YY=            -91.6780   ZZ=            -95.0589
   XY=              7.2178   XZ=             -1.7128   YZ=             -0.0379

 Normal termination of Gaussian 16 at Thu May  6 22:18:44 2021.
