 Gaussian 16, Revision A.03,
 Gaussian 16:  EM64L-G16RevA.03 25-Dec-2016

 -------------
 #p 6-31g* mp2
 -------------

 ------------------------------------------------------
 Input file generated by CHIRIPA (05-May-2021 14:55:19)
 ------------------------------------------------------
 Symbolic Z-matrix:
 Charge =  0 Multiplicity = 1

                         Standard orientation:
 ---------------------------------------------------------------------
 Center     Atomic      Atomic             Coordinates (Angstroms)
 Number     Number       Type             X           Y           Z
 ---------------------------------------------------------------------
      1          6           0        5.390121    0.037699    0.435777
      2          6           0        4.857882   -1.248476    0.297947
      3          6           0        3.500606   -1.428687    0.015325
      4          6           0        2.700821   -0.295412   -0.123678
      5          6           0        3.201463    0.998940    0.007847
      6          6           0        4.561674    1.155332    0.290543
      7          1           0        6.445626    0.168439    0.655353
      8          1           0        5.498896   -2.118271    0.410210
      9          1           0        3.062410   -2.413013   -0.096495
     10          1           0        2.537503    1.846748   -0.109615
     11          1           0        4.972277    2.155385    0.397047
     12          7           0        1.262380   -0.473585   -0.422917
     13          8           0        0.578846    0.541081   -0.540690
     14          8           0        0.845702   -1.624529   -0.534020
     15          6           0       -4.272311   -0.135102    0.403807
     16          6           0       -4.269173   -1.525312   -0.232818
     17          6           0       -5.298435   -2.465461    0.395303
     18          1           0       -4.074435   -0.231242    1.480165
     19          1           0       -5.275910    0.302008    0.308319
     20          1           0       -3.265515   -1.959106   -0.137384
     21          1           0       -4.466891   -1.425835   -1.307819
     22          1           0       -6.308830   -2.057990    0.287271
     23          1           0       -5.100628   -2.594292    1.464357
     24          1           0       -5.279079   -3.453638   -0.074794
     25          6           0       -3.248696    0.816182   -0.213445
     26          6           0       -3.251833    2.206393    0.423179
     27          6           0       -2.222572    3.146541   -0.204941
     28          1           0       -2.245096    0.379073   -0.117958
     29          1           0       -3.446573    0.912323   -1.289804
     30          1           0       -3.054116    2.106915    1.498181
     31          1           0       -4.255491    2.640186    0.327746
     32          1           0       -2.420379    3.275372   -1.273996
     33          1           0       -1.212177    2.739071   -0.096910
     34          1           0       -2.241927    4.134719    0.265156
 ---------------------------------------------------------------------

 SCF Done:  E(RHF) =  -669.536578224     A.U. after   15 cycles
 E2 =    -0.2091934828D+01 EUMP2 =    -0.67162851305154D+03

 The electronic state is 1-A.
 Alpha  occ. eigenvalues --  -20.61150 -20.61143 -15.86157 -11.31407 -11.27958
 Alpha  occ. eigenvalues --  -11.27955 -11.27683 -11.26948 -11.26939 -11.20294
 Alpha  occ. eigenvalues --  -11.20248 -11.20059 -11.20034 -11.19672 -11.19582
 Alpha  occ. eigenvalues --   -1.60194  -1.39753  -1.19566  -1.08985  -1.06996
 Alpha  occ. eigenvalues --   -1.04950  -1.02215  -0.95839  -0.94665  -0.86354
 Alpha  occ. eigenvalues --   -0.85688  -0.82679  -0.78288  -0.77737  -0.76761
 Alpha  occ. eigenvalues --   -0.72381  -0.71498  -0.70675  -0.65225  -0.64953
 Alpha  occ. eigenvalues --   -0.63625  -0.62297  -0.59616  -0.58041  -0.56272
 Alpha  occ. eigenvalues --   -0.55459  -0.53950  -0.53286  -0.53041  -0.51429
 Alpha  occ. eigenvalues --   -0.51091  -0.49209  -0.49145  -0.48545  -0.46593
 Alpha  occ. eigenvalues --   -0.45350  -0.45148  -0.44360  -0.44046  -0.42433
 Alpha  occ. eigenvalues --   -0.37541  -0.36547
 Alpha virt. eigenvalues --    0.04775   0.11109   0.16281   0.21170   0.24272
 Alpha virt. eigenvalues --    0.25491   0.27072   0.27655   0.28220   0.29211
 Alpha virt. eigenvalues --    0.29277   0.30759   0.31880   0.32789   0.32985

 Mulliken charges:
               1
     1  C   -0.170328
     2  C   -0.218609
     3  C   -0.170472
     4  C    0.157024
     5  C   -0.170368
     6  C   -0.218559
     7  H    0.226452
     8  H    0.224214
     9  H    0.276059
    10  H    0.276030
    11  H    0.224391
    12  N    0.495159
    13  O   -0.464962
    14  O   -0.458214
    15  C   -0.296962
    16  C   -0.300787
    17  C   -0.474767
    18  H    0.145336
    19  H    0.143133
    20  H    0.161975
    21  H    0.149796
    22  H    0.151640
    23  H    0.152606
    24  H    0.157408
    25  C   -0.309209
    26  C   -0.296734
    27  C   -0.481530
    28  H    0.179917
    29  H    0.144917
    30  H    0.146532
    31  H    0.144916
    32  H    0.151601
    33  H    0.172730
    34  H    0.149664
 Sum of Mulliken charges =  -0.00000

 Dipole moment (field-independent basis, Debye):
    X=              5.6092    Y=              0.4657    Z=              0.9807  Tot=              5.7133
 Quadrupole moment (field-independent basis, Debye-Ang):
   XX=            -69.6579   YY=            -91.6333   ZZ=            -95.7530
   XY=             -0.8570   XZ=              3.3304   YZ=             -0.3667

 Normal termination of Gaussian 16 at Wed May  5 15:48:56 2021.
