 Gaussian 16, Revision A.03,
 Gaussian 16:  EM64L-G16RevA.03 25-Dec-2016

 -------------
 #p 6-31g* mp2
 -------------

 ------------------------------------------------------
 Input file generated by CHIRIPA (05-May-2021 14:55:25)
 ------------------------------------------------------
 Symbolic Z-matrix:
 Charge =  0 Multiplicity = 1

                         Standard orientation:
 ---------------------------------------------------------------------
 Center     Atomic      Atomic             Coordinates (Angstroms)
 Number     Number       Type             X           Y           Z
 ---------------------------------------------------------------------
      1          6           0       -1.937053    0.721239    2.419563
      2          6           0       -1.179651   -0.426716    2.164487
      3          6           0       -1.188391   -1.015908    0.896685
      4          6           0       -1.969366   -0.428111   -0.097228
      5          6           0       -2.734716    0.715461    0.125869
      6          6           0       -2.710804    1.287665    1.401235
      7          1           0       -1.924370    1.172339    3.407361
      8          1           0       -0.577815   -0.868779    2.953422
      9          1           0       -0.611505   -1.904760    0.671824
     10          1           0       -3.324845    1.133275   -0.680727
     11          1           0       -3.300005    2.179166    1.596459
     12          7           0       -1.986650   -1.042870   -1.443398
     13          8           0       -2.682974   -0.505724   -2.302027
     14          8           0       -1.303545   -2.050224   -1.614407
     15          6           0        2.678241    1.159867   -0.246417
     16          6           0        1.486887    1.986378   -0.731741
     17          6           0        1.824860    3.467931   -0.900749
     18          1           0        3.034119    1.567619    0.709635
     19          1           0        3.506383    1.268867   -0.960346
     20          1           0        0.660766    1.874746   -0.017824
     21          1           0        1.133684    1.576492   -1.686654
     22          1           0        2.632223    3.598294   -1.628603
     23          1           0        2.156617    3.898243    0.049709
     24          1           0        0.959043    4.040105   -1.248367
     25          6           0        2.356044   -0.323280   -0.072653
     26          6           0        3.547398   -1.149791    0.412671
     27          6           0        3.209425   -2.631345    0.581679
     28          1           0        1.527902   -0.432281    0.641275
     29          1           0        2.000167   -0.731032   -1.028705
     30          1           0        3.900601   -0.739905    1.367584
     31          1           0        4.373519   -1.038159   -0.301246
     32          1           0        2.877668   -3.061657   -0.368778
     33          1           0        2.402061   -2.761708    1.309533
     34          1           0        4.075242   -3.203518    0.929297
 ---------------------------------------------------------------------

 SCF Done:  E(RHF) =  -669.534964805     A.U. after   15 cycles
 E2 =    -0.2094452733D+01 EUMP2 =    -0.67162941753826D+03

 The electronic state is 1-A.
 Alpha  occ. eigenvalues --  -20.60807 -20.60800 -15.85855 -11.31211 -11.27826
 Alpha  occ. eigenvalues --  -11.27796 -11.27588 -11.26833 -11.26822 -11.21661
 Alpha  occ. eigenvalues --  -11.21530 -11.21373 -11.21275 -11.21213 -11.21085
 Alpha  occ. eigenvalues --   -1.59876  -1.39429  -1.19426  -1.08811  -1.08434
 Alpha  occ. eigenvalues --   -1.04840  -1.03560  -0.96017  -0.95643  -0.87035
 Alpha  occ. eigenvalues --   -0.86223  -0.82481  -0.79621  -0.78285  -0.77495
 Alpha  occ. eigenvalues --   -0.72076  -0.71192  -0.70535  -0.65150  -0.65017
 Alpha  occ. eigenvalues --   -0.64824  -0.62184  -0.60955  -0.59381  -0.57630
 Alpha  occ. eigenvalues --   -0.55339  -0.55319  -0.53256  -0.52924  -0.52680
 Alpha  occ. eigenvalues --   -0.52438  -0.49969  -0.48836  -0.48829  -0.47943
 Alpha  occ. eigenvalues --   -0.46653  -0.45770  -0.45676  -0.44810  -0.43795
 Alpha  occ. eigenvalues --   -0.37397  -0.36330
 Alpha virt. eigenvalues --    0.04993   0.11201   0.16376   0.20440   0.22992
 Alpha virt. eigenvalues --    0.23793   0.26082   0.26885   0.27734   0.27855
 Alpha virt. eigenvalues --    0.29139   0.30734   0.31500   0.31732   0.32009

 Mulliken charges:
               1
     1  C   -0.170816
     2  C   -0.219873
     3  C   -0.170208
     4  C    0.160214
     5  C   -0.170797
     6  C   -0.219076
     7  H    0.226055
     8  H    0.223681
     9  H    0.279426
    10  H    0.275955
    11  H    0.223848
    12  N    0.488093
    13  O   -0.460468
    14  O   -0.460457
    15  C   -0.296767
    16  C   -0.304924
    17  C   -0.475240
    18  H    0.146063
    19  H    0.150781
    20  H    0.153529
    21  H    0.156185
    22  H    0.156525
    23  H    0.152452
    24  H    0.159416
    25  C   -0.307278
    26  C   -0.299134
    27  C   -0.475771
    28  H    0.146943
    29  H    0.159722
    30  H    0.148535
    31  H    0.154136
    32  H    0.163838
    33  H    0.144271
    34  H    0.161144
 Sum of Mulliken charges =  -0.00000

 Dipole moment (field-independent basis, Debye):
    X=             -0.0044    Y=              2.1185    Z=              4.6226  Tot=              5.0849
 Quadrupole moment (field-independent basis, Debye-Ang):
   XX=            -93.4033   YY=            -95.8018   ZZ=            -94.8490
   XY=             -7.2791   XZ=             -8.9165   YZ=             -2.9918

 Normal termination of Gaussian 16 at Thu May  6 09:34:17 2021.
