 Gaussian 16, Revision A.03,
 Gaussian 16:  EM64L-G16RevA.03 25-Dec-2016

 -------------
 #p 6-31g* mp2
 -------------

 ------------------------------------------------------
 Input file generated by CHIRIPA (05-May-2021 14:53:16)
 ------------------------------------------------------
 Symbolic Z-matrix:
 Charge =  0 Multiplicity = 1

                         Standard orientation:
 ---------------------------------------------------------------------
 Center     Atomic      Atomic             Coordinates (Angstroms)
 Number     Number       Type             X           Y           Z
 ---------------------------------------------------------------------
      1          6           0        2.328497    1.427180   -0.192831
      2          6           0        1.139706    2.058351   -0.918355
      3          6           0        1.211693    3.585227   -0.953857
      4          1           0        2.373065    1.817531    0.833125
      5          1           0        3.258787    1.739930   -0.686940
      6          1           0        0.211860    1.743391   -0.423867
      7          1           0        1.097850    1.666307   -1.942643
      8          1           0        2.121126    3.916218   -1.465694
      9          1           0        1.230103    3.993740    0.061712
     10          1           0        0.352143    4.015605   -1.477125
     11          6           0        2.270806   -0.098756   -0.149037
     12          6           0        3.459597   -0.729926    0.576487
     13          6           0        3.387610   -2.256803    0.611989
     14          1           0        1.340516   -0.411506    0.345072
     15          1           0        2.226238   -0.489107   -1.174993
     16          1           0        3.501453   -0.337882    1.600775
     17          1           0        4.387442   -0.414967    0.081999
     18          1           0        3.369200   -2.665316   -0.403580
     19          1           0        2.478177   -2.587793    1.123826
     20          1           0        4.247160   -2.687180    1.135257
     21          6           0       -2.376683    1.573058    1.419263
     22          6           0       -2.834096    1.408019    0.107753
     23          6           0       -2.518808    0.253004   -0.614106
     24          6           0       -1.740522   -0.721160    0.009243
     25          6           0       -1.269856   -0.585941    1.314418
     26          6           0       -1.597397    0.577306    2.017354
     27          1           0       -2.626366    2.473498    1.972672
     28          1           0       -3.439472    2.179675   -0.359272
     29          1           0       -2.859744    0.099461   -1.630771
     30          1           0       -0.668203   -1.372637    1.753213
     31          1           0       -1.240783    0.702775    3.035750
     32          7           0       -1.400257   -1.948280   -0.744941
     33          8           0       -0.713051   -2.791769   -0.173178
     34          8           0       -1.827203   -2.043372   -1.893553
 ---------------------------------------------------------------------

 SCF Done:  E(RHF) =  -669.534482767     A.U. after   15 cycles
 E2 =    -0.2096360338D+01 EUMP2 =    -0.67163084310468D+03

 The electronic state is 1-A.
 Alpha  occ. eigenvalues --  -20.60886 -20.60863 -15.85912 -11.31300 -11.27899
 Alpha  occ. eigenvalues --  -11.27884 -11.27653 -11.26928 -11.26906 -11.21463
 Alpha  occ. eigenvalues --  -11.21309 -11.21269 -11.21202 -11.21057 -11.20509
 Alpha  occ. eigenvalues --   -1.59935  -1.39490  -1.19522  -1.08890  -1.08246
 Alpha  occ. eigenvalues --   -1.04925  -1.03330  -0.95784  -0.95715  -0.86796
 Alpha  occ. eigenvalues --   -0.86309  -0.82548  -0.79407  -0.78087  -0.77577
 Alpha  occ. eigenvalues --   -0.72137  -0.71248  -0.70617  -0.65162  -0.65002
 Alpha  occ. eigenvalues --   -0.64834  -0.62265  -0.60753  -0.59183  -0.57388
 Alpha  occ. eigenvalues --   -0.55417  -0.55079  -0.53391  -0.53003  -0.52452
 Alpha  occ. eigenvalues --   -0.52190  -0.49723  -0.48905  -0.48892  -0.47692
 Alpha  occ. eigenvalues --   -0.46424  -0.45592  -0.45498  -0.44732  -0.43586
 Alpha  occ. eigenvalues --   -0.37459  -0.36475
 Alpha virt. eigenvalues --    0.04914   0.11037   0.16407   0.20934   0.23101
 Alpha virt. eigenvalues --    0.24010   0.26415   0.27250   0.27531   0.27995
 Alpha virt. eigenvalues --    0.28699   0.30546   0.31392   0.31860   0.32065

 Mulliken charges:
               1
     1  C   -0.295928
     2  C   -0.308693
     3  C   -0.474167
     4  H    0.144205
     5  H    0.149419
     6  H    0.160724
     7  H    0.152802
     8  H    0.156363
     9  H    0.151074
    10  H    0.155946
    11  C   -0.304251
    12  C   -0.299959
    13  C   -0.475521
    14  H    0.150562
    15  H    0.154617
    16  H    0.145823
    17  H    0.151132
    18  H    0.161119
    19  H    0.159931
    20  H    0.156570
    21  C   -0.171261
    22  C   -0.217849
    23  C   -0.170943
    24  C    0.165215
    25  C   -0.176974
    26  C   -0.217784
    27  H    0.226740
    28  H    0.224502
    29  H    0.276316
    30  H    0.276300
    31  H    0.224394
    32  N    0.489628
    33  O   -0.460381
    34  O   -0.459669
 Sum of Mulliken charges =  -0.00000

 Dipole moment (field-independent basis, Debye):
    X=             -1.3722    Y=              4.1640    Z=              2.6031  Tot=              5.0989
 Quadrupole moment (field-independent basis, Debye-Ang):
   XX=            -89.7515   YY=           -102.4720   ZZ=            -91.0741
   XY=             -8.0711   XZ=             -3.0891   YZ=             -3.0763

 Normal termination of Gaussian 16 at Thu May  6 09:06:12 2021.
