 Gaussian 16, Revision A.03,
 Gaussian 16:  EM64L-G16RevA.03 25-Dec-2016

 -------------
 #p 6-31g* mp2
 -------------

 ------------------------------------------------------
 Input file generated by CHIRIPA (05-May-2021 14:57:22)
 ------------------------------------------------------
 Symbolic Z-matrix:
 Charge =  0 Multiplicity = 1

                         Standard orientation:
 ---------------------------------------------------------------------
 Center     Atomic      Atomic             Coordinates (Angstroms)
 Number     Number       Type             X           Y           Z
 ---------------------------------------------------------------------
      1          6           0       -0.961160   -1.056844   -1.233731
      2          6           0       -1.345798    0.283005   -1.349394
      3          6           0       -2.522231    0.738522   -0.746849
      4          6           0       -3.293650   -0.177174   -0.032915
      5          6           0       -2.937180   -1.518240    0.100358
      6          6           0       -1.756676   -1.951613   -0.510499
      7          1           0       -0.045698   -1.402099   -1.705031
      8          1           0       -0.729949    0.980134   -1.910451
      9          1           0       -2.843612    1.770370   -0.820478
     10          1           0       -3.571723   -2.189573    0.666118
     11          1           0       -1.460435   -2.992726   -0.419006
     12          7           0       -4.541241    0.293340    0.609373
     13          8           0       -5.203442   -0.533314    1.232888
     14          8           0       -4.833279    1.479872    0.477121
     15          6           0        3.852497   -2.129603    0.449442
     16          6           0        3.962292   -1.216360    1.503222
     17          6           0        3.541903    0.107253    1.342380
     18          6           0        3.014127    0.485228    0.108736
     19          6           0        2.891749   -0.401215   -0.960157
     20          6           0        3.318517   -1.719839   -0.776723
     21          1           0        4.181543   -3.155880    0.583163
     22          1           0        4.376595   -1.531788    2.456587
     23          1           0        3.615444    0.834941    2.141429
     24          1           0        2.474619   -0.057266   -1.898837
     25          1           0        3.232049   -2.426907   -1.596858
     26          7           0        2.565703    1.883837   -0.073498
     27          8           0        2.104220    2.191916   -1.170201
     28          8           0        2.684202    2.645504    0.883820
 ---------------------------------------------------------------------

 SCF Done:  E(RHF) =  -868.338214336     A.U. after   16 cycles
 E2 =    -0.2600784533D+01 EUMP2 =    -0.87093899886925D+03

 The electronic state is 1-A.
 Alpha  occ. eigenvalues --  -20.61720 -20.61656 -20.60525 -20.60509 -15.86729
 Alpha  occ. eigenvalues --  -15.85569 -11.32094 -11.30931 -11.28758 -11.28597
 Alpha  occ. eigenvalues --  -11.28371 -11.27738 -11.27599 -11.27531 -11.27406
 Alpha  occ. eigenvalues --  -11.27287 -11.26606 -11.26368  -1.60744  -1.59594
 Alpha  occ. eigenvalues --   -1.40305  -1.39147  -1.20264  -1.19099  -1.09645
 Alpha  occ. eigenvalues --   -1.08515  -1.05683  -1.04480  -0.96489  -0.95351
 Alpha  occ. eigenvalues --   -0.87069  -0.85890  -0.83334  -0.82163  -0.78390
 Alpha  occ. eigenvalues --   -0.77194  -0.72952  -0.72055  -0.71789  -0.71380
 Alpha  occ. eigenvalues --   -0.70916  -0.70262  -0.65923  -0.65677  -0.64752
 Alpha  occ. eigenvalues --   -0.64466  -0.63032  -0.61804  -0.56151  -0.55121
 Alpha  occ. eigenvalues --   -0.53939  -0.53763  -0.52829  -0.52555  -0.49717
 Alpha  occ. eigenvalues --   -0.49690  -0.48549  -0.48542  -0.45702  -0.44553
 Alpha  occ. eigenvalues --   -0.38223  -0.37426  -0.36951  -0.36074
 Alpha virt. eigenvalues --    0.04093   0.05312   0.10322   0.11581   0.15520
 Alpha virt. eigenvalues --    0.16812   0.19543   0.22001   0.25559   0.26858
 Alpha virt. eigenvalues --    0.27852   0.29479   0.30122   0.31493   0.31656

 Mulliken charges:
               1
     1  C   -0.170841
     2  C   -0.224328
     3  C   -0.170845
     4  C    0.158644
     5  C   -0.172192
     6  C   -0.218691
     7  H    0.215480
     8  H    0.239350
     9  H    0.279044
    10  H    0.273879
    11  H    0.218796
    12  N    0.487972
    13  O   -0.462258
    14  O   -0.458705
    15  C   -0.170093
    16  C   -0.217588
    17  C   -0.169029
    18  C    0.161661
    19  C   -0.174619
    20  C   -0.221452
    21  H    0.228242
    22  H    0.227351
    23  H    0.279181
    24  H    0.269783
    25  H    0.222410
    26  N    0.489544
    27  O   -0.467456
    28  O   -0.453240
 Sum of Mulliken charges =  -0.00000

 Dipole moment (field-independent basis, Debye):
    X=              6.2209    Y=             -6.3758    Z=             -1.4050  Tot=              9.0180
 Quadrupole moment (field-independent basis, Debye-Ang):
   XX=           -124.5731   YY=           -105.1518   ZZ=           -100.2266
   XY=             -8.7034   XZ=             11.3574   YZ=             -0.6418

 Normal termination of Gaussian 16 at Thu May  6 04:56:55 2021.
