 Gaussian 16, Revision A.03,
 Gaussian 16:  EM64L-G16RevA.03 25-Dec-2016

 -------------
 #p 6-31g* mp2
 -------------

 ------------------------------------------------------
 Input file generated by CHIRIPA (05-May-2021 14:53:18)
 ------------------------------------------------------
 Symbolic Z-matrix:
 Charge =  0 Multiplicity = 1

                         Standard orientation:
 ---------------------------------------------------------------------
 Center     Atomic      Atomic             Coordinates (Angstroms)
 Number     Number       Type             X           Y           Z
 ---------------------------------------------------------------------
      1          6           0       -2.887300    0.203296   -0.563175
      2          6           0       -4.211743   -0.271470    0.035518
      3          6           0       -4.738361   -1.543945   -0.628768
      4          1           0       -3.020529    0.378072   -1.639580
      5          1           0       -2.141232   -0.597603   -0.466544
      6          1           0       -4.954710    0.530594   -0.060969
      7          1           0       -4.075395   -0.444953    1.110659
      8          1           0       -4.018206   -2.361411   -0.520474
      9          1           0       -4.902517   -1.380321   -1.698759
     10          1           0       -5.685917   -1.865616   -0.185458
     11          6           0       -2.348063    1.474388    0.090489
     12          6           0       -1.023620    1.949154   -0.508205
     13          6           0       -0.497002    3.221628    0.156082
     14          1           0       -3.094131    2.275287   -0.006143
     15          1           0       -2.214834    1.299611    1.166894
     16          1           0       -1.159969    2.122637   -1.583346
     17          1           0       -0.280654    1.147090   -0.411718
     18          1           0       -0.332846    3.058004    1.226073
     19          1           0       -1.217157    4.039094    0.047787
     20          1           0        0.450554    3.543300   -0.287229
     21          6           0        4.087261    0.581671   -0.630923
     22          6           0        3.771659   -0.674021   -1.160220
     23          6           0        2.642595   -1.368475   -0.715814
     24          6           0        1.847632   -0.774936    0.263489
     25          6           0        2.135655    0.474600    0.810293
     26          6           0        3.269692    1.150969    0.350914
     27          1           0        4.966276    1.114115   -0.981964
     28          1           0        4.404780   -1.118582   -1.922827
     29          1           0        2.374956   -2.341950   -1.108413
     30          1           0        1.485427    0.892097    1.569449
     31          1           0        3.512350    2.126014    0.763771
     32          7           0        0.649710   -1.500550    0.741888
     33          8           0       -0.034528   -0.955974    1.605539
     34          8           0        0.417698   -2.600124    0.244147
 ---------------------------------------------------------------------

 SCF Done:  E(RHF) =  -669.535083064     A.U. after   15 cycles
 E2 =    -0.2095649932D+01 EUMP2 =    -0.67163073299661D+03

 The electronic state is 1-A.
 Alpha  occ. eigenvalues --  -20.61078 -20.61068 -15.86070 -11.31311 -11.27897
 Alpha  occ. eigenvalues --  -11.27876 -11.27622 -11.26870 -11.26856 -11.21174
 Alpha  occ. eigenvalues --  -11.21078 -11.20597 -11.20556 -11.20345 -11.20089
 Alpha  occ. eigenvalues --   -1.60125  -1.39682  -1.19506  -1.08919  -1.07641
 Alpha  occ. eigenvalues --   -1.04887  -1.02877  -0.95769  -0.95333  -0.86373
 Alpha  occ. eigenvalues --   -0.86289  -0.82602  -0.78977  -0.77670  -0.77415
 Alpha  occ. eigenvalues --   -0.72307  -0.71484  -0.70618  -0.65166  -0.64902
 Alpha  occ. eigenvalues --   -0.64197  -0.62248  -0.60262  -0.58778  -0.56942
 Alpha  occ. eigenvalues --   -0.55397  -0.54640  -0.53194  -0.52952  -0.52098
 Alpha  occ. eigenvalues --   -0.51772  -0.49404  -0.49059  -0.48966  -0.47292
 Alpha  occ. eigenvalues --   -0.46019  -0.45235  -0.44877  -0.44664  -0.43070
 Alpha  occ. eigenvalues --   -0.37434  -0.36429
 Alpha virt. eigenvalues --    0.04793   0.11114   0.16257   0.20682   0.23515
 Alpha virt. eigenvalues --    0.24715   0.26895   0.27264   0.27778   0.28563
 Alpha virt. eigenvalues --    0.29423   0.30022   0.31595   0.31955   0.32748

 Mulliken charges:
               1
     1  C   -0.301434
     2  C   -0.299124
     3  C   -0.477305
     4  H    0.142599
     5  H    0.162510
     6  H    0.146187
     7  H    0.158185
     8  H    0.163491
     9  H    0.150513
    10  H    0.156868
    11  C   -0.296829
    12  C   -0.301860
    13  C   -0.477984
    14  H    0.143862
    15  H    0.160336
    16  H    0.149562
    17  H    0.150389
    18  H    0.150575
    19  H    0.157654
    20  H    0.153125
    21  C   -0.170256
    22  C   -0.218787
    23  C   -0.170606
    24  C    0.157379
    25  C   -0.171802
    26  C   -0.218641
    27  H    0.226340
    28  H    0.223984
    29  H    0.276005
    30  H    0.278343
    31  H    0.224830
    32  N    0.490119
    33  O   -0.459673
    34  O   -0.458557
 Sum of Mulliken charges =  -0.00000

 Dipole moment (field-independent basis, Debye):
    X=              4.3797    Y=              2.3343    Z=             -1.5601  Tot=              5.2024
 Quadrupole moment (field-independent basis, Debye-Ang):
   XX=            -79.8878   YY=            -97.0932   ZZ=            -93.9822
   XY=              0.1251   XZ=             -3.1643   YZ=              4.0581

 Normal termination of Gaussian 16 at Thu May  6 09:11:15 2021.
