 Gaussian 16, Revision A.03,
 Gaussian 16:  EM64L-G16RevA.03 25-Dec-2016

 -------------
 #p 6-31g* mp2
 -------------

 ------------------------------------------------------
 Input file generated by CHIRIPA (05-May-2021 14:55:21)
 ------------------------------------------------------
 Symbolic Z-matrix:
 Charge =  0 Multiplicity = 1

                         Standard orientation:
 ---------------------------------------------------------------------
 Center     Atomic      Atomic             Coordinates (Angstroms)
 Number     Number       Type             X           Y           Z
 ---------------------------------------------------------------------
      1          6           0        1.734917    1.622144   -0.156577
      2          6           0        1.415487    0.260460   -0.139152
      3          6           0        2.424253   -0.704557   -0.063775
      4          6           0        3.747774   -0.270557   -0.006986
      5          6           0        4.097966    1.078670   -0.022532
      6          6           0        3.072778    2.026190   -0.098314
      7          1           0        0.944905    2.364997   -0.215289
      8          1           0        0.377358   -0.056235   -0.184284
      9          1           0        2.205140   -1.765302   -0.048684
     10          1           0        5.142008    1.363729    0.023684
     11          1           0        3.323806    3.083002   -0.111679
     12          7           0        4.824402   -1.282916    0.073027
     13          8           0        5.982673   -0.874695    0.122022
     14          8           0        4.489606   -2.465456    0.085231
     15          6           0       -5.293131   -0.061647    0.176697
     16          6           0       -5.641849   -1.485219   -0.258990
     17          6           0       -7.091882   -1.859395    0.049540
     18          1           0       -5.478323    0.040811    1.254729
     19          1           0       -5.969604    0.644019   -0.325115
     20          1           0       -4.964018   -2.187883    0.242432
     21          1           0       -5.455623   -1.584355   -1.336073
     22          1           0       -7.782078   -1.181590   -0.463110
     23          1           0       -7.287680   -1.788549    1.124363
     24          1           0       -7.319595   -2.881058   -0.270167
     25          6           0       -3.846922    0.327140   -0.125055
     26          6           0       -3.498203    1.750712    0.310632
     27          6           0       -2.048171    2.124889    0.002102
     28          1           0       -3.170449   -0.378525    0.376757
     29          1           0       -3.661729    0.224683   -1.203087
     30          1           0       -3.684430    1.849847    1.387715
     31          1           0       -4.176034    2.453377   -0.190791
     32          1           0       -1.852372    2.054041   -1.072721
     33          1           0       -1.357975    1.447084    0.514752
     34          1           0       -1.820459    3.146551    0.321809
 ---------------------------------------------------------------------

 SCF Done:  E(RHF) =  -669.535160910     A.U. after   15 cycles
 E2 =    -0.2091724159D+01 EUMP2 =    -0.67162688506884D+03

 The electronic state is 1-A.
 Alpha  occ. eigenvalues --  -20.60688 -20.60682 -15.85741 -11.31079 -11.27654
 Alpha  occ. eigenvalues --  -11.27647 -11.27315 -11.26644 -11.26605 -11.22660
 Alpha  occ. eigenvalues --  -11.22526 -11.22301 -11.22160 -11.22054 -11.21512
 Alpha  occ. eigenvalues --   -1.59764  -1.39318  -1.19247  -1.09263  -1.08639
 Alpha  occ. eigenvalues --   -1.04654  -1.04390  -0.96889  -0.95476  -0.87924
 Alpha  occ. eigenvalues --   -0.86045  -0.82316  -0.80493  -0.79027  -0.77375
 Alpha  occ. eigenvalues --   -0.71959  -0.71087  -0.70337  -0.65894  -0.64898
 Alpha  occ. eigenvalues --   -0.64685  -0.62071  -0.61729  -0.60275  -0.58441
 Alpha  occ. eigenvalues --   -0.56171  -0.55172  -0.53526  -0.53328  -0.52977
 Alpha  occ. eigenvalues --   -0.52707  -0.50809  -0.48803  -0.48716  -0.48682
 Alpha  occ. eigenvalues --   -0.47479  -0.46577  -0.46462  -0.44730  -0.44627
 Alpha  occ. eigenvalues --   -0.37211  -0.36260
 Alpha virt. eigenvalues --    0.05161   0.11331   0.16663   0.20270   0.22247
 Alpha virt. eigenvalues --    0.23668   0.25282   0.25910   0.26444   0.27788
 Alpha virt. eigenvalues --    0.29122   0.29815   0.30694   0.31176   0.31701

 Mulliken charges:
               1
     1  C   -0.175265
     2  C   -0.224279
     3  C   -0.171070
     4  C    0.158095
     5  C   -0.170881
     6  C   -0.219512
     7  H    0.235743
     8  H    0.226307
     9  H    0.275149
    10  H    0.275107
    11  H    0.223077
    12  N    0.488075
    13  O   -0.460756
    14  O   -0.460811
    15  C   -0.298920
    16  C   -0.300375
    17  C   -0.476223
    18  H    0.151433
    19  H    0.151347
    20  H    0.152431
    21  H    0.152666
    22  H    0.155952
    23  H    0.156116
    24  H    0.162239
    25  C   -0.299775
    26  C   -0.299896
    27  C   -0.487426
    28  H    0.146945
    29  H    0.150537
    30  H    0.156047
    31  H    0.156212
    32  H    0.156843
    33  H    0.152823
    34  H    0.162047
 Sum of Mulliken charges =  -0.00000

 Dipole moment (field-independent basis, Debye):
    X=             -4.1028    Y=              3.5990    Z=             -0.2769  Tot=              5.4647
 Quadrupole moment (field-independent basis, Debye-Ang):
   XX=           -121.1503   YY=            -94.2378   ZZ=            -94.8257
   XY=             16.8321   XZ=             -0.5981   YZ=             -0.1257

 Normal termination of Gaussian 16 at Thu May  6 10:55:05 2021.
