 Gaussian 16, Revision A.03,
 Gaussian 16:  EM64L-G16RevA.03 25-Dec-2016

 -------------
 #p 6-31g* mp2
 -------------

 ------------------------------------------------------
 Input file generated by CHIRIPA (05-May-2021 14:55:25)
 ------------------------------------------------------
 Symbolic Z-matrix:
 Charge =  0 Multiplicity = 1

                         Standard orientation:
 ---------------------------------------------------------------------
 Center     Atomic      Atomic             Coordinates (Angstroms)
 Number     Number       Type             X           Y           Z
 ---------------------------------------------------------------------
      1          6           0        2.571693    1.853575    0.400180
      2          6           0        2.638562    0.896031    1.417608
      3          6           0        2.242374   -0.423164    1.178217
      4          6           0        1.782308   -0.751595   -0.096052
      5          6           0        1.703954    0.179720   -1.130365
      6          6           0        2.105425    1.492999   -0.868323
      7          1           0        2.881513    2.876060    0.594943
      8          1           0        3.000257    1.173209    2.403708
      9          1           0        2.283790   -1.184501    1.947677
     10          1           0        1.339024   -0.126620   -2.103196
     11          1           0        2.052409    2.234540   -1.660378
     12          7           0        1.360085   -2.145036   -0.361474
     13          8           0        0.958459   -2.409027   -1.492687
     14          8           0        1.438767   -2.946840    0.566726
     15          6           0       -2.558735   -0.011912   -0.225589
     16          6           0       -3.188871   -0.958352    0.796744
     17          6           0       -3.560143   -2.314661    0.196432
     18          1           0       -3.257877    0.133997   -1.060367
     19          1           0       -1.661488   -0.484794   -0.648348
     20          1           0       -4.083886   -0.483249    1.218459
     21          1           0       -2.488224   -1.101872    1.629278
     22          1           0       -2.673033   -2.812824   -0.207884
     23          1           0       -4.277760   -2.190687   -0.621038
     24          1           0       -4.008962   -2.975508    0.944565
     25          6           0       -2.182117    1.348075    0.359495
     26          6           0       -1.551980    2.294515   -0.662837
     27          6           0       -1.180708    3.650825   -0.062525
     28          1           0       -3.079364    1.820958    0.782254
     29          1           0       -1.482974    1.202167    1.194273
     30          1           0       -2.252627    2.438036   -1.495372
     31          1           0       -0.656965    1.819414   -1.084552
     32          1           0       -0.463091    3.526850    0.754944
     33          1           0       -2.067818    4.148988    0.341790
     34          1           0       -0.731889    4.311673   -0.810658
 ---------------------------------------------------------------------

 SCF Done:  E(RHF) =  -669.534928815     A.U. after   15 cycles
 E2 =    -0.2095387911D+01 EUMP2 =    -0.67163031672601D+03

 The electronic state is 1-A.
 Alpha  occ. eigenvalues --  -20.60979 -20.60969 -15.86012 -11.31373 -11.27918
 Alpha  occ. eigenvalues --  -11.27911 -11.27649 -11.26942 -11.26921 -11.21648
 Alpha  occ. eigenvalues --  -11.21442 -11.21335 -11.21228 -11.21115 -11.20427
 Alpha  occ. eigenvalues --   -1.60039  -1.39592  -1.19547  -1.08936  -1.08302
 Alpha  occ. eigenvalues --   -1.04954  -1.03388  -0.95852  -0.95763  -0.86862
 Alpha  occ. eigenvalues --   -0.86333  -0.82607  -0.79492  -0.78098  -0.77637
 Alpha  occ. eigenvalues --   -0.72226  -0.71364  -0.70628  -0.65194  -0.64998
 Alpha  occ. eigenvalues --   -0.64902  -0.62286  -0.60823  -0.59276  -0.57445
 Alpha  occ. eigenvalues --   -0.55425  -0.55132  -0.53267  -0.53019  -0.52546
 Alpha  occ. eigenvalues --   -0.52264  -0.49782  -0.48987  -0.48986  -0.47785
 Alpha  occ. eigenvalues --   -0.46544  -0.45655  -0.45589  -0.44899  -0.43644
 Alpha  occ. eigenvalues --   -0.37494  -0.36400
 Alpha virt. eigenvalues --    0.04845   0.11001   0.16245   0.20828   0.22957
 Alpha virt. eigenvalues --    0.24333   0.26204   0.26866   0.27291   0.28485
 Alpha virt. eigenvalues --    0.28736   0.30429   0.31397   0.31779   0.32523

 Mulliken charges:
               1
     1  C   -0.170517
     2  C   -0.219081
     3  C   -0.171753
     4  C    0.160111
     5  C   -0.172920
     6  C   -0.216372
     7  H    0.227281
     8  H    0.224468
     9  H    0.276190
    10  H    0.277175
    11  H    0.226068
    12  N    0.488153
    13  O   -0.460006
    14  O   -0.459031
    15  C   -0.301533
    16  C   -0.299585
    17  C   -0.478374
    18  H    0.149493
    19  H    0.151674
    20  H    0.149335
    21  H    0.151421
    22  H    0.167880
    23  H    0.152815
    24  H    0.159250
    25  C   -0.297455
    26  C   -0.303437
    27  C   -0.476247
    28  H    0.148812
    29  H    0.148612
    30  H    0.151239
    31  H    0.153699
    32  H    0.151781
    33  H    0.157450
    34  H    0.153403
 Sum of Mulliken charges =  -0.00000

 Dipole moment (field-independent basis, Debye):
    X=              1.6372    Y=              4.7378    Z=              0.9305  Tot=              5.0983
 Quadrupole moment (field-independent basis, Debye-Ang):
   XX=            -89.2117   YY=           -103.6170   ZZ=            -90.6119
   XY=              7.1059   XZ=              2.9410   YZ=             -2.7968

 Normal termination of Gaussian 16 at Thu May  6 17:42:47 2021.
