 Gaussian 16, Revision A.03,
 Gaussian 16:  EM64L-G16RevA.03 25-Dec-2016

 -------------
 #p 6-31g* mp2
 -------------

 ------------------------------------------------------
 Input file generated by CHIRIPA (05-May-2021 14:51:14)
 ------------------------------------------------------
 Symbolic Z-matrix:
 Charge =  0 Multiplicity = 1

                         Standard orientation:
 ---------------------------------------------------------------------
 Center     Atomic      Atomic             Coordinates (Angstroms)
 Number     Number       Type             X           Y           Z
 ---------------------------------------------------------------------
      1          6           0       -2.804889   -0.937669    0.180525
      2          6           0       -3.278064    0.316927   -0.554376
      3          6           0       -4.677806    0.759699   -0.127212
      4          1           0       -3.519701   -1.752163   -0.000002
      5          1           0       -2.815718   -0.746378    1.262507
      6          1           0       -3.265027    0.123782   -1.634719
      7          1           0       -2.561942    1.128474   -0.372235
      8          1           0       -4.701866    0.979488    0.945036
      9          1           0       -5.408946   -0.030912   -0.324621
     10          1           0       -4.996216    1.658215   -0.664932
     11          6           0       -1.407242   -1.392701   -0.235717
     12          6           0       -0.934068   -2.647297    0.499184
     13          6           0        0.465674   -3.090069    0.072020
     14          1           0       -1.396414   -1.583992   -1.317699
     15          1           0       -0.692430   -0.578208   -0.055190
     16          1           0       -1.650190   -3.458845    0.317043
     17          1           0       -0.947105   -2.454153    1.579527
     18          1           0        1.196814   -2.299458    0.269429
     19          1           0        0.489734   -3.309859   -1.000228
     20          1           0        0.784084   -3.988586    0.609740
     21          6           0        1.620386    1.667552   -0.280909
     22          6           0        0.659643    2.285031    0.735790
     23          6           0       -0.305742    3.288009    0.103443
     24          1           0        2.190608    2.468794   -0.770605
     25          1           0        1.038778    1.170755   -1.069782
     26          1           0        1.242907    2.779328    1.523247
     27          1           0        0.091779    1.482212    1.223261
     28          1           0       -0.912551    2.804313   -0.668841
     29          1           0        0.245118    4.108800   -0.367148
     30          1           0       -0.983408    3.717200    0.848041
     31          6           0        2.591746    0.662819    0.336101
     32          6           0        3.552488    0.045339   -0.680598
     33          6           0        4.517874   -0.957638   -0.048251
     34          1           0        3.173353    1.159616    1.124974
     35          1           0        2.021524   -0.138424    0.825798
     36          1           0        4.120353    0.848159   -1.168069
     37          1           0        2.969224   -0.448958   -1.468056
     38          1           0        3.967014   -1.778429    0.422340
     39          1           0        5.124683   -0.473943    0.724032
     40          1           0        5.195539   -1.386830   -0.792848
 ---------------------------------------------------------------------

 SCF Done:  E(RHF) =  -470.732046647     A.U. after   11 cycles
 E2 =    -0.1586212897D+01 EUMP2 =    -0.47231825954459D+03

 The electronic state is 1-A.
 Alpha  occ. eigenvalues --  -11.21670 -11.21663 -11.21600 -11.21589 -11.21444
 Alpha  occ. eigenvalues --  -11.21437 -11.21384 -11.21377 -11.21124 -11.21111
 Alpha  occ. eigenvalues --  -11.21073 -11.21052  -1.08549  -1.08408  -1.03613
 Alpha  occ. eigenvalues --   -1.03526  -0.96036  -0.96000  -0.87090  -0.86981
 Alpha  occ. eigenvalues --   -0.79670  -0.79605  -0.78314  -0.78285  -0.65602
 Alpha  occ. eigenvalues --   -0.64681  -0.61268  -0.60733  -0.59385  -0.59380
 Alpha  occ. eigenvalues --   -0.57670  -0.57587  -0.55395  -0.55244  -0.52707
 Alpha  occ. eigenvalues --   -0.52702  -0.52471  -0.52422  -0.50224  -0.49727
 Alpha  occ. eigenvalues --   -0.48081  -0.47822  -0.46769  -0.46647  -0.46147
 Alpha  occ. eigenvalues --   -0.45811  -0.45645  -0.45289  -0.43821  -0.43815
 Alpha virt. eigenvalues --    0.19226   0.21555   0.23703   0.24736   0.25920
 Alpha virt. eigenvalues --    0.26397   0.27289   0.27809   0.28189   0.30018
 Alpha virt. eigenvalues --    0.31128   0.31525   0.31794   0.31869   0.32704

 Mulliken charges:
               1
     1  C   -0.297181
     2  C   -0.309062
     3  C   -0.475071
     4  H    0.149967
     5  H    0.149192
     6  H    0.151347
     7  H    0.161509
     8  H    0.155125
     9  H    0.155111
    10  H    0.160410
    11  C   -0.308750
    12  C   -0.299002
    13  C   -0.484489
    14  H    0.149355
    15  H    0.159397
    16  H    0.152583
    17  H    0.151667
    18  H    0.162839
    19  H    0.155517
    20  H    0.160787
    21  C   -0.300905
    22  C   -0.303185
    23  C   -0.479990
    24  H    0.150780
    25  H    0.151861
    26  H    0.152900
    27  H    0.152644
    28  H    0.159186
    29  H    0.156077
    30  H    0.160169
    31  C   -0.303888
    32  C   -0.300221
    33  C   -0.477752
    34  H    0.150152
    35  H    0.152652
    36  H    0.152221
    37  H    0.153368
    38  H    0.157220
    39  H    0.154947
    40  H    0.160515
 Sum of Mulliken charges =  -0.00000

 Dipole moment (field-independent basis, Debye):
    X=              0.0097    Y=              0.0182    Z=             -0.0126  Tot=              0.0242
 Quadrupole moment (field-independent basis, Debye-Ang):
   XX=            -85.7560   YY=            -84.6024   ZZ=            -84.3549
   XY=              1.7268   XZ=              0.3551   YZ=              0.6808

 Normal termination of Gaussian 16 at Wed May  5 21:38:49 2021.
