 Gaussian 16, Revision A.03,
 Gaussian 16:  EM64L-G16RevA.03 25-Dec-2016

 -------------
 #p 6-31g* mp2
 -------------

 ------------------------------------------------------
 Input file generated by CHIRIPA (05-May-2021 14:53:14)
 ------------------------------------------------------
 Symbolic Z-matrix:
 Charge =  0 Multiplicity = 1

                         Standard orientation:
 ---------------------------------------------------------------------
 Center     Atomic      Atomic             Coordinates (Angstroms)
 Number     Number       Type             X           Y           Z
 ---------------------------------------------------------------------
      1          6           0        3.434679    0.856840    0.335415
      2          6           0        2.902020    1.997696   -0.532172
      3          6           0        1.704433    2.709744    0.097564
      4          1           0        2.627910    0.132744    0.513614
      5          1           0        3.719613    1.255634    1.318864
      6          1           0        2.619467    1.597110   -1.514165
      7          1           0        3.710202    2.719063   -0.708486
      8          1           0        1.976669    3.136167    1.068467
      9          1           0        0.879737    2.007839    0.258210
     10          1           0        1.339717    3.521665   -0.539324
     11          6           0        4.631968    0.135330   -0.280742
     12          6           0        5.164627   -1.005526    0.586844
     13          6           0        6.362214   -1.717574   -0.042892
     14          1           0        4.347034   -0.263464   -1.264191
     15          1           0        5.438737    0.859426   -0.458942
     16          1           0        4.356444   -1.726893    0.763158
     17          1           0        5.447179   -0.604941    1.568838
     18          1           0        7.186910   -1.015670   -0.203537
     19          1           0        6.089978   -2.143997   -1.013794
     20          1           0        6.726930   -2.529495    0.593997
     21          6           0       -5.420551    0.699096    0.164059
     22          6           0       -5.315400   -0.693633    0.088094
     23          6           0       -4.063091   -1.306550   -0.014885
     24          6           0       -2.931626   -0.492621   -0.039282
     25          6           0       -3.003694    0.897570    0.034648
     26          6           0       -4.266399    1.488860    0.137141
     27          1           0       -6.397412    1.166824    0.243867
     28          1           0       -6.210024   -1.309477    0.108774
     29          1           0       -3.952836   -2.382476   -0.075245
     30          1           0       -2.093913    1.485096    0.011673
     31          1           0       -4.345037    2.570710    0.195975
     32          7           0       -1.600360   -1.130040   -0.148044
     33          8           0       -0.618714   -0.390698   -0.167545
     34          8           0       -1.563768   -2.356923   -0.211731
 ---------------------------------------------------------------------

 SCF Done:  E(RHF) =  -669.536506834     A.U. after   15 cycles
 E2 =    -0.2091244873D+01 EUMP2 =    -0.67162775170757D+03

 The electronic state is 1-A.
 Alpha  occ. eigenvalues --  -20.61002 -20.60997 -15.86038 -11.31311 -11.27871
 Alpha  occ. eigenvalues --  -11.27863 -11.27603 -11.26871 -11.26859 -11.20720
 Alpha  occ. eigenvalues --  -11.20647 -11.20428 -11.20335 -11.20218 -11.20195
 Alpha  occ. eigenvalues --   -1.60062  -1.39620  -1.19477  -1.08890  -1.07443
 Alpha  occ. eigenvalues --   -1.04867  -1.02627  -0.95741  -0.95090  -0.86270
 Alpha  occ. eigenvalues --   -0.86120  -0.82577  -0.78708  -0.77637  -0.77240
 Alpha  occ. eigenvalues --   -0.72269  -0.71372  -0.70587  -0.65138  -0.64870
 Alpha  occ. eigenvalues --   -0.64045  -0.62216  -0.60001  -0.58470  -0.56708
 Alpha  occ. eigenvalues --   -0.55375  -0.54358  -0.53202  -0.52958  -0.51840
 Alpha  occ. eigenvalues --   -0.51529  -0.49198  -0.49007  -0.48821  -0.47023
 Alpha  occ. eigenvalues --   -0.45705  -0.45053  -0.44805  -0.44645  -0.42873
 Alpha  occ. eigenvalues --   -0.37456  -0.36466
 Alpha virt. eigenvalues --    0.04894   0.11189   0.16399   0.20960   0.23765
 Alpha virt. eigenvalues --    0.24679   0.26395   0.27499   0.27877   0.28627
 Alpha virt. eigenvalues --    0.29229   0.30525   0.31588   0.32449   0.32677

 Mulliken charges:
               1
     1  C   -0.304366
     2  C   -0.295163
     3  C   -0.488370
     4  H    0.169253
     5  H    0.143761
     6  H    0.154404
     7  H    0.146172
     8  H    0.149974
     9  H    0.174751
    10  H    0.151259
    11  C   -0.297727
    12  C   -0.300062
    13  C   -0.475246
    14  H    0.150962
    15  H    0.145032
    16  H    0.156983
    17  H    0.149065
    18  H    0.152587
    19  H    0.155366
    20  H    0.158204
    21  C   -0.170301
    22  C   -0.218736
    23  C   -0.170593
    24  C    0.157126
    25  C   -0.171267
    26  C   -0.219544
    27  H    0.226100
    28  H    0.223848
    29  H    0.275751
    30  H    0.279165
    31  H    0.224435
    32  N    0.494745
    33  O   -0.468676
    34  O   -0.458893
 Sum of Mulliken charges =  -0.00000

 Dipole moment (field-independent basis, Debye):
    X=             -4.9870    Y=              2.0499    Z=              0.3768  Tot=              5.4050
 Quadrupole moment (field-independent basis, Debye-Ang):
   XX=            -68.0957   YY=            -93.6644   ZZ=            -95.6980
   XY=             -1.6459   XZ=             -0.4151   YZ=             -0.0453

 Normal termination of Gaussian 16 at Wed May  5 15:34:45 2021.
