 Gaussian 16, Revision A.03,
 Gaussian 16:  EM64L-G16RevA.03 25-Dec-2016

 -------------
 #p 6-31g* mp2
 -------------

 ------------------------------------------------------
 Input file generated by CHIRIPA (05-May-2021 14:57:23)
 ------------------------------------------------------
 Symbolic Z-matrix:
 Charge =  0 Multiplicity = 1

                         Standard orientation:
 ---------------------------------------------------------------------
 Center     Atomic      Atomic             Coordinates (Angstroms)
 Number     Number       Type             X           Y           Z
 ---------------------------------------------------------------------
      1          6           0        1.760811    1.929789   -1.043702
      2          6           0        2.972686    2.249174   -0.422515
      3          6           0        3.780816    1.243773    0.116597
      4          6           0        3.344396   -0.076375    0.016416
      5          6           0        2.142224   -0.426430   -0.596392
      6          6           0        1.350172    0.595359   -1.128508
      7          1           0        1.139280    2.717174   -1.459780
      8          1           0        3.294117    3.284643   -0.355202
      9          1           0        4.723640    1.462932    0.602879
     10          1           0        1.848401   -1.467776   -0.648205
     11          1           0        0.409499    0.344375   -1.610366
     12          7           0        4.191417   -1.149423    0.583447
     13          8           0        3.784477   -2.304760    0.482280
     14          8           0        5.246214   -0.814824    1.118316
     15          6           0       -3.164284    2.304369    0.839269
     16          6           0       -3.763002    1.326222    1.640072
     17          6           0       -3.791271   -0.009349    1.227761
     18          6           0       -3.208713   -0.332967    0.003347
     19          6           0       -2.604672    0.618715   -0.816850
     20          6           0       -2.588046    1.948123   -0.384478
     21          1           0       -3.146846    3.339480    1.167355
     22          1           0       -4.211296    1.599991    2.590928
     23          1           0       -4.248140   -0.786779    1.828003
     24          1           0       -2.166012    0.315285   -1.759679
     25          1           0       -2.122378    2.705650   -1.008457
     26          7           0       -3.232478   -1.743614   -0.443766
     27          8           0       -2.712302   -2.002953   -1.526724
     28          8           0       -3.770830   -2.563229    0.297209
 ---------------------------------------------------------------------

 SCF Done:  E(RHF) =  -868.336555140     A.U. after   16 cycles
 E2 =    -0.2600654767D+01 EUMP2 =    -0.87093720990694D+03

 The electronic state is 1-A.
 Alpha  occ. eigenvalues --  -20.61433 -20.61395 -20.60772 -20.60755 -15.86474
 Alpha  occ. eigenvalues --  -15.85823 -11.31945 -11.31289 -11.28629 -11.28446
 Alpha  occ. eigenvalues --  -11.28242 -11.27889 -11.27820 -11.27746 -11.27645
 Alpha  occ. eigenvalues --  -11.27471 -11.26968 -11.26936  -1.60488  -1.59841
 Alpha  occ. eigenvalues --   -1.40042  -1.39390  -1.20118  -1.19487  -1.09482
 Alpha  occ. eigenvalues --   -1.08890  -1.05556  -1.04895  -0.96308  -0.95698
 Alpha  occ. eigenvalues --   -0.86944  -0.86312  -0.83148  -0.82518  -0.78201
 Alpha  occ. eigenvalues --   -0.77523  -0.72687  -0.72040  -0.71814  -0.71231
 Alpha  occ. eigenvalues --   -0.71166  -0.70649  -0.65779  -0.65583  -0.65148
 Alpha  occ. eigenvalues --   -0.64936  -0.62938  -0.62195  -0.56017  -0.55493
 Alpha  occ. eigenvalues --   -0.53874  -0.53672  -0.53218  -0.52949  -0.49457
 Alpha  occ. eigenvalues --   -0.49436  -0.48812  -0.48785  -0.45425  -0.44772
 Alpha  occ. eigenvalues --   -0.38069  -0.37590  -0.37111  -0.36437
 Alpha virt. eigenvalues --    0.04329   0.04994   0.10421   0.11151   0.15808
 Alpha virt. eigenvalues --    0.16446   0.18683   0.22117   0.25011   0.25513
 Alpha virt. eigenvalues --    0.28027   0.29083   0.30249   0.31226   0.32691

 Mulliken charges:
               1
     1  C   -0.172003
     2  C   -0.218525
     3  C   -0.170978
     4  C    0.158914
     5  C   -0.172049
     6  C   -0.217526
     7  H    0.217331
     8  H    0.222139
     9  H    0.275876
    10  H    0.282408
    11  H    0.222767
    12  N    0.487782
    13  O   -0.457135
    14  O   -0.461049
    15  C   -0.169795
    16  C   -0.217170
    17  C   -0.169354
    18  C    0.160548
    19  C   -0.175761
    20  C   -0.216581
    21  H    0.227281
    22  H    0.226909
    23  H    0.278928
    24  H    0.269948
    25  H    0.217649
    26  N    0.488150
    27  O   -0.463513
    28  O   -0.455191
 Sum of Mulliken charges =  -0.00000

 Dipole moment (field-independent basis, Debye):
    X=             -3.0534    Y=              8.5757    Z=             -0.1871  Tot=              9.1050
 Quadrupole moment (field-independent basis, Debye-Ang):
   XX=           -121.9968   YY=           -106.9358   ZZ=           -101.9679
   XY=              0.0193   XZ=            -13.6470   YZ=             -0.1253

 Normal termination of Gaussian 16 at Fri May  7 04:56:10 2021.
