 Gaussian 16, Revision A.03,
 Gaussian 16:  EM64L-G16RevA.03 25-Dec-2016

 -------------
 #p 6-31g* mp2
 -------------

 ------------------------------------------------------
 Input file generated by CHIRIPA (05-May-2021 14:57:22)
 ------------------------------------------------------
 Symbolic Z-matrix:
 Charge =  0 Multiplicity = 1

                         Standard orientation:
 ---------------------------------------------------------------------
 Center     Atomic      Atomic             Coordinates (Angstroms)
 Number     Number       Type             X           Y           Z
 ---------------------------------------------------------------------
      1          6           0        3.099495    2.641146   -0.335459
      2          6           0        4.278103    1.986373    0.036933
      3          6           0        4.330980    0.590026    0.081297
      4          6           0        3.181443   -0.123457   -0.254552
      5          6           0        1.992279    0.499901   -0.629525
      6          6           0        1.962349    1.897131   -0.666915
      7          1           0        3.067331    3.726205   -0.367213
      8          1           0        5.162758    2.561613    0.294865
      9          1           0        5.230283    0.057527    0.366106
     10          1           0        1.126560   -0.100617   -0.881175
     11          1           0        1.045649    2.402954   -0.956484
     12          7           0        3.225275   -1.602175   -0.211278
     13          8           0        2.198896   -2.207883   -0.511779
     14          8           0        4.285179   -2.127485    0.122323
     15          6           0       -5.114089    0.331300   -1.287163
     16          6           0       -4.211532   -0.697209   -1.577130
     17          6           0       -3.133068   -0.956358   -0.726068
     18          6           0       -2.986679   -0.163909    0.411421
     19          6           0       -3.869013    0.868003    0.727551
     20          6           0       -4.940255    1.109252   -0.137774
     21          1           0       -5.949060    0.525660   -1.953827
     22          1           0       -4.344053   -1.302982   -2.469050
     23          1           0       -2.419420   -1.746258   -0.926528
     24          1           0       -3.710784    1.454951    1.624140
     25          1           0       -5.639629    1.908669    0.089937
     26          7           0       -1.848780   -0.428783    1.319952
     27          8           0       -1.741867    0.283648    2.315767
     28          8           0       -1.085354   -1.343806    1.019039
 ---------------------------------------------------------------------

 SCF Done:  E(RHF) =  -868.337365354     A.U. after   16 cycles
 E2 =    -0.2599945816D+01 EUMP2 =    -0.87093731116957D+03

 The electronic state is 1-A.
 Alpha  occ. eigenvalues --  -20.60938 -20.60897 -20.59894 -20.59832 -15.85945
 Alpha  occ. eigenvalues --  -15.84921 -11.31386 -11.30386 -11.27974 -11.27915
 Alpha  occ. eigenvalues --  -11.27702 -11.27021 -11.26991 -11.26954 -11.26952
 Alpha  occ. eigenvalues --  -11.26816 -11.26069 -11.26056  -1.59997  -1.58934
 Alpha  occ. eigenvalues --   -1.39540  -1.38483  -1.19565  -1.18589  -1.08947
 Alpha  occ. eigenvalues --   -1.07977  -1.04964  -1.04024  -0.95762  -0.94790
 Alpha  occ. eigenvalues --   -0.86358  -0.85418  -0.82577  -0.81630  -0.77623
 Alpha  occ. eigenvalues --   -0.76642  -0.72137  -0.71355  -0.71140  -0.70650
 Alpha  occ. eigenvalues --   -0.70245  -0.69722  -0.65201  -0.64953  -0.64258
 Alpha  occ. eigenvalues --   -0.64055  -0.62297  -0.61372  -0.55456  -0.54555
 Alpha  occ. eigenvalues --   -0.53311  -0.53042  -0.52330  -0.52139  -0.48934
 Alpha  occ. eigenvalues --   -0.48907  -0.47925  -0.47883  -0.44915  -0.43857
 Alpha  occ. eigenvalues --   -0.37560  -0.36588  -0.36579  -0.35617
 Alpha virt. eigenvalues --    0.04860   0.05916   0.11060   0.12036   0.16330
 Alpha virt. eigenvalues --    0.17361   0.21221   0.22043   0.27104   0.27667
 Alpha virt. eigenvalues --    0.28188   0.28963   0.30741   0.31478   0.32292

 Mulliken charges:
               1
     1  C   -0.170456
     2  C   -0.218906
     3  C   -0.170720
     4  C    0.158525
     5  C   -0.165115
     6  C   -0.218080
     7  H    0.222268
     8  H    0.220694
     9  H    0.274023
    10  H    0.277869
    11  H    0.218496
    12  N    0.488344
    13  O   -0.454469
    14  O   -0.464953
    15  C   -0.171191
    16  C   -0.218814
    17  C   -0.174918
    18  C    0.155276
    19  C   -0.172498
    20  C   -0.218904
    21  H    0.226178
    22  H    0.225399
    23  H    0.281590
    24  H    0.275168
    25  H    0.223452
    26  N    0.485102
    27  O   -0.461232
    28  O   -0.452128
 Sum of Mulliken charges =  -0.00000

 Dipole moment (field-independent basis, Debye):
    X=             -4.3396    Y=              5.9269    Z=             -3.3168  Tot=              8.0598
 Quadrupole moment (field-independent basis, Debye-Ang):
   XX=            -78.0795   YY=           -104.7571   ZZ=           -106.5080
   XY=             13.4089   XZ=              8.5033   YZ=              2.3021

 Normal termination of Gaussian 16 at Wed May  5 22:35:02 2021.
