 Gaussian 16, Revision A.03,
 Gaussian 16:  EM64L-G16RevA.03 25-Dec-2016

 -------------
 #p 6-31g* mp2
 -------------

 ------------------------------------------------------
 Input file generated by CHIRIPA (05-May-2021 14:51:07)
 ------------------------------------------------------
 Symbolic Z-matrix:
 Charge =  0 Multiplicity = 1

                         Standard orientation:
 ---------------------------------------------------------------------
 Center     Atomic      Atomic             Coordinates (Angstroms)
 Number     Number       Type             X           Y           Z
 ---------------------------------------------------------------------
      1          6           0       -4.019732    0.714389   -0.141691
      2          6           0       -3.482160    2.091134    0.250194
      3          6           0       -4.553797    3.180547    0.199505
      4          1           0       -4.442909    0.767621   -1.154129
      5          1           0       -4.847666    0.447104    0.529487
      6          1           0       -2.654580    2.355139   -0.420648
      7          1           0       -3.060041    2.034572    1.261743
      8          1           0       -5.376476    2.943721    0.881937
      9          1           0       -4.968711    3.266108   -0.810013
     10          1           0       -4.147855    4.156524    0.483303
     11          6           0       -2.960223   -0.385188   -0.095862
     12          6           0       -3.497794   -1.761934   -0.487746
     13          6           0       -2.426158   -2.851346   -0.437057
     14          1           0       -2.132289   -0.117903   -0.767039
     15          1           0       -2.537045   -0.438420    0.916577
     16          1           0       -3.919913   -1.705371   -1.499295
     17          1           0       -4.325375   -2.025938    0.183096
     18          1           0       -2.011243   -2.936908    0.572460
     19          1           0       -1.603478   -2.614520   -1.119489
     20          1           0       -2.832099   -3.827323   -0.720855
     21          6           0        3.941059    0.412073    0.336503
     22          6           0        4.943662    0.836349   -0.737163
     23          6           0        5.838979    1.991027   -0.286696
     24          1           0        3.318881    1.275299    0.609780
     25          1           0        4.487661    0.120900    1.244160
     26          1           0        4.395394    1.125318   -1.642986
     27          1           0        5.563399   -0.028035   -1.008053
     28          1           0        6.411356    1.710127    0.603292
     29          1           0        5.236714    2.870033   -0.035248
     30          1           0        6.548033    2.278200   -1.069406
     31          6           0        3.038896   -0.741273   -0.098952
     32          6           0        2.036292   -1.165550    0.974716
     33          6           0        1.140975   -2.320228    0.524249
     34          1           0        2.492294   -0.450101   -1.006607
     35          1           0        3.661074   -1.604499   -0.372227
     36          1           0        1.416555   -0.301166    1.245606
     37          1           0        2.584561   -1.454519    1.880538
     38          1           0        1.743240   -3.199235    0.272800
     39          1           0        0.568598   -2.039328   -0.365740
     40          1           0        0.431922   -2.607400    1.306959
 ---------------------------------------------------------------------

 SCF Done:  E(RHF) =  -470.732201607     A.U. after   11 cycles
 E2 =    -0.1583125989D+01 EUMP2 =    -0.47231532759583D+03

 The electronic state is 1-A.
 Alpha  occ. eigenvalues --  -11.21619 -11.21585 -11.21567 -11.21525 -11.21412
 Alpha  occ. eigenvalues --  -11.21374 -11.21353 -11.21315 -11.21085 -11.21059
 Alpha  occ. eigenvalues --  -11.20952 -11.20929  -1.08433  -1.08388  -1.03546
 Alpha  occ. eigenvalues --   -1.03454  -0.96030  -0.95869  -0.87093  -0.86843
 Alpha  occ. eigenvalues --   -0.79697  -0.79440  -0.78259  -0.78188  -0.65070
 Alpha  occ. eigenvalues --   -0.65019  -0.60970  -0.60859  -0.59387  -0.59263
 Alpha  occ. eigenvalues --   -0.57600  -0.57552  -0.55331  -0.55156  -0.52832
 Alpha  occ. eigenvalues --   -0.52648  -0.52404  -0.52165  -0.49997  -0.49793
 Alpha  occ. eigenvalues --   -0.47961  -0.47778  -0.46665  -0.46497  -0.45831
 Alpha  occ. eigenvalues --   -0.45727  -0.45707  -0.45568  -0.43774  -0.43708
 Alpha virt. eigenvalues --    0.21652   0.23168   0.23534   0.25105   0.25481
 Alpha virt. eigenvalues --    0.26560   0.26857   0.27568   0.27894   0.29033
 Alpha virt. eigenvalues --    0.29549   0.31200   0.31779   0.31902   0.32519

 Mulliken charges:
               1
     1  C   -0.298209
     2  C   -0.299603
     3  C   -0.475695
     4  H    0.149673
     5  H    0.149678
     6  H    0.151562
     7  H    0.151883
     8  H    0.155277
     9  H    0.155212
    10  H    0.160219
    11  C   -0.298273
    12  C   -0.300128
    13  C   -0.476831
    14  H    0.148579
    15  H    0.149776
    16  H    0.151476
    17  H    0.151562
    18  H    0.157863
    19  H    0.157119
    20  H    0.159308
    21  C   -0.298220
    22  C   -0.299589
    23  C   -0.475679
    24  H    0.149642
    25  H    0.149488
    26  H    0.151738
    27  H    0.151901
    28  H    0.155171
    29  H    0.155145
    30  H    0.160162
    31  C   -0.298342
    32  C   -0.300195
    33  C   -0.476438
    34  H    0.148944
    35  H    0.149547
    36  H    0.151992
    37  H    0.151194
    38  H    0.154093
    39  H    0.158642
    40  H    0.160359
 Sum of Mulliken charges =  -0.00000

 Dipole moment (field-independent basis, Debye):
    X=             -0.0167    Y=             -0.0215    Z=              0.0011  Tot=              0.0273
 Quadrupole moment (field-independent basis, Debye-Ang):
   XX=            -85.3937   YY=            -85.7779   ZZ=            -83.7317
   XY=             -0.4277   XZ=             -0.1422   YZ=             -0.6011

 Normal termination of Gaussian 16 at Thu May  6 03:39:07 2021.
