 Gaussian 16, Revision A.03,
 Gaussian 16:  EM64L-G16RevA.03 25-Dec-2016

 -------------
 #p 6-31g* mp2
 -------------

 ------------------------------------------------------
 Input file generated by CHIRIPA (05-May-2021 14:53:14)
 ------------------------------------------------------
 Symbolic Z-matrix:
 Charge =  0 Multiplicity = 1

                         Standard orientation:
 ---------------------------------------------------------------------
 Center     Atomic      Atomic             Coordinates (Angstroms)
 Number     Number       Type             X           Y           Z
 ---------------------------------------------------------------------
      1          6           0        4.295465    0.632518   -0.347904
      2          6           0        4.332202    1.871342    0.547613
      3          6           0        5.128050    3.022525   -0.068178
      4          1           0        5.323910    0.302758   -0.549159
      5          1           0        3.858414    0.903448   -1.318975
      6          1           0        4.767781    1.597842    1.517192
      7          1           0        3.303544    2.198079    0.746916
      8          1           0        4.691578    3.323566   -1.026023
      9          1           0        6.164135    2.719920   -0.251370
     10          1           0        5.141362    3.897891    0.588646
     11          6           0        3.503524   -0.526878    0.254057
     12          6           0        3.466787   -1.765702   -0.641460
     13          6           0        2.670939   -2.916885   -0.025669
     14          1           0        3.940575   -0.797808    1.225128
     15          1           0        2.475079   -0.197118    0.455312
     16          1           0        4.495445   -2.092438   -0.840763
     17          1           0        3.031208   -1.492202   -1.611039
     18          1           0        1.634854   -2.614280    0.157523
     19          1           0        3.107411   -3.217926    0.932176
     20          1           0        2.657628   -3.792251   -0.682493
     21          6           0       -1.423752   -1.936893    0.409855
     22          6           0       -1.798026   -1.581531   -0.890206
     23          6           0       -2.696403   -0.532882   -1.108845
     24          6           0       -3.203360    0.141997    0.000579
     25          6           0       -2.849776   -0.188384    1.307912
     26          6           0       -1.949894   -1.240413    1.502838
     27          1           0       -0.725287   -2.752821    0.570488
     28          1           0       -1.391013   -2.120666   -1.740924
     29          1           0       -3.003196   -0.236884   -2.104676
     30          1           0       -3.272319    0.367609    2.136010
     31          1           0       -1.661015   -1.514201    2.513596
     32          7           0       -4.155227    1.253943   -0.218331
     33          8           0       -4.587663    1.832846    0.775906
     34          8           0       -4.450843    1.525529   -1.380006
 ---------------------------------------------------------------------

 SCF Done:  E(RHF) =  -669.535571430     A.U. after   15 cycles
 E2 =    -0.2091162181D+01 EUMP2 =    -0.67162673361012D+03

 The electronic state is 1-A.
 Alpha  occ. eigenvalues --  -20.60790 -20.60785 -15.85844 -11.31222 -11.27783
 Alpha  occ. eigenvalues --  -11.27779 -11.27503 -11.26806 -11.26795 -11.22323
 Alpha  occ. eigenvalues --  -11.22072 -11.21938 -11.21907 -11.21774 -11.21294
 Alpha  occ. eigenvalues --   -1.59865  -1.39418  -1.19392  -1.08944  -1.08783
 Alpha  occ. eigenvalues --   -1.04793  -1.04075  -0.96544  -0.95617  -0.87566
 Alpha  occ. eigenvalues --   -0.86188  -0.82449  -0.80151  -0.78722  -0.77493
 Alpha  occ. eigenvalues --   -0.72061  -0.71189  -0.70516  -0.65572  -0.65041
 Alpha  occ. eigenvalues --   -0.64792  -0.62137  -0.61478  -0.59923  -0.58142
 Alpha  occ. eigenvalues --   -0.55962  -0.55204  -0.53239  -0.53140  -0.52932
 Alpha  occ. eigenvalues --   -0.52881  -0.50476  -0.48822  -0.48815  -0.48456
 Alpha  occ. eigenvalues --   -0.47168  -0.46274  -0.46170  -0.44821  -0.44310
 Alpha  occ. eigenvalues --   -0.37358  -0.36398
 Alpha virt. eigenvalues --    0.04997   0.11247   0.16365   0.20517   0.22554
 Alpha virt. eigenvalues --    0.23950   0.25800   0.26444   0.27142   0.27388
 Alpha virt. eigenvalues --    0.28793   0.30441   0.31066   0.31472   0.32237

 Mulliken charges:
               1
     1  C   -0.298670
     2  C   -0.300281
     3  C   -0.476051
     4  H    0.150309
     5  H    0.150581
     6  H    0.151744
     7  H    0.153329
     8  H    0.156278
     9  H    0.155237
    10  H    0.161731
    11  C   -0.299622
    12  C   -0.298682
    13  C   -0.481002
    14  H    0.149599
    15  H    0.150796
    16  H    0.155005
    17  H    0.152110
    18  H    0.147055
    19  H    0.158054
    20  H    0.161042
    21  C   -0.173222
    22  C   -0.219803
    23  C   -0.171140
    24  C    0.158759
    25  C   -0.171098
    26  C   -0.219414
    27  H    0.230441
    28  H    0.224034
    29  H    0.275657
    30  H    0.275726
    31  H    0.224091
    32  N    0.488033
    33  O   -0.460271
    34  O   -0.460356
 Sum of Mulliken charges =  -0.00000

 Dipole moment (field-independent basis, Debye):
    X=              3.4578    Y=             -3.8553    Z=              0.7683  Tot=              5.2354
 Quadrupole moment (field-independent basis, Debye-Ang):
   XX=           -116.1654   YY=            -97.2530   ZZ=            -89.7332
   XY=             12.3377   XZ=             -2.3386   YZ=              1.0345

 Normal termination of Gaussian 16 at Wed May  5 21:50:59 2021.
