 Gaussian 16, Revision A.03,
 Gaussian 16:  EM64L-G16RevA.03 25-Dec-2016

 -------------
 #p 6-31g* mp2
 -------------

 ------------------------------------------------------
 Input file generated by CHIRIPA (05-May-2021 14:55:19)
 ------------------------------------------------------
 Symbolic Z-matrix:
 Charge =  0 Multiplicity = 1

                         Standard orientation:
 ---------------------------------------------------------------------
 Center     Atomic      Atomic             Coordinates (Angstroms)
 Number     Number       Type             X           Y           Z
 ---------------------------------------------------------------------
      1          6           0        0.829127    2.049293   -0.138785
      2          6           0        1.828484    2.010310   -1.116685
      3          6           0        2.916556    1.142270   -0.985712
      4          6           0        2.973741    0.323420    0.141011
      5          6           0        1.993885    0.339127    1.132437
      6          6           0        0.914866    1.215048    0.980681
      7          1           0       -0.012597    2.726668   -0.248600
      8          1           0        1.764509    2.657056   -1.987129
      9          1           0        3.704190    1.091679   -1.727663
     10          1           0        2.085178   -0.317597    1.989057
     11          1           0        0.140217    1.243182    1.741714
     12          7           0        4.120842   -0.599706    0.290667
     13          8           0        4.147987   -1.310969    1.292667
     14          8           0        4.971073   -0.594510   -0.596867
     15          6           0       -4.002805   -0.186380    0.312442
     16          6           0       -5.387437    0.105680   -0.266766
     17          6           0       -6.252779    0.951557    0.667831
     18          1           0       -4.116652   -0.701958    1.275854
     19          1           0       -3.493913    0.764060    0.524783
     20          1           0       -5.893027   -0.845030   -0.479239
     21          1           0       -5.270278    0.620453   -1.229002
     22          1           0       -5.772912    1.914406    0.870931
     23          1           0       -6.399200    0.440597    1.624954
     24          1           0       -7.238170    1.148390    0.234102
     25          6           0       -3.125987   -1.031061   -0.610287
     26          6           0       -1.741355   -1.323121   -0.031079
     27          6           0       -0.876015   -2.168997   -0.965677
     28          1           0       -3.634880   -1.981500   -0.822627
     29          1           0       -3.012140   -0.515483   -1.573699
     30          1           0       -1.858514   -1.837893    0.931157
     31          1           0       -1.235766   -0.372411    0.181395
     32          1           0       -0.729593   -1.658038   -1.922798
     33          1           0       -1.355880   -3.131847   -1.168776
     34          1           0        0.109377   -2.365831   -0.531947
 ---------------------------------------------------------------------

 SCF Done:  E(RHF) =  -669.534920426     A.U. after   15 cycles
 E2 =    -0.2092988531D+01 EUMP2 =    -0.67162790895704D+03

 The electronic state is 1-A.
 Alpha  occ. eigenvalues --  -20.60818 -20.60812 -15.85872 -11.31270 -11.27823
 Alpha  occ. eigenvalues --  -11.27816 -11.27576 -11.26856 -11.26841 -11.22090
 Alpha  occ. eigenvalues --  -11.21952 -11.21886 -11.21782 -11.21545 -11.21244
 Alpha  occ. eigenvalues --   -1.59892  -1.39445  -1.19442  -1.08898  -1.08821
 Alpha  occ. eigenvalues --   -1.04851  -1.03914  -0.96363  -0.95661  -0.87377
 Alpha  occ. eigenvalues --   -0.86248  -0.82491  -0.80000  -0.78722  -0.77527
 Alpha  occ. eigenvalues --   -0.72089  -0.71215  -0.70541  -0.65547  -0.65091
 Alpha  occ. eigenvalues --   -0.64841  -0.62197  -0.61325  -0.59743  -0.57992
 Alpha  occ. eigenvalues --   -0.55673  -0.55344  -0.53229  -0.52964  -0.52933
 Alpha  occ. eigenvalues --   -0.52776  -0.50309  -0.48853  -0.48842  -0.48307
 Alpha  occ. eigenvalues --   -0.47045  -0.46249  -0.46191  -0.44843  -0.44187
 Alpha  occ. eigenvalues --   -0.37378  -0.36375
 Alpha virt. eigenvalues --    0.04990   0.11096   0.16462   0.20697   0.22641
 Alpha virt. eigenvalues --    0.23960   0.25735   0.26498   0.27390   0.27944
 Alpha virt. eigenvalues --    0.28919   0.30735   0.31118   0.31545   0.31734

 Mulliken charges:
               1
     1  C   -0.171014
     2  C   -0.217972
     3  C   -0.170701
     4  C    0.158912
     5  C   -0.171094
     6  C   -0.217603
     7  H    0.225884
     8  H    0.223774
     9  H    0.275938
    10  H    0.276225
    11  H    0.225813
    12  N    0.487955
    13  O   -0.460225
    14  O   -0.460003
    15  C   -0.296710
    16  C   -0.299718
    17  C   -0.475670
    18  H    0.150702
    19  H    0.140803
    20  H    0.154346
    21  H    0.151492
    22  H    0.152846
    23  H    0.156149
    24  H    0.161911
    25  C   -0.297689
    26  C   -0.306314
    27  C   -0.474775
    28  H    0.151782
    29  H    0.148345
    30  H    0.150082
    31  H    0.152644
    32  H    0.154464
    33  H    0.156368
    34  H    0.163052
 Sum of Mulliken charges =  -0.00000

 Dipole moment (field-independent basis, Debye):
    X=             -3.9957    Y=              3.2315    Z=             -0.5477  Tot=              5.1680
 Quadrupole moment (field-independent basis, Debye-Ang):
   XX=           -118.9990   YY=            -92.3351   ZZ=            -91.4668
   XY=             10.0172   XZ=             -3.7430   YZ=             -2.0919

 Normal termination of Gaussian 16 at Wed May  5 22:06:46 2021.
