 Gaussian 16, Revision A.03,
 Gaussian 16:  EM64L-G16RevA.03 25-Dec-2016

 -------------
 #p 6-31g* mp2
 -------------

 ------------------------------------------------------
 Input file generated by CHIRIPA (05-May-2021 14:51:09)
 ------------------------------------------------------
 Symbolic Z-matrix:
 Charge =  0 Multiplicity = 1

                         Standard orientation:
 ---------------------------------------------------------------------
 Center     Atomic      Atomic             Coordinates (Angstroms)
 Number     Number       Type             X           Y           Z
 ---------------------------------------------------------------------
      1          6           0        2.624246    0.834610    0.200920
      2          6           0        2.244323    2.220319   -0.322010
      3          6           0        1.188362    2.909449    0.542768
      4          1           0        1.722893    0.208439    0.250092
      5          1           0        2.996334    0.928256    1.230568
      6          1           0        1.874360    2.124259   -1.350852
      7          1           0        3.146717    2.843204   -0.370124
      8          1           0        1.551709    3.034486    1.567925
      9          1           0        0.272123    2.311456    0.581625
     10          1           0        0.931576    3.898544    0.150833
     11          6           0        3.678894    0.133030   -0.653029
     12          6           0        4.058817   -1.252679   -0.130100
     13          6           0        5.114777   -1.941809   -0.994878
     14          1           0        3.306805    0.039384   -1.682678
     15          1           0        4.580247    0.759201   -0.702202
     16          1           0        3.156423   -1.875564   -0.081985
     17          1           0        4.428780   -1.156619    0.898742
     18          1           0        6.031017   -1.343815   -1.033735
     19          1           0        4.751431   -2.066845   -2.020035
     20          1           0        5.371563   -2.930903   -0.602943
     21          6           0       -3.527837   -0.323131   -0.418952
     22          6           0       -5.041957   -0.225591   -0.229452
     23          6           0       -5.780810    0.096402   -1.528764
     24          1           0       -3.154276    0.624905   -0.829592
     25          1           0       -3.308139   -1.096395   -1.168079
     26          1           0       -5.258668    0.546299    0.520108
     27          1           0       -5.411930   -1.173902    0.180964
     28          1           0       -5.593919   -0.677581   -2.280178
     29          1           0       -5.439785    1.052395   -1.939108
     30          1           0       -6.861798    0.161484   -1.370363
     31          6           0       -2.775303   -0.644509    0.871062
     32          6           0       -1.261182   -0.742050    0.681561
     33          6           0       -0.522330   -1.064042    1.980873
     34          1           0       -2.995001    0.128755    1.620188
     35          1           0       -3.148864   -1.592545    1.281702
     36          1           0       -0.891210    0.206262    0.271146
     37          1           0       -1.044472   -1.513940   -0.067998
     38          1           0       -0.863354   -2.020035    2.391217
     39          1           0       -0.709221   -0.290059    2.732288
     40          1           0        0.558658   -1.129124    1.822473
 ---------------------------------------------------------------------

 SCF Done:  E(RHF) =  -470.732437031     A.U. after   11 cycles
 E2 =    -0.1584244102D+01 EUMP2 =    -0.47231668113279D+03

 The electronic state is 1-A.
 Alpha  occ. eigenvalues --  -11.21649 -11.21619 -11.21613 -11.21600 -11.21436
 Alpha  occ. eigenvalues --  -11.21377 -11.21377 -11.21300 -11.21085 -11.21082
 Alpha  occ. eigenvalues --  -11.21076 -11.21036  -1.08485  -1.08406  -1.03591
 Alpha  occ. eigenvalues --   -1.03505  -0.96018  -0.95965  -0.87041  -0.86972
 Alpha  occ. eigenvalues --   -0.79658  -0.79571  -0.78346  -0.78187  -0.65214
 Alpha  occ. eigenvalues --   -0.64977  -0.61146  -0.60775  -0.59449  -0.59278
 Alpha  occ. eigenvalues --   -0.57727  -0.57499  -0.55310  -0.55248  -0.52767
 Alpha  occ. eigenvalues --   -0.52652  -0.52523  -0.52279  -0.49996  -0.49874
 Alpha  occ. eigenvalues --   -0.47992  -0.47872  -0.46847  -0.46491  -0.45925
 Alpha  occ. eigenvalues --   -0.45776  -0.45738  -0.45415  -0.43810  -0.43764
 Alpha virt. eigenvalues --    0.20648   0.22946   0.23718   0.24188   0.26069
 Alpha virt. eigenvalues --    0.26315   0.26823   0.27441   0.28262   0.29572
 Alpha virt. eigenvalues --    0.30388   0.31468   0.31660   0.31957   0.32453

 Mulliken charges:
               1
     1  C   -0.308622
     2  C   -0.298807
     3  C   -0.481154
     4  H    0.162070
     5  H    0.149021
     6  H    0.151560
     7  H    0.151985
     8  H    0.155557
     9  H    0.159384
    10  H    0.160200
    11  C   -0.297519
    12  C   -0.300652
    13  C   -0.475624
    14  H    0.149392
    15  H    0.149523
    16  H    0.151973
    17  H    0.151959
    18  H    0.155327
    19  H    0.155230
    20  H    0.160280
    21  C   -0.298411
    22  C   -0.299699
    23  C   -0.475747
    24  H    0.149488
    25  H    0.149450
    26  H    0.152128
    27  H    0.152018
    28  H    0.155140
    29  H    0.155262
    30  H    0.160359
    31  C   -0.297909
    32  C   -0.307455
    33  C   -0.480022
    34  H    0.149910
    35  H    0.150009
    36  H    0.156970
    37  H    0.151594
    38  H    0.155316
    39  H    0.155734
    40  H    0.164782
 Sum of Mulliken charges =  -0.00000

 Dipole moment (field-independent basis, Debye):
    X=             -0.0067    Y=             -0.0071    Z=              0.0084  Tot=              0.0129
 Quadrupole moment (field-independent basis, Debye-Ang):
   XX=            -85.2709   YY=            -84.0988   ZZ=            -85.4286
   XY=              0.9995   XZ=              0.2695   YZ=              0.3217

 Normal termination of Gaussian 16 at Thu May  6 05:19:42 2021.
