 Gaussian 16, Revision A.03,
 Gaussian 16:  EM64L-G16RevA.03 25-Dec-2016

 -------------
 #p 6-31g* mp2
 -------------

 ------------------------------------------------------
 Input file generated by CHIRIPA (05-May-2021 14:55:19)
 ------------------------------------------------------
 Symbolic Z-matrix:
 Charge =  0 Multiplicity = 1

                         Standard orientation:
 ---------------------------------------------------------------------
 Center     Atomic      Atomic             Coordinates (Angstroms)
 Number     Number       Type             X           Y           Z
 ---------------------------------------------------------------------
      1          6           0       -4.361472   -2.090727   -0.293409
      2          6           0       -3.771465   -1.891262    0.959040
      3          6           0       -3.088739   -0.704360    1.241346
      4          6           0       -3.015074    0.266238    0.243447
      5          6           0       -3.592467    0.097111   -1.014052
      6          6           0       -4.270251   -1.097655   -1.274228
      7          1           0       -4.889910   -3.015796   -0.504115
      8          1           0       -3.840716   -2.660754    1.722670
      9          1           0       -2.622760   -0.523818    2.202431
     10          1           0       -3.506652    0.882525   -1.755118
     11          1           0       -4.727491   -1.249824   -2.247789
     12          7           0       -2.294918    1.526921    0.530597
     13          8           0       -2.244187    2.366531   -0.365572
     14          8           0       -1.794828    1.651563    1.646398
     15          6           0        3.292258   -0.276801   -0.411460
     16          6           0        2.374577    0.914975   -0.686260
     17          6           0        0.939568    0.494808   -1.005637
     18          1           0        3.289508   -0.942699   -1.285255
     19          1           0        2.884569   -0.859029    0.426512
     20          1           0        2.784614    1.495558   -1.522567
     21          1           0        2.379660    1.578211    0.188217
     22          1           0        0.507330   -0.065699   -0.170411
     23          1           0        0.914585   -0.148823   -1.890915
     24          1           0        0.300792    1.362295   -1.198751
     25          6           0        4.730178    0.127138   -0.090609
     26          6           0        5.647858   -1.064639    0.184191
     27          6           0        7.082867   -0.644472    0.503569
     28          1           0        5.137866    0.709365   -0.928581
     29          1           0        4.732926    0.793035    0.783185
     30          1           0        5.642775   -1.727875   -0.690285
     31          1           0        5.237820   -1.645221    1.020498
     32          1           0        7.107850   -0.000842    1.388846
     33          1           0        7.515106   -0.083964   -0.331658
     34          1           0        7.721642   -1.511959    0.696682
 ---------------------------------------------------------------------

 SCF Done:  E(RHF) =  -669.536339324     A.U. after   15 cycles
 E2 =    -0.2091769302D+01 EUMP2 =    -0.67162810862541D+03

 The electronic state is 1-A.
 Alpha  occ. eigenvalues --  -20.60883 -20.60864 -15.85887 -11.31215 -11.27782
 Alpha  occ. eigenvalues --  -11.27772 -11.27519 -11.26791 -11.26780 -11.21291
 Alpha  occ. eigenvalues --  -11.20971 -11.20926 -11.20862 -11.20800 -11.20327
 Alpha  occ. eigenvalues --   -1.59922  -1.39483  -1.19382  -1.08787  -1.07959
 Alpha  occ. eigenvalues --   -1.04781  -1.03034  -0.95631  -0.95497  -0.86528
 Alpha  occ. eigenvalues --   -0.86182  -0.82469  -0.79124  -0.77770  -0.77520
 Alpha  occ. eigenvalues --   -0.72125  -0.71236  -0.70496  -0.65042  -0.64789
 Alpha  occ. eigenvalues --   -0.64591  -0.62132  -0.60433  -0.58854  -0.57087
 Alpha  occ. eigenvalues --   -0.55290  -0.54798  -0.53113  -0.52877  -0.52171
 Alpha  occ. eigenvalues --   -0.51922  -0.49466  -0.48888  -0.48875  -0.47437
 Alpha  occ. eigenvalues --   -0.46156  -0.45320  -0.45233  -0.44889  -0.43234
 Alpha  occ. eigenvalues --   -0.37351  -0.36380
 Alpha virt. eigenvalues --    0.04985   0.11251   0.16454   0.21389   0.23318
 Alpha virt. eigenvalues --    0.24813   0.27071   0.27304   0.27932   0.28084
 Alpha virt. eigenvalues --    0.28545   0.30918   0.31705   0.32207   0.32260

 Mulliken charges:
               1
     1  C   -0.170573
     2  C   -0.218457
     3  C   -0.171779
     4  C    0.160041
     5  C   -0.170328
     6  C   -0.218564
     7  H    0.225680
     8  H    0.223473
     9  H    0.275439
    10  H    0.275720
    11  H    0.223552
    12  N    0.490471
    13  O   -0.459997
    14  O   -0.459265
    15  C   -0.297696
    16  C   -0.298735
    17  C   -0.487539
    18  H    0.146575
    19  H    0.148021
    20  H    0.150669
    21  H    0.158762
    22  H    0.149697
    23  H    0.148234
    24  H    0.178586
    25  C   -0.298175
    26  C   -0.299120
    27  C   -0.475476
    28  H    0.149059
    29  H    0.151036
    30  H    0.150488
    31  H    0.150917
    32  H    0.155558
    33  H    0.154949
    34  H    0.158778
 Sum of Mulliken charges =  -0.00000

 Dipole moment (field-independent basis, Debye):
    X=             -2.6887    Y=             -4.3237    Z=             -0.9729  Tot=              5.1836
 Quadrupole moment (field-independent basis, Debye-Ang):
   XX=            -81.4614   YY=            -97.1250   ZZ=            -90.2335
   XY=             12.6924   XZ=              3.2373   YZ=             -3.1349

 Normal termination of Gaussian 16 at Thu May  6 02:52:30 2021.
