 Gaussian 16, Revision A.03,
 Gaussian 16:  EM64L-G16RevA.03 25-Dec-2016

 -------------
 #p 6-31g* mp2
 -------------

 ------------------------------------------------------
 Input file generated by CHIRIPA (05-May-2021 14:55:21)
 ------------------------------------------------------
 Symbolic Z-matrix:
 Charge =  0 Multiplicity = 1

                         Standard orientation:
 ---------------------------------------------------------------------
 Center     Atomic      Atomic             Coordinates (Angstroms)
 Number     Number       Type             X           Y           Z
 ---------------------------------------------------------------------
      1          6           0        1.673146    1.462908    2.014620
      2          6           0        2.988149    1.431792    1.538890
      3          6           0        3.363234    0.519939    0.547737
      4          6           0        2.393317   -0.350268    0.052469
      5          6           0        1.075157   -0.343702    0.506011
      6          6           0        0.722522    0.576624    1.497573
      7          1           0        1.390491    2.174548    2.784730
      8          1           0        3.728523    2.118906    1.938597
      9          1           0        4.374216    0.474288    0.161409
     10          1           0        0.359323   -1.041145    0.088191
     11          1           0       -0.299466    0.598529    1.865140
     12          7           0        2.778519   -1.320091   -0.997037
     13          8           0        1.905272   -2.076196   -1.417014
     14          8           0        3.946394   -1.305768   -1.379791
     15          6           0       -2.897012   -0.383212    0.139336
     16          6           0       -4.197614   -1.161827    0.339781
     17          6           0       -4.011044   -2.413465    1.197911
     18          1           0       -2.151219   -1.041431   -0.327017
     19          1           0       -2.492931   -0.099086    1.120857
     20          1           0       -4.599845   -1.443204   -0.641877
     21          1           0       -4.940459   -0.501622    0.805536
     22          1           0       -3.632325   -2.147384    2.190068
     23          1           0       -3.289776   -3.094317    0.734431
     24          1           0       -4.953229   -2.954874    1.328393
     25          6           0       -3.067355    0.870711   -0.716462
     26          6           0       -1.766753    1.649326   -0.916908
     27          6           0       -1.953324    2.900963   -1.775038
     28          1           0       -3.471437    0.586584   -1.697984
     29          1           0       -3.813149    1.528929   -0.250109
     30          1           0       -1.023909    0.989121   -1.382663
     31          1           0       -1.364523    1.930703    0.064751
     32          1           0       -2.674592    3.581815   -1.311558
     33          1           0       -2.332043    2.634883   -2.767194
     34          1           0       -1.011140    3.442373   -1.905519
 ---------------------------------------------------------------------

 SCF Done:  E(RHF) =  -669.533472305     A.U. after   15 cycles
 E2 =    -0.2094673630D+01 EUMP2 =    -0.67162814593479D+03

 The electronic state is 1-A.
 Alpha  occ. eigenvalues --  -20.60741 -20.60734 -15.85790 -11.31114 -11.27668
 Alpha  occ. eigenvalues --  -11.27623 -11.27407 -11.26698 -11.26623 -11.22264
 Alpha  occ. eigenvalues --  -11.22142 -11.22027 -11.21921 -11.21515 -11.21408
 Alpha  occ. eigenvalues --   -1.59814  -1.39369  -1.19283  -1.09063  -1.08687
 Alpha  occ. eigenvalues --   -1.04685  -1.04015  -0.96490  -0.95530  -0.87499
 Alpha  occ. eigenvalues --   -0.86092  -0.82388  -0.80112  -0.78994  -0.77346
 Alpha  occ. eigenvalues --   -0.72010  -0.71136  -0.70398  -0.65808  -0.64932
 Alpha  occ. eigenvalues --   -0.64599  -0.62056  -0.61405  -0.59860  -0.58108
 Alpha  occ. eigenvalues --   -0.55785  -0.55195  -0.53238  -0.53025  -0.52840
 Alpha  occ. eigenvalues --   -0.52796  -0.50427  -0.48769  -0.48768  -0.48416
 Alpha  occ. eigenvalues --   -0.47149  -0.46372  -0.46298  -0.44781  -0.44324
 Alpha  occ. eigenvalues --   -0.37262  -0.36172
 Alpha virt. eigenvalues --    0.05104   0.11227   0.16573   0.19806   0.22973
 Alpha virt. eigenvalues --    0.23824   0.24227   0.25143   0.27418   0.28550
 Alpha virt. eigenvalues --    0.30333   0.30988   0.31229   0.31508   0.31787

 Mulliken charges:
               1
     1  C   -0.173596
     2  C   -0.218392
     3  C   -0.171109
     4  C    0.157971
     5  C   -0.174619
     6  C   -0.219048
     7  H    0.225213
     8  H    0.222967
     9  H    0.275101
    10  H    0.280701
    11  H    0.228844
    12  N    0.488051
    13  O   -0.461397
    14  O   -0.460436
    15  C   -0.307755
    16  C   -0.298846
    17  C   -0.477255
    18  H    0.153494
    19  H    0.139933
    20  H    0.156859
    21  H    0.153014
    22  H    0.152366
    23  H    0.158853
    24  H    0.163410
    25  C   -0.297680
    26  C   -0.303200
    27  C   -0.475896
    28  H    0.154659
    29  H    0.149946
    30  H    0.157088
    31  H    0.146631
    32  H    0.153924
    33  H    0.158213
    34  H    0.161989
 Sum of Mulliken charges =  -0.00000

 Dipole moment (field-independent basis, Debye):
    X=             -1.5108    Y=              3.3835    Z=              3.5778  Tot=              5.1508
 Quadrupole moment (field-independent basis, Debye-Ang):
   XX=            -96.4807   YY=            -97.6462   ZZ=            -94.7172
   XY=             10.7840   XZ=              9.0560   YZ=             -0.0824

 Normal termination of Gaussian 16 at Wed May  5 17:26:53 2021.
