 Gaussian 16, Revision A.03,
 Gaussian 16:  EM64L-G16RevA.03 25-Dec-2016

 -------------
 #p 6-31g* mp2
 -------------

 ------------------------------------------------------
 Input file generated by CHIRIPA (05-May-2021 14:57:25)
 ------------------------------------------------------
 Symbolic Z-matrix:
 Charge =  0 Multiplicity = 1

                         Standard orientation:
 ---------------------------------------------------------------------
 Center     Atomic      Atomic             Coordinates (Angstroms)
 Number     Number       Type             X           Y           Z
 ---------------------------------------------------------------------
      1          6           0        1.832146    0.114343   -0.242224
      2          6           0        2.610047    1.230993    0.081019
      3          6           0        4.001976    1.127576    0.160926
      4          6           0        4.585536   -0.113375   -0.089650
      5          6           0        3.837677   -1.244212   -0.414003
      6          6           0        2.447359   -1.117523   -0.488269
      7          1           0        0.751488    0.203719   -0.302107
      8          1           0        2.134983    2.188936    0.272603
      9          1           0        4.628186    1.975909    0.409141
     10          1           0        4.339889   -2.185871   -0.599688
     11          1           0        1.845745   -1.986420   -0.739516
     12          7           0        6.058256   -0.235176   -0.008041
     13          8           0        6.548189   -1.339656   -0.233270
     14          8           0        6.694755    0.776142    0.279606
     15          6           0       -2.099015    1.149801    0.566885
     16          6           0       -3.016397    1.793777   -0.269909
     17          6           0       -4.262575    1.217671   -0.533903
     18          6           0       -4.559736   -0.008837    0.058262
     19          6           0       -3.667000   -0.675080    0.896375
     20          6           0       -2.426666   -0.080403    1.146335
     21          1           0       -1.133224    1.604547    0.766511
     22          1           0       -2.764647    2.749246   -0.721291
     23          1           0       -4.991554    1.694481   -1.177844
     24          1           0       -3.946499   -1.626734    1.331868
     25          1           0       -1.716183   -0.582803    1.796607
     26          7           0       -5.875915   -0.628565   -0.213787
     27          8           0       -6.113618   -1.709801    0.320125
     28          8           0       -6.644911   -0.021336   -0.955781
 ---------------------------------------------------------------------

 SCF Done:  E(RHF) =  -868.336725966     A.U. after   16 cycles
 E2 =    -0.2600243867D+01 EUMP2 =    -0.87093696983261D+03

 The electronic state is 1-A.
 Alpha  occ. eigenvalues --  -20.61479 -20.61474 -20.61277 -20.61270 -15.86537
 Alpha  occ. eigenvalues --  -15.86335 -11.32111 -11.31836 -11.28670 -11.28651
 Alpha  occ. eigenvalues --  -11.28572 -11.28440 -11.28394 -11.28239 -11.27806
 Alpha  occ. eigenvalues --  -11.27768 -11.27555 -11.27451  -1.60549  -1.60349
 Alpha  occ. eigenvalues --   -1.40096  -1.39898  -1.20304  -1.20032  -1.09697
 Alpha  occ. eigenvalues --   -1.09418  -1.05716  -1.05454  -0.96497  -0.96219
 Alpha  occ. eigenvalues --   -0.87120  -0.86859  -0.83305  -0.83045  -0.78284
 Alpha  occ. eigenvalues --   -0.78061  -0.72752  -0.72551  -0.71874  -0.71674
 Alpha  occ. eigenvalues --   -0.71665  -0.71009  -0.65960  -0.65727  -0.65691
 Alpha  occ. eigenvalues --   -0.65470  -0.63038  -0.62795  -0.56486  -0.55848
 Alpha  occ. eigenvalues --   -0.54028  -0.53810  -0.53776  -0.53556  -0.49527
 Alpha  occ. eigenvalues --   -0.49494  -0.49322  -0.49296  -0.45455  -0.45273
 Alpha  occ. eigenvalues --   -0.38346  -0.38050  -0.37306  -0.37052
 Alpha virt. eigenvalues --    0.04172   0.04467   0.10276   0.10578   0.15455
 Alpha virt. eigenvalues --    0.15882   0.18554   0.21860   0.25024   0.26172
 Alpha virt. eigenvalues --    0.27221   0.29277   0.30027   0.30449   0.31992

 Mulliken charges:
               1
     1  C   -0.177835
     2  C   -0.220084
     3  C   -0.169754
     4  C    0.159003
     5  C   -0.169834
     6  C   -0.219689
     7  H    0.224586
     8  H    0.218249
     9  H    0.277178
    10  H    0.277988
    11  H    0.226161
    12  N    0.487940
    13  O   -0.458386
    14  O   -0.459147
    15  C   -0.177339
    16  C   -0.217976
    17  C   -0.170149
    18  C    0.160193
    19  C   -0.170155
    20  C   -0.221228
    21  H    0.219861
    22  H    0.225644
    23  H    0.278779
    24  H    0.278464
    25  H    0.225461
    26  N    0.487809
    27  O   -0.458050
    28  O   -0.457690
 Sum of Mulliken charges =  -0.00000

 Dipole moment (field-independent basis, Debye):
    X=             -0.6941    Y=              2.5089    Z=              0.6304  Tot=              2.6784
 Quadrupole moment (field-independent basis, Debye-Ang):
   XX=           -193.3971   YY=            -97.3899   ZZ=           -104.0043
   XY=             -8.3499   XZ=             -4.0611   YZ=             -1.2597

 Normal termination of Gaussian 16 at Thu May  6 14:44:05 2021.
