 Gaussian 16, Revision A.03,
 Gaussian 16:  EM64L-G16RevA.03 25-Dec-2016

 -------------
 #p 6-31g* mp2
 -------------

 ------------------------------------------------------
 Input file generated by CHIRIPA (05-May-2021 14:53:11)
 ------------------------------------------------------
 Symbolic Z-matrix:
 Charge =  0 Multiplicity = 1

                         Standard orientation:
 ---------------------------------------------------------------------
 Center     Atomic      Atomic             Coordinates (Angstroms)
 Number     Number       Type             X           Y           Z
 ---------------------------------------------------------------------
      1          6           0        3.705164   -0.671473    0.352812
      2          6           0        2.562875   -1.555358    0.854717
      3          6           0        3.043221   -2.923731    1.339090
      4          1           0        4.228515   -1.187986   -0.463437
      5          1           0        4.438807   -0.538939    1.160028
      6          1           0        1.830917   -1.685049    0.047231
      7          1           0        2.042062   -1.036599    1.669738
      8          1           0        3.757017   -2.812427    2.161712
      9          1           0        3.544672   -3.464561    0.529986
     10          1           0        2.210467   -3.539210    1.693443
     11          6           0        3.240795    0.699779   -0.134791
     12          6           0        4.383084    1.583664   -0.636695
     13          6           0        3.902738    2.952037   -1.121068
     14          1           0        2.507151    0.567245   -0.942006
     15          1           0        2.717444    1.216292    0.681459
     16          1           0        4.903896    1.064905   -1.451717
     17          1           0        5.115042    1.713355    0.170791
     18          1           0        3.401286    3.492868   -0.311964
     19          1           0        3.188941    2.840733   -1.943690
     20          1           0        4.735492    3.567516   -1.475421
     21          6           0       -3.631659    1.961461    1.192196
     22          6           0       -2.273972    1.638067    1.285071
     23          6           0       -1.754176    0.547343    0.581736
     24          6           0       -2.624478   -0.201752   -0.208655
     25          6           0       -3.981809    0.095187   -0.321657
     26          6           0       -4.479749    1.190348    0.390541
     27          1           0       -4.026960    2.810485    1.742005
     28          1           0       -1.612992    2.235149    1.906877
     29          1           0       -0.707190    0.274689    0.635577
     30          1           0       -4.616022   -0.518710   -0.949609
     31          1           0       -5.534574    1.439162    0.316520
     32          7           0       -2.085762   -1.358802   -0.957936
     33          8           0       -2.873341   -2.002973   -1.647430
     34          8           0       -0.886138   -1.599618   -0.841541
 ---------------------------------------------------------------------

 SCF Done:  E(RHF) =  -669.536217333     A.U. after   15 cycles
 E2 =    -0.2091414393D+01 EUMP2 =    -0.67162763172593D+03

 The electronic state is 1-A.
 Alpha  occ. eigenvalues --  -20.60866 -20.60854 -15.85912 -11.31215 -11.27788
 Alpha  occ. eigenvalues --  -11.27759 -11.27527 -11.26794 -11.26778 -11.21475
 Alpha  occ. eigenvalues --  -11.21211 -11.21043 -11.20987 -11.20895 -11.20461
 Alpha  occ. eigenvalues --   -1.59932  -1.39488  -1.19387  -1.08796  -1.08112
 Alpha  occ. eigenvalues --   -1.04781  -1.03170  -0.95658  -0.95635  -0.86672
 Alpha  occ. eigenvalues --   -0.86183  -0.82477  -0.79259  -0.77947  -0.77485
 Alpha  occ. eigenvalues --   -0.72139  -0.71249  -0.70497  -0.65051  -0.64786
 Alpha  occ. eigenvalues --   -0.64729  -0.62126  -0.60556  -0.59030  -0.57246
 Alpha  occ. eigenvalues --   -0.55291  -0.54951  -0.53117  -0.52875  -0.52335
 Alpha  occ. eigenvalues --   -0.52079  -0.49606  -0.48904  -0.48884  -0.47558
 Alpha  occ. eigenvalues --   -0.46280  -0.45485  -0.45279  -0.44905  -0.43442
 Alpha  occ. eigenvalues --   -0.37372  -0.36383
 Alpha virt. eigenvalues --    0.05003   0.11267   0.16504   0.20731   0.23083
 Alpha virt. eigenvalues --    0.24423   0.25472   0.26944   0.27696   0.28235
 Alpha virt. eigenvalues --    0.29469   0.30985   0.31585   0.31840   0.32449

 Mulliken charges:
               1
     1  C   -0.297319
     2  C   -0.311767
     3  C   -0.474806
     4  H    0.151457
     5  H    0.146255
     6  H    0.181987
     7  H    0.140141
     8  H    0.150123
     9  H    0.156226
    10  H    0.162709
    11  C   -0.299591
    12  C   -0.299132
    13  C   -0.475541
    14  H    0.155411
    15  H    0.140142
    16  H    0.154008
    17  H    0.151076
    18  H    0.151215
    19  H    0.156167
    20  H    0.160221
    21  C   -0.170475
    22  C   -0.219251
    23  C   -0.173006
    24  C    0.157169
    25  C   -0.170720
    26  C   -0.218801
    27  H    0.225704
    28  H    0.223781
    29  H    0.280204
    30  H    0.275508
    31  H    0.223489
    32  N    0.495139
    33  O   -0.459706
    34  O   -0.468018
 Sum of Mulliken charges =  -0.00000

 Dipole moment (field-independent basis, Debye):
    X=             -2.0026    Y=              3.9565    Z=              2.4945  Tot=              5.0880
 Quadrupole moment (field-independent basis, Debye-Ang):
   XX=            -81.0488   YY=            -97.8333   ZZ=            -95.3332
   XY=             -9.5347   XZ=             -5.1221   YZ=              0.0202

 Normal termination of Gaussian 16 at Thu May  6 04:02:54 2021.
