 Gaussian 16, Revision A.03,
 Gaussian 16:  EM64L-G16RevA.03 25-Dec-2016

 -------------
 #p 6-31g* mp2
 -------------

 ------------------------------------------------------
 Input file generated by CHIRIPA (05-May-2021 14:57:27)
 ------------------------------------------------------
 Symbolic Z-matrix:
 Charge =  0 Multiplicity = 1

                         Standard orientation:
 ---------------------------------------------------------------------
 Center     Atomic      Atomic             Coordinates (Angstroms)
 Number     Number       Type             X           Y           Z
 ---------------------------------------------------------------------
      1          6           0        2.978396   -1.592423    1.196937
      2          6           0        3.358727   -1.337098   -0.124682
      3          6           0        2.935075   -0.173278   -0.773211
      4          6           0        2.128204    0.717530   -0.067017
      5          6           0        1.732447    0.491346    1.250370
      6          6           0        2.167899   -0.678996    1.879043
      7          1           0        3.312082   -2.499040    1.693018
      8          1           0        3.988110   -2.044696   -0.656874
      9          1           0        3.214671    0.049271   -1.795814
     10          1           0        1.104418    1.215486    1.754966
     11          1           0        1.870973   -0.874676    2.905488
     12          7           0        1.673456    1.953067   -0.743075
     13          8           0        0.963133    2.722021   -0.099035
     14          8           0        2.035960    2.129131   -1.904208
     15          6           0       -1.022191   -2.438433   -1.170205
     16          6           0       -0.726875   -2.116866    0.158669
     17          6           0       -1.375055   -1.052614    0.792531
     18          6           0       -2.317322   -0.327842    0.064433
     19          6           0       -2.633321   -0.623659   -1.260682
     20          6           0       -1.972795   -1.692119   -1.874397
     21          1           0       -0.513874   -3.266804   -1.654778
     22          1           0        0.010929   -2.694724    0.708005
     23          1           0       -1.165639   -0.781989    1.820306
     24          1           0       -3.373521   -0.029300   -1.782467
     25          1           0       -2.204155   -1.939580   -2.906521
     26          7           0       -3.010056    0.801062    0.724809
     27          8           0       -3.836210    1.424120    0.061555
     28          8           0       -2.713750    1.041462    1.893162
 ---------------------------------------------------------------------

 SCF Done:  E(RHF) =  -868.335757209     A.U. after   16 cycles
 E2 =    -0.2604742264D+01 EUMP2 =    -0.87094049947314D+03

 The electronic state is 1-A.
 Alpha  occ. eigenvalues --  -20.60977 -20.60944 -20.60607 -20.60572 -15.86023
 Alpha  occ. eigenvalues --  -15.85650 -11.31609 -11.31111 -11.28267 -11.28186
 Alpha  occ. eigenvalues --  -11.28088 -11.27742 -11.27625 -11.27449 -11.27340
 Alpha  occ. eigenvalues --  -11.27299 -11.26729 -11.26696  -1.60036  -1.59650
 Alpha  occ. eigenvalues --   -1.39582  -1.39210  -1.19857  -1.19285  -1.09215
 Alpha  occ. eigenvalues --   -1.08664  -1.05317  -1.04693  -0.95998  -0.95490
 Alpha  occ. eigenvalues --   -0.86682  -0.86107  -0.82826  -0.82325  -0.77819
 Alpha  occ. eigenvalues --   -0.77357  -0.72236  -0.71873  -0.71373  -0.70989
 Alpha  occ. eigenvalues --   -0.70935  -0.70425  -0.65508  -0.65298  -0.64944
 Alpha  occ. eigenvalues --   -0.64730  -0.62636  -0.62076  -0.55809  -0.55244
 Alpha  occ. eigenvalues --   -0.54005  -0.53376  -0.52851  -0.52582  -0.49019
 Alpha  occ. eigenvalues --   -0.48974  -0.48637  -0.48614  -0.44941  -0.44593
 Alpha  occ. eigenvalues --   -0.37905  -0.37456  -0.37085  -0.35831
 Alpha virt. eigenvalues --    0.04605   0.05273   0.10414   0.11600   0.16041
 Alpha virt. eigenvalues --    0.16670   0.20223   0.21819   0.25770   0.27279
 Alpha virt. eigenvalues --    0.27954   0.28863   0.30362   0.31107   0.32079

 Mulliken charges:
               1
     1  C   -0.176883
     2  C   -0.220099
     3  C   -0.169608
     4  C    0.163050
     5  C   -0.171255
     6  C   -0.226865
     7  H    0.225085
     8  H    0.223148
     9  H    0.276557
    10  H    0.285372
    11  H    0.224472
    12  N    0.487186
    13  O   -0.453992
    14  O   -0.461111
    15  C   -0.173283
    16  C   -0.210234
    17  C   -0.172539
    18  C    0.160451
    19  C   -0.169577
    20  C   -0.217880
    21  H    0.222371
    22  H    0.217619
    23  H    0.266321
    24  H    0.277722
    25  H    0.223922
    26  N    0.490958
    27  O   -0.456199
    28  O   -0.464707
 Sum of Mulliken charges =  -0.00000

 Dipole moment (field-independent basis, Debye):
    X=              4.0095    Y=             -8.0236    Z=             -0.0715  Tot=              8.9700
 Quadrupole moment (field-independent basis, Debye-Ang):
   XX=           -107.7835   YY=           -109.4198   ZZ=            -99.0356
   XY=             -1.0346   XZ=             10.8844   YZ=              3.1611

 Normal termination of Gaussian 16 at Fri May  7 08:12:02 2021.
