 Gaussian 16, Revision A.03,
 Gaussian 16:  EM64L-G16RevA.03 25-Dec-2016

 -------------
 #p 6-31g* mp2
 -------------

 ------------------------------------------------------
 Input file generated by CHIRIPA (05-May-2021 14:53:13)
 ------------------------------------------------------
 Symbolic Z-matrix:
 Charge =  0 Multiplicity = 1

                         Standard orientation:
 ---------------------------------------------------------------------
 Center     Atomic      Atomic             Coordinates (Angstroms)
 Number     Number       Type             X           Y           Z
 ---------------------------------------------------------------------
      1          6           0       -2.721365   -0.036778   -0.284367
      2          6           0       -2.404653   -1.271880   -1.128288
      3          6           0       -3.369818   -2.428877   -0.868274
      4          1           0       -2.690771   -0.309678    0.779369
      5          1           0       -3.749825    0.288224   -0.494224
      6          1           0       -1.376626   -1.593632   -0.917928
      7          1           0       -2.435817   -0.995963   -2.190133
      8          1           0       -4.398383   -2.131216   -1.096420
      9          1           0       -3.333174   -2.732281    0.183013
     10          1           0       -3.125113   -3.301459   -1.481936
     11          6           0       -1.765165    1.128359   -0.533095
     12          6           0       -2.081877    2.363461    0.310826
     13          6           0       -1.116713    3.520458    0.050812
     14          1           0       -0.736706    0.803357   -0.323238
     15          1           0       -1.795760    1.401259   -1.596831
     16          1           0       -2.050714    2.087544    1.372671
     17          1           0       -3.109905    2.685213    0.100466
     18          1           0       -1.153356    3.823862   -1.000475
     19          1           0       -0.088147    3.222797    0.278958
     20          1           0       -1.361418    4.393040    0.664474
     21          6           0        3.208598    0.395503   -1.570209
     22          6           0        2.828392   -0.949393   -1.513485
     23          6           0        2.021853   -1.415865   -0.471156
     24          6           0        1.611786   -0.505858    0.501994
     25          6           0        1.973867    0.840008    0.473117
     26          6           0        2.780876    1.284344   -0.578477
     27          1           0        3.835319    0.749272   -2.383514
     28          1           0        3.159079   -1.641939   -2.282297
     29          1           0        1.712751   -2.451822   -0.402853
     30          1           0        1.628548    1.506561    1.254065
     31          1           0        3.074602    2.329356   -0.619973
     32          7           0        0.757691   -0.987972    1.610365
     33          8           0        0.409653   -0.166153    2.455420
     34          8           0        0.452460   -2.178546    1.613063
 ---------------------------------------------------------------------

 SCF Done:  E(RHF) =  -669.534685785     A.U. after   15 cycles
 E2 =    -0.2096524756D+01 EUMP2 =    -0.67163121054085D+03

 The electronic state is 1-A.
 Alpha  occ. eigenvalues --  -20.61036 -20.61028 -15.86033 -11.31300 -11.27891
 Alpha  occ. eigenvalues --  -11.27864 -11.27613 -11.26888 -11.26878 -11.21235
 Alpha  occ. eigenvalues --  -11.21100 -11.21094 -11.20951 -11.20780 -11.20473
 Alpha  occ. eigenvalues --   -1.60079  -1.39636  -1.19510  -1.08913  -1.07994
 Alpha  occ. eigenvalues --   -1.04896  -1.03142  -0.95757  -0.95616  -0.86639
 Alpha  occ. eigenvalues --   -0.86296  -0.82588  -0.79219  -0.77842  -0.77625
 Alpha  occ. eigenvalues --   -0.72264  -0.71446  -0.70611  -0.65157  -0.64909
 Alpha  occ. eigenvalues --   -0.64568  -0.62268  -0.60520  -0.58992  -0.57230
 Alpha  occ. eigenvalues --   -0.55393  -0.54939  -0.53295  -0.52974  -0.52318
 Alpha  occ. eigenvalues --   -0.52047  -0.49585  -0.49022  -0.49014  -0.47559
 Alpha  occ. eigenvalues --   -0.46275  -0.45343  -0.45255  -0.44935  -0.43377
 Alpha  occ. eigenvalues --   -0.37383  -0.36425
 Alpha virt. eigenvalues --    0.04808   0.11015   0.16274   0.20621   0.23184
 Alpha virt. eigenvalues --    0.24211   0.26355   0.26964   0.27848   0.28012
 Alpha virt. eigenvalues --    0.29139   0.31014   0.31043   0.31939   0.32459

 Mulliken charges:
               1
     1  C   -0.303757
     2  C   -0.299513
     3  C   -0.475939
     4  H    0.163012
     5  H    0.147398
     6  H    0.150032
     7  H    0.146500
     8  H    0.152347
     9  H    0.164343
    10  H    0.156517
    11  C   -0.302051
    12  C   -0.301883
    13  C   -0.474536
    14  H    0.150416
    15  H    0.145085
    16  H    0.164183
    17  H    0.151010
    18  H    0.153110
    19  H    0.143720
    20  H    0.160870
    21  C   -0.170597
    22  C   -0.217651
    23  C   -0.171697
    24  C    0.156940
    25  C   -0.174760
    26  C   -0.215279
    27  H    0.226458
    28  H    0.224282
    29  H    0.276224
    30  H    0.276897
    31  H    0.224917
    32  N    0.492331
    33  O   -0.459784
    34  O   -0.459146
 Sum of Mulliken charges =  -0.00000

 Dipole moment (field-independent basis, Debye):
    X=              3.0953    Y=              1.5862    Z=             -3.7371  Tot=              5.1052
 Quadrupole moment (field-independent basis, Debye-Ang):
   XX=            -85.5208   YY=            -93.3705   ZZ=            -98.0393
   XY=              0.4034   XZ=             -5.0998   YZ=              4.6593

 Normal termination of Gaussian 16 at Wed May  5 17:02:53 2021.
