 Gaussian 16, Revision A.03,
 Gaussian 16:  EM64L-G16RevA.03 25-Dec-2016

 -------------
 #p 6-31g* mp2
 -------------

 ------------------------------------------------------
 Input file generated by CHIRIPA (05-May-2021 14:53:15)
 ------------------------------------------------------
 Symbolic Z-matrix:
 Charge =  0 Multiplicity = 1

                         Standard orientation:
 ---------------------------------------------------------------------
 Center     Atomic      Atomic             Coordinates (Angstroms)
 Number     Number       Type             X           Y           Z
 ---------------------------------------------------------------------
      1          6           0       -3.770425    0.977542   -0.199963
      2          6           0       -2.737977    1.887417    0.466493
      3          6           0       -3.073342    3.371566    0.316081
      4          1           0       -3.840761    1.232800   -1.266191
      5          1           0       -4.759589    1.176808    0.235056
      6          1           0       -1.750821    1.685517    0.031319
      7          1           0       -2.669951    1.629834    1.531219
      8          1           0       -4.045827    3.594380    0.766889
      9          1           0       -3.121475    3.650379   -0.741533
     10          1           0       -2.322305    4.003889    0.799786
     11          6           0       -3.448962   -0.509160   -0.058165
     12          6           0       -4.481410   -1.419034   -0.724621
     13          6           0       -4.146044   -2.903184   -0.574208
     14          1           0       -2.459797   -0.708426   -0.493184
     15          1           0       -3.378625   -0.764418    1.008063
     16          1           0       -4.549435   -1.161452   -1.789346
     17          1           0       -5.468565   -1.217135   -0.289446
     18          1           0       -4.097911   -3.181997    0.483406
     19          1           0       -3.173559   -3.125998   -1.025016
     20          1           0       -4.897081   -3.535507   -1.057914
     21          6           0        4.987538    0.312302   -1.091953
     22          6           0        5.005954   -0.200718    0.209198
     23          6           0        3.811135   -0.478858    0.879716
     24          6           0        2.610531   -0.230842    0.216145
     25          6           0        2.559342    0.279814   -1.079965
     26          6           0        3.766443    0.550510   -1.731254
     27          1           0        5.920473    0.525476   -1.605359
     28          1           0        5.952791   -0.386702    0.708150
     29          1           0        3.796415   -0.876441    1.887252
     30          1           0        1.599893    0.454801   -1.551403
     31          1           0        3.749104    0.948883   -2.741720
     32          7           0        1.339127   -0.521356    0.915814
     33          8           0        0.294560   -0.294064    0.309306
     34          8           0        1.411244   -0.970852    2.057475
 ---------------------------------------------------------------------

 SCF Done:  E(RHF) =  -669.535818394     A.U. after   15 cycles
 E2 =    -0.2091764751D+01 EUMP2 =    -0.67162758314539D+03

 The electronic state is 1-A.
 Alpha  occ. eigenvalues --  -20.61000 -20.60988 -15.86027 -11.31337 -11.27905
 Alpha  occ. eigenvalues --  -11.27893 -11.27632 -11.26904 -11.26893 -11.20517
 Alpha  occ. eigenvalues --  -11.20239 -11.20176 -11.20137 -11.20103 -11.19847
 Alpha  occ. eigenvalues --   -1.60053  -1.39613  -1.19504  -1.08910  -1.07169
 Alpha  occ. eigenvalues --   -1.04900  -1.02407  -0.95755  -0.94878  -0.86301
 Alpha  occ. eigenvalues --   -0.85899  -0.82597  -0.78436  -0.77663  -0.76908
 Alpha  occ. eigenvalues --   -0.72250  -0.71363  -0.70614  -0.65165  -0.64902
 Alpha  occ. eigenvalues --   -0.63805  -0.62249  -0.59822  -0.58245  -0.56472
 Alpha  occ. eigenvalues --   -0.55403  -0.54185  -0.53231  -0.52992  -0.51622
 Alpha  occ. eigenvalues --   -0.51295  -0.49029  -0.49011  -0.48825  -0.46785
 Alpha  occ. eigenvalues --   -0.45537  -0.44928  -0.44484  -0.44300  -0.42616
 Alpha  occ. eigenvalues --   -0.37480  -0.36500
 Alpha virt. eigenvalues --    0.04855   0.11155   0.16332   0.21210   0.24014
 Alpha virt. eigenvalues --    0.25309   0.27047   0.27505   0.28159   0.28862
 Alpha virt. eigenvalues --    0.29254   0.30939   0.32132   0.32555   0.32782

 Mulliken charges:
               1
     1  C   -0.298224
     2  C   -0.301837
     3  C   -0.475322
     4  H    0.142528
     5  H    0.143986
     6  H    0.165706
     7  H    0.154207
     8  H    0.151994
     9  H    0.149661
    10  H    0.156222
    11  C   -0.301406
    12  C   -0.299110
    13  C   -0.474097
    14  H    0.167854
    15  H    0.152370
    16  H    0.146467
    17  H    0.147657
    18  H    0.156217
    19  H    0.155286
    20  H    0.154838
    21  C   -0.170568
    22  C   -0.218533
    23  C   -0.170486
    24  C    0.157351
    25  C   -0.170502
    26  C   -0.218436
    27  H    0.226175
    28  H    0.223991
    29  H    0.276002
    30  H    0.274829
    31  H    0.223963
    32  N    0.495358
    33  O   -0.465919
    34  O   -0.458222
 Sum of Mulliken charges =  -0.00000

 Dipole moment (field-independent basis, Debye):
    X=              4.8892    Y=              0.9045    Z=             -2.3592  Tot=              5.5035
 Quadrupole moment (field-independent basis, Debye-Ang):
   XX=            -71.7175   YY=            -97.7070   ZZ=            -92.1341
   XY=              1.1701   XZ=             -4.1079   YZ=             -0.8470

 Normal termination of Gaussian 16 at Thu May  6 12:10:01 2021.
