 Gaussian 16, Revision A.03,
 Gaussian 16:  EM64L-G16RevA.03 25-Dec-2016

 -------------
 #p 6-31g* mp2
 -------------

 ------------------------------------------------------
 Input file generated by CHIRIPA (05-May-2021 14:51:13)
 ------------------------------------------------------
 Symbolic Z-matrix:
 Charge =  0 Multiplicity = 1

                         Standard orientation:
 ---------------------------------------------------------------------
 Center     Atomic      Atomic             Coordinates (Angstroms)
 Number     Number       Type             X           Y           Z
 ---------------------------------------------------------------------
      1          6           0        1.878754    1.348579    0.500662
      2          6           0        0.886964    2.306699   -0.159901
      3          6           0       -0.017419    3.011374    0.851692
      4          1           0        1.323640    0.599894    1.082267
      5          1           0        2.495352    1.907463    1.218193
      6          1           0        0.273350    1.746440   -0.876981
      7          1           0        1.444496    3.053075   -0.740157
      8          1           0        0.578895    3.594717    1.560720
      9          1           0       -0.598905    2.280658    1.423118
     10          1           0       -0.718514    3.691474    0.357942
     11          6           0        2.789806    0.636540   -0.497692
     12          6           0        3.781597   -0.321580    0.162872
     13          6           0        4.685979   -1.026255   -0.848721
     14          1           0        2.173208    0.077656   -1.215222
     15          1           0        3.344920    1.385225   -1.079296
     16          1           0        3.224064   -1.067956    0.743127
     17          1           0        4.395211    0.238679    0.879952
     18          1           0        5.267466   -0.295539   -1.420147
     19          1           0        4.089665   -1.609598   -1.557750
     20          1           0        5.387075   -1.706355   -0.354971
     21          6           0       -1.592462   -1.147649   -0.096801
     22          6           0       -1.121073   -2.366857    0.696487
     23          6           0        0.365151   -2.664400    0.495481
     24          1           0       -1.391121   -1.312393   -1.164166
     25          1           0       -0.998723   -0.272623    0.201859
     26          1           0       -1.716459   -3.239033    0.397418
     27          1           0       -1.323734   -2.199272    1.762066
     28          1           0        0.974923   -1.811955    0.811891
     29          1           0        0.579968   -2.857623   -0.560511
     30          1           0        0.680835   -3.539776    1.071604
     31          6           0       -3.076099   -0.837470    0.093831
     32          6           0       -3.547487    0.381739   -0.699458
     33          6           0       -5.033711    0.679280   -0.498452
     34          1           0       -3.669838   -1.712496   -0.204829
     35          1           0       -3.277440   -0.672726    1.161195
     36          1           0       -3.344826    0.214153   -1.765038
     37          1           0       -2.952102    1.253915   -0.400389
     38          1           0       -5.248528    0.872504    0.557540
     39          1           0       -5.643483   -0.173165   -0.814862
     40          1           0       -5.349396    1.554658   -1.074575
 ---------------------------------------------------------------------

 SCF Done:  E(RHF) =  -470.732240079     A.U. after   11 cycles
 E2 =    -0.1585825655D+01 EUMP2 =    -0.47231806573435D+03

 The electronic state is 1-A.
 Alpha  occ. eigenvalues --  -11.21668 -11.21618 -11.21603 -11.21534 -11.21453
 Alpha  occ. eigenvalues --  -11.21408 -11.21393 -11.21327 -11.21136 -11.21124
 Alpha  occ. eigenvalues --  -11.21083 -11.21021  -1.08531  -1.08389  -1.03583
 Alpha  occ. eigenvalues --   -1.03523  -0.96044  -0.95972  -0.87083  -0.86968
 Alpha  occ. eigenvalues --   -0.79673  -0.79569  -0.78324  -0.78235  -0.65489
 Alpha  occ. eigenvalues --   -0.64763  -0.61022  -0.60919  -0.59404  -0.59344
 Alpha  occ. eigenvalues --   -0.57645  -0.57576  -0.55431  -0.55165  -0.52727
 Alpha  occ. eigenvalues --   -0.52679  -0.52452  -0.52406  -0.50097  -0.49822
 Alpha  occ. eigenvalues --   -0.48007  -0.47891  -0.46834  -0.46598  -0.46108
 Alpha  occ. eigenvalues --   -0.45843  -0.45611  -0.45216  -0.43830  -0.43777
 Alpha virt. eigenvalues --    0.19506   0.21856   0.23861   0.24488   0.25738
 Alpha virt. eigenvalues --    0.26068   0.27068   0.27955   0.28339   0.30454
 Alpha virt. eigenvalues --    0.30741   0.31411   0.31674   0.31774   0.32105

 Mulliken charges:
               1
     1  C   -0.303460
     2  C   -0.303252
     3  C   -0.477414
     4  H    0.151755
     5  H    0.150032
     6  H    0.155339
     7  H    0.152936
     8  H    0.155646
     9  H    0.154879
    10  H    0.160714
    11  C   -0.299441
    12  C   -0.304153
    13  C   -0.475376
    14  H    0.151471
    15  H    0.150018
    16  H    0.156845
    17  H    0.151446
    18  H    0.154777
    19  H    0.155469
    20  H    0.160117
    21  C   -0.308103
    22  C   -0.299072
    23  C   -0.484834
    24  H    0.149228
    25  H    0.159410
    26  H    0.152390
    27  H    0.151717
    28  H    0.164049
    29  H    0.155047
    30  H    0.160726
    31  C   -0.297590
    32  C   -0.302829
    33  C   -0.475634
    34  H    0.149805
    35  H    0.149462
    36  H    0.151700
    37  H    0.155280
    38  H    0.155332
    39  H    0.155189
    40  H    0.160379
 Sum of Mulliken charges =  -0.00000

 Dipole moment (field-independent basis, Debye):
    X=             -0.0057    Y=             -0.0007    Z=             -0.0058  Tot=              0.0081
 Quadrupole moment (field-independent basis, Debye-Ang):
   XX=            -85.9682   YY=            -84.2972   ZZ=            -84.5168
   XY=              1.4012   XZ=              0.7170   YZ=              0.1488

 Normal termination of Gaussian 16 at Wed May  5 16:53:00 2021.
