 Gaussian 16, Revision A.03,
 Gaussian 16:  EM64L-G16RevA.03 25-Dec-2016

 -------------
 #p 6-31g* mp2
 -------------

 ------------------------------------------------------
 Input file generated by CHIRIPA (05-May-2021 14:53:14)
 ------------------------------------------------------
 Symbolic Z-matrix:
 Charge =  0 Multiplicity = 1

                         Standard orientation:
 ---------------------------------------------------------------------
 Center     Atomic      Atomic             Coordinates (Angstroms)
 Number     Number       Type             X           Y           Z
 ---------------------------------------------------------------------
      1          6           0        3.283549    0.575869    0.318253
      2          6           0        2.944430    2.064875    0.241810
      3          6           0        1.712104    2.433695    1.068332
      4          1           0        2.419976   -0.008582   -0.027586
      5          1           0        3.448672    0.297994    1.368450
      6          1           0        2.781354    2.340160   -0.808066
      7          1           0        3.808979    2.645855    0.587690
      8          1           0        1.868016    2.187001    2.123525
      9          1           0        0.834552    1.879569    0.719838
     10          1           0        1.487709    3.502693    0.999413
     11          6           0        4.513125    0.191644   -0.502870
     12          6           0        4.852244   -1.297362   -0.426428
     13          6           0        6.084570   -1.666182   -1.252949
     14          1           0        4.348002    0.469519   -1.553068
     15          1           0        5.376698    0.776095   -0.157031
     16          1           0        3.987695   -1.878342   -0.772308
     17          1           0        5.015320   -1.572647    0.623449
     18          1           0        6.962122   -1.112056   -0.904456
     19          1           0        5.928658   -1.419488   -2.308143
     20          1           0        6.308965   -2.735180   -1.184031
     21          6           0       -4.773339    0.669329   -1.490423
     22          6           0       -4.892184   -0.652456   -1.048515
     23          6           0       -3.940783   -1.199874   -0.182653
     24          6           0       -2.878542   -0.393503    0.223177
     25          6           0       -2.732542    0.926808   -0.199616
     26          6           0       -3.695796    1.453360   -1.065312
     27          1           0       -5.517013    1.086472   -2.162982
     28          1           0       -5.727968   -1.263677   -1.377024
     29          1           0       -4.008443   -2.220170    0.174891
     30          1           0       -1.888337    1.511523    0.145126
     31          1           0       -3.600948    2.480189   -1.406885
     32          7           0       -1.865062   -0.961985    1.139739
     33          8           0       -0.938557   -0.230818    1.482696
     34          8           0       -2.016392   -2.127964    1.497828
 ---------------------------------------------------------------------

 SCF Done:  E(RHF) =  -669.535847372     A.U. after   15 cycles
 E2 =    -0.2091290268D+01 EUMP2 =    -0.67162713764000D+03

 The electronic state is 1-A.
 Alpha  occ. eigenvalues --  -20.60888 -20.60881 -15.85924 -11.31264 -11.27830
 Alpha  occ. eigenvalues --  -11.27826 -11.27570 -11.26842 -11.26832 -11.21009
 Alpha  occ. eigenvalues --  -11.20956 -11.20770 -11.20607 -11.20549 -11.20270
 Alpha  occ. eigenvalues --   -1.59954  -1.39510  -1.19436  -1.08836  -1.07759
 Alpha  occ. eigenvalues --   -1.04834  -1.02894  -0.95679  -0.95331  -0.86352
 Alpha  occ. eigenvalues --   -0.86234  -0.82509  -0.78962  -0.77609  -0.77487
 Alpha  occ. eigenvalues --   -0.72148  -0.71270  -0.70545  -0.65092  -0.64840
 Alpha  occ. eigenvalues --   -0.64396  -0.62188  -0.60298  -0.58712  -0.56933
 Alpha  occ. eigenvalues --   -0.55339  -0.54620  -0.53166  -0.52928  -0.52069
 Alpha  occ. eigenvalues --   -0.51731  -0.49321  -0.48902  -0.48849  -0.47248
 Alpha  occ. eigenvalues --   -0.45996  -0.45130  -0.45049  -0.44815  -0.43147
 Alpha  occ. eigenvalues --   -0.37416  -0.36437
 Alpha virt. eigenvalues --    0.04955   0.11211   0.16445   0.20919   0.23446
 Alpha virt. eigenvalues --    0.24459   0.26151   0.27444   0.27659   0.28308
 Alpha virt. eigenvalues --    0.29222   0.30413   0.31556   0.32287   0.32441

 Mulliken charges:
               1
     1  C   -0.297961
     2  C   -0.299428
     3  C   -0.482769
     4  H    0.156408
     5  H    0.152985
     6  H    0.145860
     7  H    0.149086
     8  H    0.160699
     9  H    0.168292
    10  H    0.150432
    11  C   -0.298128
    12  C   -0.299234
    13  C   -0.475345
    14  H    0.146070
    15  H    0.147409
    16  H    0.153285
    17  H    0.153418
    18  H    0.153971
    19  H    0.153255
    20  H    0.159448
    21  C   -0.170406
    22  C   -0.218747
    23  C   -0.170547
    24  C    0.156646
    25  C   -0.172500
    26  C   -0.220109
    27  H    0.225902
    28  H    0.223706
    29  H    0.275750
    30  H    0.280933
    31  H    0.224239
    32  N    0.491050
    33  O   -0.464206
    34  O   -0.459463
 Sum of Mulliken charges =  -0.00000

 Dipole moment (field-independent basis, Debye):
    X=             -3.7545    Y=              1.8722    Z=             -3.1329  Tot=              5.2361
 Quadrupole moment (field-independent basis, Debye-Ang):
   XX=            -74.4703   YY=            -93.4191   ZZ=            -96.6180
   XY=             -1.7584   XZ=             10.0877   YZ=              1.5099

 Normal termination of Gaussian 16 at Wed May  5 23:27:25 2021.
