 Gaussian 16, Revision A.03,
 Gaussian 16:  EM64L-G16RevA.03 25-Dec-2016

 -------------
 #p 6-31g* mp2
 -------------

 ------------------------------------------------------
 Input file generated by CHIRIPA (05-May-2021 14:57:22)
 ------------------------------------------------------
 Symbolic Z-matrix:
 Charge =  0 Multiplicity = 1

                         Standard orientation:
 ---------------------------------------------------------------------
 Center     Atomic      Atomic             Coordinates (Angstroms)
 Number     Number       Type             X           Y           Z
 ---------------------------------------------------------------------
      1          6           0        1.472660   -2.445516    0.505738
      2          6           0        2.458215   -1.910431    1.341732
      3          6           0        3.130320   -0.737163    0.986392
      4          6           0        2.790135   -0.122286   -0.217555
      5          6           0        1.812877   -0.630821   -1.071750
      6          6           0        1.153699   -1.805132   -0.696216
      7          1           0        0.955574   -3.357344    0.789618
      8          1           0        2.707996   -2.405620    2.275778
      9          1           0        3.897428   -0.301226    1.614821
     10          1           0        1.585709   -0.114628   -1.996606
     11          1           0        0.388737   -2.218413   -1.347428
     12          7           0        3.494819    1.120352   -0.604427
     13          8           0        3.176689    1.643010   -1.670382
     14          8           0        4.351938    1.548145    0.165623
     15          6           0       -1.995587    2.638436    0.904365
     16          6           0       -1.264514    1.522884    1.325790
     17          6           0       -1.631301    0.237501    0.916149
     18          6           0       -2.739581    0.103635    0.081232
     19          6           0       -3.488097    1.195488   -0.355655
     20          6           0       -3.103092    2.471472    0.066465
     21          1           0       -1.703583    3.633302    1.227431
     22          1           0       -0.403965    1.649546    1.976523
     23          1           0       -1.083093   -0.643415    1.227393
     24          1           0       -4.341215    1.037567   -1.004243
     25          1           0       -3.672714    3.336011   -0.262392
     26          7           0       -3.137524   -1.252167   -0.359041
     27          8           0       -4.117904   -1.343375   -1.094685
     28          8           0       -2.461516   -2.197965    0.039852
 ---------------------------------------------------------------------

 SCF Done:  E(RHF) =  -868.340227199     A.U. after   16 cycles
 E2 =    -0.2601030587D+01 EUMP2 =    -0.87094125778560D+03

 The electronic state is 1-A.
 Alpha  occ. eigenvalues --  -20.61447 -20.61385 -20.61018 -20.61005 -15.86446
 Alpha  occ. eigenvalues --  -15.86061 -11.31469 -11.31354 -11.28022 -11.27976
 Alpha  occ. eigenvalues --  -11.27921 -11.27814 -11.27677 -11.27464 -11.26940
 Alpha  occ. eigenvalues --  -11.26915 -11.26904 -11.26684  -1.60487  -1.60095
 Alpha  occ. eigenvalues --   -1.40052  -1.39648  -1.19627  -1.19495  -1.09074
 Alpha  occ. eigenvalues --   -1.08877  -1.04981  -1.04850  -0.95965  -0.95723
 Alpha  occ. eigenvalues --   -0.86391  -0.86220  -0.82812  -0.82546  -0.77909
 Alpha  occ. eigenvalues --   -0.77625  -0.72683  -0.72271  -0.71805  -0.71427
 Alpha  occ. eigenvalues --   -0.70716  -0.70494  -0.65278  -0.65105  -0.64969
 Alpha  occ. eigenvalues --   -0.64770  -0.62339  -0.62171  -0.55481  -0.55247
 Alpha  occ. eigenvalues --   -0.53518  -0.53204  -0.52890  -0.52872  -0.49448
 Alpha  occ. eigenvalues --   -0.49391  -0.49038  -0.49022  -0.45524  -0.45070
 Alpha  occ. eigenvalues --   -0.37621  -0.37425  -0.36853  -0.36158
 Alpha virt. eigenvalues --    0.04560   0.04866   0.10841   0.11403   0.16133
 Alpha virt. eigenvalues --    0.16354   0.21236   0.21657   0.27139   0.27431
 Alpha virt. eigenvalues --    0.28005   0.28622   0.30932   0.31244   0.32290

 Mulliken charges:
               1
     1  C   -0.178205
     2  C   -0.222052
     3  C   -0.175802
     4  C    0.156253
     5  C   -0.172605
     6  C   -0.220463
     7  H    0.236878
     8  H    0.224117
     9  H    0.274334
    10  H    0.276319
    11  H    0.238539
    12  N    0.487606
    13  O   -0.459839
    14  O   -0.462034
    15  C   -0.168297
    16  C   -0.220705
    17  C   -0.169952
    18  C    0.153559
    19  C   -0.170610
    20  C   -0.218917
    21  H    0.229345
    22  H    0.226011
    23  H    0.275544
    24  H    0.275423
    25  H    0.225163
    26  N    0.488144
    27  O   -0.456772
    28  O   -0.470982
 Sum of Mulliken charges =  -0.00000

 Dipole moment (field-independent basis, Debye):
    X=             -1.1868    Y=              0.3937    Z=              2.8338  Tot=              3.0974
 Quadrupole moment (field-independent basis, Debye-Ang):
   XX=           -123.3447   YY=           -102.3723   ZZ=           -101.0293
   XY=            -27.3729   XZ=              5.0327   YZ=              0.1945

 Normal termination of Gaussian 16 at Thu May  6 04:57:23 2021.
