 Gaussian 16, Revision A.03,
 Gaussian 16:  EM64L-G16RevA.03 25-Dec-2016

 -------------
 #p 6-31g* mp2
 -------------

 ------------------------------------------------------
 Input file generated by CHIRIPA (05-May-2021 14:53:12)
 ------------------------------------------------------
 Symbolic Z-matrix:
 Charge =  0 Multiplicity = 1

                         Standard orientation:
 ---------------------------------------------------------------------
 Center     Atomic      Atomic             Coordinates (Angstroms)
 Number     Number       Type             X           Y           Z
 ---------------------------------------------------------------------
      1          6           0       -2.348307    0.109828   -0.439532
      2          6           0       -3.414441   -0.202331    0.611135
      3          6           0       -3.981112   -1.616024    0.476416
      4          1           0       -2.780739   -0.019493   -1.441142
      5          1           0       -1.533578   -0.622482   -0.353891
      6          1           0       -4.226263    0.531185    0.524448
      7          1           0       -2.979475   -0.072066    1.610361
      8          1           0       -3.186590   -2.361453    0.584453
      9          1           0       -4.440462   -1.754774   -0.507630
     10          1           0       -4.741494   -1.817942    1.237276
     11          6           0       -1.772255    1.519467   -0.317834
     12          6           0       -0.706122    1.831626   -1.368501
     13          6           0       -0.139450    3.245319   -1.233782
     14          1           0       -2.586984    2.251777   -0.403475
     15          1           0       -1.339823    1.648788    0.683776
     16          1           0       -1.141088    1.701361   -2.367727
     17          1           0        0.105701    1.098109   -1.281814
     18          1           0        0.319900    3.384068   -0.249736
     19          1           0       -0.933972    3.990748   -1.341818
     20          1           0        0.620932    3.447237   -1.994642
     21          6           0        1.928823    1.433521    1.702709
     22          6           0        1.004832    0.458213    2.091987
     23          6           0        0.819674   -0.692697    1.320190
     24          6           0        1.578733   -0.836559    0.159836
     25          6           0        2.507080    0.117289   -0.254453
     26          6           0        2.675680    1.260252    0.532794
     27          1           0        2.066226    2.324489    2.308261
     28          1           0        0.423429    0.590116    3.000072
     29          1           0        0.111192   -1.463519    1.598225
     30          1           0        3.072085   -0.042236   -1.164804
     31          1           0        3.393981    2.016036    0.228030
     32          7           0        1.391479   -2.050770   -0.665409
     33          8           0        2.072507   -2.153842   -1.683355
     34          8           0        0.567226   -2.876405   -0.278664
 ---------------------------------------------------------------------

 SCF Done:  E(RHF) =  -669.532776628     A.U. after   15 cycles
 E2 =    -0.2099476242D+01 EUMP2 =    -0.67163225287004D+03

 The electronic state is 1-A.
 Alpha  occ. eigenvalues --  -20.61007 -20.60992 -15.86021 -11.31360 -11.27964
 Alpha  occ. eigenvalues --  -11.27928 -11.27719 -11.26994 -11.26967 -11.21605
 Alpha  occ. eigenvalues --  -11.21438 -11.21275 -11.21205 -11.21176 -11.20853
 Alpha  occ. eigenvalues --   -1.60055  -1.39611  -1.19611  -1.08984  -1.08355
 Alpha  occ. eigenvalues --   -1.05002  -1.03476  -0.95938  -0.95799  -0.86962
 Alpha  occ. eigenvalues --   -0.86373  -0.82638  -0.79557  -0.78181  -0.77682
 Alpha  occ. eigenvalues --   -0.72248  -0.71393  -0.70693  -0.65238  -0.65128
 Alpha  occ. eigenvalues --   -0.64964  -0.62332  -0.60971  -0.59305  -0.57538
 Alpha  occ. eigenvalues --   -0.55496  -0.55246  -0.53243  -0.53070  -0.52622
 Alpha  occ. eigenvalues --   -0.52342  -0.49869  -0.49018  -0.49004  -0.47834
 Alpha  occ. eigenvalues --   -0.46670  -0.45772  -0.45663  -0.44875  -0.43713
 Alpha  occ. eigenvalues --   -0.37421  -0.36466
 Alpha virt. eigenvalues --    0.04788   0.10888   0.16190   0.20362   0.23199
 Alpha virt. eigenvalues --    0.23790   0.26243   0.26783   0.27848   0.28150
 Alpha virt. eigenvalues --    0.28485   0.30574   0.31353   0.31756   0.32068

 Mulliken charges:
               1
     1  C   -0.304751
     2  C   -0.298527
     3  C   -0.477783
     4  H    0.153050
     5  H    0.153827
     6  H    0.151883
     7  H    0.141072
     8  H    0.162737
     9  H    0.157810
    10  H    0.157784
    11  C   -0.298570
    12  C   -0.303889
    13  C   -0.474743
    14  H    0.147334
    15  H    0.145946
    16  H    0.153380
    17  H    0.158244
    18  H    0.148827
    19  H    0.154451
    20  H    0.156556
    21  C   -0.171771
    22  C   -0.217862
    23  C   -0.171881
    24  C    0.162748
    25  C   -0.177761
    26  C   -0.210429
    27  H    0.227299
    28  H    0.225227
    29  H    0.277122
    30  H    0.276482
    31  H    0.225426
    32  N    0.489327
    33  O   -0.458235
    34  O   -0.460328
 Sum of Mulliken charges =  -0.00000

 Dipole moment (field-independent basis, Debye):
    X=              0.8483    Y=              4.0955    Z=              2.9002  Tot=              5.0896
 Quadrupole moment (field-independent basis, Debye-Ang):
   XX=            -90.3831   YY=           -103.2157   ZZ=            -91.7516
   XY=              7.1631   XZ=              2.9389   YZ=             -2.8886

 Normal termination of Gaussian 16 at Wed May  5 21:47:06 2021.
