 Gaussian 16, Revision A.03,
 Gaussian 16:  EM64L-G16RevA.03 25-Dec-2016

 -------------
 #p 6-31g* mp2
 -------------

 ------------------------------------------------------
 Input file generated by CHIRIPA (05-May-2021 14:51:12)
 ------------------------------------------------------
 Symbolic Z-matrix:
 Charge =  0 Multiplicity = 1

                         Standard orientation:
 ---------------------------------------------------------------------
 Center     Atomic      Atomic             Coordinates (Angstroms)
 Number     Number       Type             X           Y           Z
 ---------------------------------------------------------------------
      1          6           0        4.335141   -0.289492    0.036898
      2          6           0        4.348752   -1.816025    0.123473
      3          6           0        5.735380   -2.377912    0.438654
      4          1           0        5.047437    0.034038   -0.734405
      5          1           0        4.693424    0.127963    0.988086
      6          1           0        3.989239   -2.230460   -0.827111
      7          1           0        3.636200   -2.135967    0.894526
      8          1           0        6.098685   -1.992232    1.396705
      9          1           0        6.453729   -2.087262   -0.334714
     10          1           0        5.722184   -3.470800    0.495932
     11          6           0        2.955911    0.287186   -0.277578
     12          6           0        2.942300    1.813719   -0.364153
     13          6           0        1.555671    2.375606   -0.679334
     14          1           0        2.597627   -0.130269   -1.228766
     15          1           0        2.243615   -0.036344    0.493725
     16          1           0        3.654852    2.133661   -1.135206
     17          1           0        3.301813    2.228154    0.586431
     18          1           0        0.837322    2.084956    0.094034
     19          1           0        1.192367    1.989926   -1.637386
     20          1           0        1.568868    3.468494   -0.736612
     21          6           0       -3.424264    0.583975    0.561695
     22          6           0       -2.380415    1.483866   -0.100545
     23          6           0       -1.947740    2.645314    0.794789
     24          1           0       -4.301670    1.187738    0.831086
     25          1           0       -3.014991    0.190269    1.502379
     26          1           0       -2.791020    1.874654   -1.040388
     27          1           0       -1.505469    0.877854   -0.368564
     28          1           0       -1.513477    2.271530    1.727689
     29          1           0       -2.806332    3.273994    1.052048
     30          1           0       -1.201224    3.275787    0.301759
     31          6           0       -3.866788   -0.581669   -0.321015
     32          6           0       -4.910637   -1.481560    0.341225
     33          6           0       -5.343312   -2.643008   -0.554109
     34          1           0       -4.276061   -0.187963   -1.261699
     35          1           0       -2.989381   -1.185432   -0.590406
     36          1           0       -5.785583   -0.875548    0.609244
     37          1           0       -4.500031   -1.872348    1.281068
     38          1           0       -4.484719   -3.271688   -0.811368
     39          1           0       -5.777574   -2.269224   -1.487008
     40          1           0       -6.089828   -3.273481   -0.061079
 ---------------------------------------------------------------------

 SCF Done:  E(RHF) =  -470.732493530     A.U. after   11 cycles
 E2 =    -0.1583089776D+01 EUMP2 =    -0.47231558330521D+03

 The electronic state is 1-A.
 Alpha  occ. eigenvalues --  -11.21618 -11.21589 -11.21580 -11.21526 -11.21421
 Alpha  occ. eigenvalues --  -11.21369 -11.21362 -11.21309 -11.21084 -11.21055
 Alpha  occ. eigenvalues --  -11.21005 -11.20967  -1.08444  -1.08388  -1.03570
 Alpha  occ. eigenvalues --   -1.03456  -0.96062  -0.95871  -0.87084  -0.86884
 Alpha  occ. eigenvalues --   -0.79607  -0.79548  -0.78266  -0.78193  -0.65102
 Alpha  occ. eigenvalues --   -0.65004  -0.61074  -0.60801  -0.59387  -0.59305
 Alpha  occ. eigenvalues --   -0.57733  -0.57433  -0.55424  -0.55080  -0.52867
 Alpha  occ. eigenvalues --   -0.52561  -0.52446  -0.52174  -0.49998  -0.49769
 Alpha  occ. eigenvalues --   -0.47904  -0.47862  -0.46611  -0.46582  -0.45837
 Alpha  occ. eigenvalues --   -0.45723  -0.45719  -0.45627  -0.43852  -0.43665
 Alpha virt. eigenvalues --    0.21885   0.23071   0.23551   0.24930   0.26483
 Alpha virt. eigenvalues --    0.26653   0.27064   0.27391   0.27696   0.29189
 Alpha virt. eigenvalues --    0.29836   0.31399   0.31537   0.31753   0.32312

 Mulliken charges:
               1
     1  C   -0.298228
     2  C   -0.299642
     3  C   -0.475711
     4  H    0.149813
     5  H    0.149592
     6  H    0.151911
     7  H    0.151746
     8  H    0.155218
     9  H    0.155252
    10  H    0.160262
    11  C   -0.298429
    12  C   -0.300009
    13  C   -0.482173
    14  H    0.149416
    15  H    0.149001
    16  H    0.151646
    17  H    0.151841
    18  H    0.165370
    19  H    0.155351
    20  H    0.159095
    21  C   -0.297906
    22  C   -0.301962
    23  C   -0.481369
    24  H    0.149545
    25  H    0.148970
    26  H    0.151853
    27  H    0.154488
    28  H    0.153011
    29  H    0.155364
    30  H    0.166971
    31  C   -0.298265
    32  C   -0.299588
    33  C   -0.475687
    34  H    0.149469
    35  H    0.149638
    36  H    0.151903
    37  H    0.151791
    38  H    0.155146
    39  H    0.155147
    40  H    0.160158
 Sum of Mulliken charges =  -0.00000

 Dipole moment (field-independent basis, Debye):
    X=              0.0153    Y=              0.0175    Z=             -0.0105  Tot=              0.0255
 Quadrupole moment (field-independent basis, Debye-Ang):
   XX=            -85.3911   YY=            -85.5359   ZZ=            -83.9884
   XY=             -0.3139   XZ=             -0.2755   YZ=             -0.5338

 Normal termination of Gaussian 16 at Thu May  6 05:30:52 2021.
