 Gaussian 16, Revision A.03,
 Gaussian 16:  EM64L-G16RevA.03 25-Dec-2016

 -------------
 #p 6-31g* mp2
 -------------

 ------------------------------------------------------
 Input file generated by CHIRIPA (05-May-2021 14:55:20)
 ------------------------------------------------------
 Symbolic Z-matrix:
 Charge =  0 Multiplicity = 1

                         Standard orientation:
 ---------------------------------------------------------------------
 Center     Atomic      Atomic             Coordinates (Angstroms)
 Number     Number       Type             X           Y           Z
 ---------------------------------------------------------------------
      1          6           0       -4.867449   -0.071266   -1.327768
      2          6           0       -4.211939   -1.300681   -1.203811
      3          6           0       -3.116908   -1.438099   -0.345573
      4          6           0       -2.702215   -0.320375    0.376931
      5          6           0       -3.334535    0.917808    0.275118
      6          6           0       -4.427430    1.032110   -0.589210
      7          1           0       -5.717265    0.026506   -1.996833
      8          1           0       -4.551470   -2.159279   -1.776150
      9          1           0       -2.591098   -2.378149   -0.230473
     10          1           0       -2.972967    1.755765    0.858654
     11          1           0       -4.934585    1.988119   -0.683471
     12          7           0       -1.544086   -0.453618    1.288733
     13          8           0       -1.198248    0.546242    1.914285
     14          8           0       -1.004110   -1.555389    1.360586
     15          6           0        4.096453   -0.269747   -0.353453
     16          6           0        5.609955   -0.076802   -0.253115
     17          6           0        6.383066   -1.389651   -0.381657
     18          1           0        3.769486   -0.967638    0.429481
     19          1           0        3.857315   -0.744519   -1.315118
     20          1           0        5.846045    0.398726    0.707485
     21          1           0        5.933329    0.620860   -1.036258
     22          1           0        6.176709   -1.865422   -1.345846
     23          1           0        6.088929   -2.088818    0.407804
     24          1           0        7.463038   -1.228538   -0.307075
     25          6           0        3.309855    1.033690   -0.226785
     26          6           0        1.796353    0.840745   -0.327123
     27          6           0        1.023243    2.153593   -0.198581
     28          1           0        3.548992    1.508462    0.734880
     29          1           0        3.636822    1.731580   -1.009718
     30          1           0        1.472979    0.143083    0.456020
     31          1           0        1.560263    0.365216   -1.287723
     32          1           0        1.317379    2.852760   -0.988042
     33          1           0        1.229598    2.629365    0.765609
     34          1           0       -0.056729    1.992480   -0.273163
 ---------------------------------------------------------------------

 SCF Done:  E(RHF) =  -669.536163079     A.U. after   15 cycles
 E2 =    -0.2092718210D+01 EUMP2 =    -0.67162888128928D+03

 The electronic state is 1-A.
 Alpha  occ. eigenvalues --  -20.60978 -20.60967 -15.85974 -11.31308 -11.27862
 Alpha  occ. eigenvalues --  -11.27856 -11.27597 -11.26868 -11.26858 -11.20956
 Alpha  occ. eigenvalues --  -11.20587 -11.20517 -11.20515 -11.20458 -11.20066
 Alpha  occ. eigenvalues --   -1.60021  -1.39577  -1.19469  -1.08874  -1.07588
 Alpha  occ. eigenvalues --   -1.04862  -1.02695  -0.95719  -0.95165  -0.86265
 Alpha  occ. eigenvalues --   -0.86188  -0.82549  -0.78775  -0.77605  -0.77389
 Alpha  occ. eigenvalues --   -0.72203  -0.71355  -0.70574  -0.65124  -0.64864
 Alpha  occ. eigenvalues --   -0.64205  -0.62210  -0.60067  -0.58550  -0.56779
 Alpha  occ. eigenvalues --   -0.55366  -0.54443  -0.53190  -0.52953  -0.51894
 Alpha  occ. eigenvalues --   -0.51606  -0.49121  -0.48983  -0.48959  -0.47106
 Alpha  occ. eigenvalues --   -0.45782  -0.45015  -0.44869  -0.44780  -0.42939
 Alpha  occ. eigenvalues --   -0.37441  -0.36458
 Alpha virt. eigenvalues --    0.04875   0.11115   0.16355   0.21285   0.23721
 Alpha virt. eigenvalues --    0.24993   0.27126   0.27497   0.27880   0.28419
 Alpha virt. eigenvalues --    0.28793   0.30662   0.31647   0.32229   0.32590

 Mulliken charges:
               1
     1  C   -0.170490
     2  C   -0.218495
     3  C   -0.170643
     4  C    0.159557
     5  C   -0.172151
     6  C   -0.218598
     7  H    0.226105
     8  H    0.223933
     9  H    0.276002
    10  H    0.276745
    11  H    0.224137
    12  N    0.488745
    13  O   -0.457453
    14  O   -0.459858
    15  C   -0.298635
    16  C   -0.299127
    17  C   -0.475325
    18  H    0.155056
    19  H    0.146511
    20  H    0.151925
    21  H    0.149512
    22  H    0.153528
    23  H    0.156165
    24  H    0.158053
    25  C   -0.297484
    26  C   -0.309370
    27  C   -0.468284
    28  H    0.150663
    29  H    0.144848
    30  H    0.173301
    31  H    0.143754
    32  H    0.145122
    33  H    0.160163
    34  H    0.152088
 Sum of Mulliken charges =  -0.00000

 Dipole moment (field-independent basis, Debye):
    X=             -4.3091    Y=              0.3590    Z=             -3.0148  Tot=              5.2713
 Quadrupole moment (field-independent basis, Debye-Ang):
   XX=            -74.2983   YY=            -91.4582   ZZ=            -96.6523
   XY=              0.0045   XZ=              7.7281   YZ=              2.6910

 Normal termination of Gaussian 16 at Thu May  6 09:16:57 2021.
