 Gaussian 16, Revision A.03,
 Gaussian 16:  EM64L-G16RevA.03 25-Dec-2016

 -------------
 #p 6-31g* mp2
 -------------

 ------------------------------------------------------
 Input file generated by CHIRIPA (05-May-2021 14:57:22)
 ------------------------------------------------------
 Symbolic Z-matrix:
 Charge =  0 Multiplicity = 1

                         Standard orientation:
 ---------------------------------------------------------------------
 Center     Atomic      Atomic             Coordinates (Angstroms)
 Number     Number       Type             X           Y           Z
 ---------------------------------------------------------------------
      1          6           0       -1.814608    2.699516   -0.027213
      2          6           0       -1.844101    1.890106   -1.167610
      3          6           0       -2.436722    0.624592   -1.124935
      4          6           0       -2.992826    0.198204    0.080151
      5          6           0       -2.979194    0.981341    1.233321
      6          6           0       -2.381250    2.243355    1.167507
      7          1           0       -1.352178    3.681239   -0.069351
      8          1           0       -1.404821    2.241769   -2.096810
      9          1           0       -2.473454   -0.022584   -1.992824
     10          1           0       -3.425331    0.603404    2.145211
     11          1           0       -2.359803    2.869799    2.054723
     12          7           0       -3.623025   -1.139687    0.137577
     13          8           0       -4.105995   -1.492217    1.211402
     14          8           0       -3.622073   -1.810462   -0.892324
     15          6           0        0.947799   -1.972815   -0.497951
     16          6           0        2.021798   -2.395144    0.292419
     17          6           0        3.102672   -1.542493    0.535817
     18          6           0        3.076625   -0.268459   -0.029380
     19          6           0        2.021171    0.181424   -0.821157
     20          6           0        0.950908   -0.688143   -1.051242
     21          1           0        0.112271   -2.641745   -0.681857
     22          1           0        2.022079   -3.392290    0.723401
     23          1           0        3.947006   -1.843767    1.143890
     24          1           0        2.049294    1.181194   -1.237196
     25          1           0        0.118177   -0.357464   -1.665452
     26          7           0        4.215282    0.643160    0.221247
     27          8           0        4.168355    1.760718   -0.288162
     28          8           0        5.133128    0.222865    0.922352
 ---------------------------------------------------------------------

 SCF Done:  E(RHF) =  -868.337183025     A.U. after   16 cycles
 E2 =    -0.2601870528D+01 EUMP2 =    -0.87093905355250D+03

 The electronic state is 1-A.
 Alpha  occ. eigenvalues --  -20.61688 -20.61649 -20.60934 -20.60915 -15.86718
 Alpha  occ. eigenvalues --  -15.85977 -11.32040 -11.31251 -11.28680 -11.28540
 Alpha  occ. eigenvalues --  -11.28258 -11.27840 -11.27766 -11.27634 -11.27496
 Alpha  occ. eigenvalues --  -11.27410 -11.26746 -11.26730  -1.60748  -1.60004
 Alpha  occ. eigenvalues --   -1.40303  -1.39562  -1.20208  -1.19394  -1.09582
 Alpha  occ. eigenvalues --   -1.08790  -1.05634  -1.04784  -0.96436  -0.95645
 Alpha  occ. eigenvalues --   -0.87002  -0.86190  -0.83285  -0.82488  -0.78360
 Alpha  occ. eigenvalues --   -0.77572  -0.72930  -0.72199  -0.72078  -0.71327
 Alpha  occ. eigenvalues --   -0.71284  -0.70452  -0.65866  -0.65607  -0.65036
 Alpha  occ. eigenvalues --   -0.64825  -0.62988  -0.62149  -0.56041  -0.55237
 Alpha  occ. eigenvalues --   -0.54044  -0.53694  -0.53078  -0.52756  -0.49701
 Alpha  occ. eigenvalues --   -0.49679  -0.48961  -0.48942  -0.45717  -0.44989
 Alpha  occ. eigenvalues --   -0.38155  -0.37481  -0.37140  -0.36248
 Alpha virt. eigenvalues --    0.04145   0.04968   0.10278   0.11340   0.15560
 Alpha virt. eigenvalues --    0.16517   0.19808   0.22072   0.25580   0.26985
 Alpha virt. eigenvalues --    0.28291   0.28929   0.30371   0.31188   0.31861

 Mulliken charges:
               1
     1  C   -0.168505
     2  C   -0.221142
     3  C   -0.181617
     4  C    0.161400
     5  C   -0.169379
     6  C   -0.216828
     7  H    0.231705
     8  H    0.224098
     9  H    0.272515
    10  H    0.278244
    11  H    0.228447
    12  N    0.487201
    13  O   -0.456159
    14  O   -0.464847
    15  C   -0.176246
    16  C   -0.218226
    17  C   -0.171724
    18  C    0.158288
    19  C   -0.173432
    20  C   -0.212188
    21  H    0.235389
    22  H    0.225901
    23  H    0.275496
    24  H    0.268732
    25  H    0.218056
    26  N    0.488196
    27  O   -0.463798
    28  O   -0.459577
 Sum of Mulliken charges =  -0.00000

 Dipole moment (field-independent basis, Debye):
    X=             -2.0059    Y=              1.5552    Z=             -0.8276  Tot=              2.6697
 Quadrupole moment (field-independent basis, Debye-Ang):
   XX=           -143.0126   YY=            -98.8022   ZZ=            -99.2705
   XY=            -25.0987   XZ=             -2.0288   YZ=             -0.6115

 Normal termination of Gaussian 16 at Wed May  5 20:59:00 2021.
