 Gaussian 16, Revision A.03,
 Gaussian 16:  EM64L-G16RevA.03 25-Dec-2016

 -------------
 #p 6-31g* mp2
 -------------

 ------------------------------------------------------
 Input file generated by CHIRIPA (05-May-2021 14:51:12)
 ------------------------------------------------------
 Symbolic Z-matrix:
 Charge =  0 Multiplicity = 1

                         Standard orientation:
 ---------------------------------------------------------------------
 Center     Atomic      Atomic             Coordinates (Angstroms)
 Number     Number       Type             X           Y           Z
 ---------------------------------------------------------------------
      1          6           0        3.270163    0.131255   -0.298884
      2          6           0        3.516187    1.580366    0.122465
      3          6           0        4.455730    2.321370   -0.829357
      4          1           0        4.232054   -0.396860   -0.351836
      5          1           0        2.850113    0.118209   -1.314159
      6          1           0        3.934357    1.590737    1.137178
      7          1           0        2.553580    2.105042    0.174606
      8          1           0        4.041102    2.340693   -1.842427
      9          1           0        5.429724    1.823467   -0.874386
     10          1           0        4.617769    3.355382   -0.509322
     11          6           0        2.332863   -0.622659    0.642823
     12          6           0        2.086839   -2.071770    0.221474
     13          6           0        1.147296   -2.812774    1.173296
     14          1           0        2.752912   -0.609613    1.658098
     15          1           0        1.370972   -0.094543    0.695775
     16          1           0        3.049446   -2.596446    0.169333
     17          1           0        1.668668   -2.082141   -0.793239
     18          1           0        0.173301   -2.314871    1.218325
     19          1           0        1.561924   -2.832097    2.186366
     20          1           0        0.985257   -3.846786    0.853261
     21          6           0       -2.409820   -0.300796   -0.534390
     22          6           0       -2.970912   -1.704163   -0.302607
     23          6           0       -2.176635   -2.786645   -1.034145
     24          1           0       -2.404457   -0.088363   -1.612253
     25          1           0       -1.361826   -0.273498   -0.205210
     26          1           0       -4.017950   -1.728427   -0.630845
     27          1           0       -2.975118   -1.913205    0.774843
     28          1           0       -1.134017   -2.791444   -0.700189
     29          1           0       -2.182774   -2.605618   -2.113864
     30          1           0       -2.594955   -3.781958   -0.854643
     31          6           0       -3.193206    0.792200    0.190451
     32          6           0       -2.632114    2.195566   -0.041331
     33          6           0       -3.426391    3.278050    0.690207
     34          1           0       -4.241200    0.764902   -0.138728
     35          1           0       -3.198569    0.579767    1.268314
     36          1           0       -2.627907    2.404609   -1.118782
     37          1           0       -1.585076    2.219832    0.286907
     38          1           0       -3.420251    3.097021    1.769925
     39          1           0       -4.469008    3.282848    0.356250
     40          1           0       -3.008071    4.273362    0.510704
 ---------------------------------------------------------------------

 SCF Done:  E(RHF) =  -470.732861220     A.U. after   11 cycles
 E2 =    -0.1583921958D+01 EUMP2 =    -0.47231678317812D+03

 The electronic state is 1-A.
 Alpha  occ. eigenvalues --  -11.21658 -11.21644 -11.21624 -11.21612 -11.21453
 Alpha  occ. eigenvalues --  -11.21451 -11.21389 -11.21385 -11.21119 -11.21097
 Alpha  occ. eigenvalues --  -11.21083 -11.20979  -1.08494  -1.08445  -1.03612
 Alpha  occ. eigenvalues --   -1.03510  -0.96075  -0.95943  -0.87088  -0.86961
 Alpha  occ. eigenvalues --   -0.79656  -0.79587  -0.78319  -0.78248  -0.65301
 Alpha  occ. eigenvalues --   -0.64935  -0.61275  -0.60683  -0.59397  -0.59351
 Alpha  occ. eigenvalues --   -0.57641  -0.57597  -0.55618  -0.54987  -0.52733
 Alpha  occ. eigenvalues --   -0.52666  -0.52445  -0.52392  -0.50147  -0.49719
 Alpha  occ. eigenvalues --   -0.48011  -0.47857  -0.46755  -0.46556  -0.46039
 Alpha  occ. eigenvalues --   -0.45797  -0.45767  -0.45480  -0.43829  -0.43799
 Alpha virt. eigenvalues --    0.19258   0.23053   0.23352   0.24764   0.25332
 Alpha virt. eigenvalues --    0.26702   0.26849   0.27733   0.28748   0.29978
 Alpha virt. eigenvalues --    0.30717   0.31180   0.31657   0.31775   0.32063

 Mulliken charges:
               1
     1  C   -0.298256
     2  C   -0.299700
     3  C   -0.475750
     4  H    0.149830
     5  H    0.150123
     6  H    0.151894
     7  H    0.151872
     8  H    0.155405
     9  H    0.155203
    10  H    0.160333
    11  C   -0.301325
    12  C   -0.302322
    13  C   -0.480971
    14  H    0.149840
    15  H    0.151376
    16  H    0.152814
    17  H    0.153919
    18  H    0.157565
    19  H    0.156473
    20  H    0.161489
    21  C   -0.303458
    22  C   -0.299790
    23  C   -0.484027
    24  H    0.149933
    25  H    0.152251
    26  H    0.152302
    27  H    0.151896
    28  H    0.166174
    29  H    0.154246
    30  H    0.160038
    31  C   -0.298062
    32  C   -0.299685
    33  C   -0.475733
    34  H    0.149940
    35  H    0.149859
    36  H    0.151993
    37  H    0.151214
    38  H    0.155403
    39  H    0.155337
    40  H    0.160357
 Sum of Mulliken charges =  -0.00000

 Dipole moment (field-independent basis, Debye):
    X=              0.0237    Y=             -0.0097    Z=              0.0044  Tot=              0.0260
 Quadrupole moment (field-independent basis, Debye-Ang):
   XX=            -84.3744   YY=            -85.8776   ZZ=            -84.3894
   XY=             -0.4071   XZ=              1.5248   YZ=             -0.3159

 Normal termination of Gaussian 16 at Wed May  5 18:19:59 2021.
