 Gaussian 16, Revision A.03,
 Gaussian 16:  EM64L-G16RevA.03 25-Dec-2016

 -------------
 #p 6-31g* mp2
 -------------

 ------------------------------------------------------
 Input file generated by CHIRIPA (05-May-2021 14:55:25)
 ------------------------------------------------------
 Symbolic Z-matrix:
 Charge =  0 Multiplicity = 1

                         Standard orientation:
 ---------------------------------------------------------------------
 Center     Atomic      Atomic             Coordinates (Angstroms)
 Number     Number       Type             X           Y           Z
 ---------------------------------------------------------------------
      1          6           0        2.124068    2.231248   -0.539782
      2          6           0        3.350628    2.230984    0.132579
      3          6           0        4.056473    1.039085    0.321549
      4          6           0        3.503905   -0.139582   -0.177150
      5          6           0        2.284108   -0.171820   -0.851203
      6          6           0        1.595654    1.031959   -1.028666
      7          1           0        1.582506    3.161758   -0.682109
      8          1           0        3.763415    3.160868    0.513327
      9          1           0        5.008026    1.010203    0.838397
     10          1           0        1.898055   -1.114575   -1.219433
     11          1           0        0.643300    1.029159   -1.551215
     12          7           0        4.241946   -1.407681    0.016812
     13          8           0        3.733661   -2.432748   -0.432097
     14          8           0        5.314732   -1.352537    0.614078
     15          6           0       -4.918495   -0.543098    0.094628
     16          6           0       -6.199414    0.224203   -0.234733
     17          6           0       -7.369194   -0.698290   -0.578843
     18          1           0       -4.648065   -1.176955   -0.760965
     19          1           0       -5.112005   -1.221291    0.937245
     20          1           0       -6.003171    0.901754   -1.075584
     21          1           0       -6.466720    0.856452    0.621669
     22          1           0       -7.593401   -1.365336    0.259836
     23          1           0       -7.127218   -1.319777   -1.447061
     24          1           0       -8.274647   -0.128950   -0.810941
     25          6           0       -3.740109    0.365394    0.440714
     26          6           0       -2.459190   -0.401908    0.770075
     27          6           0       -1.289409    0.520587    1.114184
     28          1           0       -3.546599    1.043587   -0.401903
     29          1           0       -4.010539    0.999251    1.296307
     30          1           0       -2.191884   -1.034156   -0.086328
     31          1           0       -2.655433   -1.079458    1.610925
     32          1           0       -1.531387    1.142072    1.982403
     33          1           0       -1.065203    1.187632    0.275506
     34          1           0       -0.383958   -0.048754    1.346283
 ---------------------------------------------------------------------

 SCF Done:  E(RHF) =  -669.534585205     A.U. after   15 cycles
 E2 =    -0.2092013159D+01 EUMP2 =    -0.67162659836440D+03

 The electronic state is 1-A.
 Alpha  occ. eigenvalues --  -20.60760 -20.60755 -15.85813 -11.31182 -11.27721
 Alpha  occ. eigenvalues --  -11.27718 -11.27460 -11.26760 -11.26744 -11.22081
 Alpha  occ. eigenvalues --  -11.21932 -11.21859 -11.21734 -11.21580 -11.21334
 Alpha  occ. eigenvalues --   -1.59836  -1.39389  -1.19345  -1.08853  -1.08739
 Alpha  occ. eigenvalues --   -1.04753  -1.03939  -0.96393  -0.95575  -0.87417
 Alpha  occ. eigenvalues --   -0.86143  -0.82408  -0.80005  -0.78657  -0.77458
 Alpha  occ. eigenvalues --   -0.72031  -0.71159  -0.70445  -0.65509  -0.64997
 Alpha  occ. eigenvalues --   -0.64767  -0.62141  -0.61315  -0.59754  -0.57993
 Alpha  occ. eigenvalues --   -0.55739  -0.55232  -0.53360  -0.52917  -0.52782
 Alpha  occ. eigenvalues --   -0.52729  -0.50318  -0.48790  -0.48786  -0.48316
 Alpha  occ. eigenvalues --   -0.47047  -0.46197  -0.46126  -0.44794  -0.44187
 Alpha  occ. eigenvalues --   -0.37298  -0.36289
 Alpha virt. eigenvalues --    0.05060   0.11243   0.16544   0.20403   0.22663
 Alpha virt. eigenvalues --    0.23953   0.25939   0.26775   0.27161   0.28180
 Alpha virt. eigenvalues --    0.28516   0.30326   0.31195   0.31498   0.31846

 Mulliken charges:
               1
     1  C   -0.171367
     2  C   -0.218082
     3  C   -0.171526
     4  C    0.158467
     5  C   -0.173762
     6  C   -0.211044
     7  H    0.225426
     8  H    0.223428
     9  H    0.275429
    10  H    0.275342
    11  H    0.223369
    12  N    0.488043
    13  O   -0.460507
    14  O   -0.460364
    15  C   -0.298497
    16  C   -0.299766
    17  C   -0.475928
    18  H    0.149769
    19  H    0.151471
    20  H    0.150876
    21  H    0.152336
    22  H    0.156228
    23  H    0.155583
    24  H    0.160879
    25  C   -0.297765
    26  C   -0.300713
    27  C   -0.475032
    28  H    0.145336
    29  H    0.150763
    30  H    0.149192
    31  H    0.156055
    32  H    0.156243
    33  H    0.143650
    34  H    0.166467
 Sum of Mulliken charges =  -0.00000

 Dipole moment (field-independent basis, Debye):
    X=             -2.6555    Y=              4.4477    Z=             -0.6248  Tot=              5.2177
 Quadrupole moment (field-independent basis, Debye-Ang):
   XX=           -111.3138   YY=            -95.5904   ZZ=            -93.0555
   XY=             17.9122   XZ=             -0.5621   YZ=              0.4794

 Normal termination of Gaussian 16 at Thu May  6 04:48:43 2021.
