 Gaussian 16, Revision A.03,
 Gaussian 16:  EM64L-G16RevA.03 25-Dec-2016

 -------------
 #p 6-31g* mp2
 -------------

 ------------------------------------------------------
 Input file generated by CHIRIPA (05-May-2021 14:57:23)
 ------------------------------------------------------
 Symbolic Z-matrix:
 Charge =  0 Multiplicity = 1

                         Standard orientation:
 ---------------------------------------------------------------------
 Center     Atomic      Atomic             Coordinates (Angstroms)
 Number     Number       Type             X           Y           Z
 ---------------------------------------------------------------------
      1          6           0        0.993193   -1.888159    0.425635
      2          6           0        0.797154   -0.791671   -0.420417
      3          6           0        1.851349    0.080224   -0.708547
      4          6           0        3.093983   -0.175462   -0.130816
      5          6           0        3.320767   -1.259334    0.715991
      6          6           0        2.252154   -2.118086    0.990143
      7          1           0        0.168668   -2.560363    0.644032
      8          1           0       -0.179491   -0.610647   -0.860237
      9          1           0        1.727346    0.936665   -1.360123
     10          1           0        4.305737   -1.413860    1.139517
     11          1           0        2.407311   -2.968838    1.647556
     12          7           0        4.217645    0.740617   -0.428447
     13          8           0        5.302780    0.493466    0.093122
     14          8           0        3.991958    1.688444   -1.177664
     15          6           0       -2.162033    2.482237    1.159179
     16          6           0       -2.168595    1.295353    1.899305
     17          6           0       -2.580376    0.095026    1.312620
     18          6           0       -2.980984    0.118029   -0.022398
     19          6           0       -2.985584    1.284259   -0.786057
     20          6           0       -2.569828    2.472919   -0.178780
     21          1           0       -1.840608    3.410149    1.622928
     22          1           0       -1.852422    1.299604    2.938564
     23          1           0       -2.595285   -0.838194    1.862434
     24          1           0       -3.306305    1.248556   -1.820118
     25          1           0       -2.565761    3.393162   -0.756000
     26          7           0       -3.419022   -1.146528   -0.654395
     27          8           0       -3.767278   -1.099696   -1.832174
     28          8           0       -3.405804   -2.160574    0.039991
 ---------------------------------------------------------------------

 SCF Done:  E(RHF) =  -868.338431745     A.U. after   16 cycles
 E2 =    -0.2601317748D+01 EUMP2 =    -0.87093974949305D+03

 The electronic state is 1-A.
 Alpha  occ. eigenvalues --  -20.61851 -20.61816 -20.60828 -20.60819 -15.86875
 Alpha  occ. eigenvalues --  -15.85876 -11.32118 -11.31161 -11.28669 -11.28649
 Alpha  occ. eigenvalues --  -11.28291 -11.27713 -11.27706 -11.27593 -11.27582
 Alpha  occ. eigenvalues --  -11.27348 -11.26696 -11.26642  -1.60921  -1.59904
 Alpha  occ. eigenvalues --   -1.40471  -1.39460  -1.20284  -1.19312  -1.09677
 Alpha  occ. eigenvalues --   -1.08709  -1.05633  -1.04702  -0.96527  -0.95560
 Alpha  occ. eigenvalues --   -0.87031  -0.86101  -0.83344  -0.82397  -0.78432
 Alpha  occ. eigenvalues --   -0.77478  -0.73071  -0.72297  -0.72088  -0.71318
 Alpha  occ. eigenvalues --   -0.71228  -0.70369  -0.65898  -0.65591  -0.64953
 Alpha  occ. eigenvalues --   -0.64710  -0.62969  -0.62073  -0.56077  -0.55160
 Alpha  occ. eigenvalues --   -0.54085  -0.53690  -0.53012  -0.52688  -0.49849
 Alpha  occ. eigenvalues --   -0.49823  -0.48856  -0.48843  -0.45883  -0.44884
 Alpha  occ. eigenvalues --   -0.38234  -0.37484  -0.37047  -0.36263
 Alpha virt. eigenvalues --    0.04032   0.05058   0.10323   0.11394   0.15578
 Alpha virt. eigenvalues --    0.16577   0.20601   0.21409   0.26436   0.26926
 Alpha virt. eigenvalues --    0.27344   0.28490   0.30486   0.30659   0.32254

 Mulliken charges:
               1
     1  C   -0.177383
     2  C   -0.216831
     3  C   -0.173883
     4  C    0.157925
     5  C   -0.172087
     6  C   -0.219288
     7  H    0.234439
     8  H    0.225777
     9  H    0.273350
    10  H    0.274803
    11  H    0.223677
    12  N    0.488069
    13  O   -0.460658
    14  O   -0.462159
    15  C   -0.169579
    16  C   -0.214829
    17  C   -0.172569
    18  C    0.148966
    19  C   -0.177069
    20  C   -0.218001
    21  H    0.231281
    22  H    0.227406
    23  H    0.273798
    24  H    0.278065
    25  H    0.228430
    26  N    0.487874
    27  O   -0.456032
    28  O   -0.463490
 Sum of Mulliken charges =  -0.00000

 Dipole moment (field-independent basis, Debye):
    X=             -2.6184    Y=              1.3906    Z=              3.3688  Tot=              4.4877
 Quadrupole moment (field-independent basis, Debye-Ang):
   XX=           -138.0050   YY=           -100.2779   ZZ=           -100.2782
   XY=            -25.4019   XZ=             -0.1209   YZ=             -3.6265

 Normal termination of Gaussian 16 at Fri May  7 11:03:05 2021.
