 Gaussian 16, Revision A.03,
 Gaussian 16:  EM64L-G16RevA.03 25-Dec-2016

 -------------
 #p 6-31g* mp2
 -------------

 ------------------------------------------------------
 Input file generated by CHIRIPA (05-May-2021 14:57:26)
 ------------------------------------------------------
 Symbolic Z-matrix:
 Charge =  0 Multiplicity = 1

                         Standard orientation:
 ---------------------------------------------------------------------
 Center     Atomic      Atomic             Coordinates (Angstroms)
 Number     Number       Type             X           Y           Z
 ---------------------------------------------------------------------
      1          6           0        5.037525   -1.923834   -0.128010
      2          6           0        5.141900   -0.817512   -0.977526
      3          6           0        4.276530    0.271238   -0.835029
      4          6           0        3.314139    0.220021    0.172180
      5          6           0        3.185101   -0.867871    1.034230
      6          6           0        4.061180   -1.945445    0.873391
      7          1           0        5.713925   -2.765261   -0.245829
      8          1           0        5.899184   -0.797983   -1.756105
      9          1           0        4.335234    1.140391   -1.478882
     10          1           0        2.420102   -0.858407    1.801109
     11          1           0        3.977805   -2.803301    1.534585
     12          7           0        2.392342    1.366716    0.332744
     13          8           0        1.553002    1.297167    1.227902
     14          8           0        2.526632    2.313331   -0.439605
     15          6           0       -1.740083    1.803275   -0.294845
     16          6           0       -3.027543    2.089721    0.170896
     17          6           0       -3.991895    1.081241    0.257731
     18          6           0       -3.632924   -0.208366   -0.131300
     19          6           0       -2.358656   -0.525231   -0.599414
     20          6           0       -1.410330    0.499012   -0.677838
     21          1           0       -0.997175    2.592809   -0.359034
     22          1           0       -3.286448    3.101717    0.469022
     23          1           0       -4.996070    1.275229    0.614688
     24          1           0       -2.130224   -1.543650   -0.889344
     25          1           0       -0.411253    0.273643   -1.039916
     26          7           0       -4.645357   -1.284342   -0.043823
     27          8           0       -4.304064   -2.412372   -0.392685
     28          8           0       -5.761025   -0.979289    0.371946
 ---------------------------------------------------------------------

 SCF Done:  E(RHF) =  -868.340017849     A.U. after   16 cycles
 E2 =    -0.2599403628D+01 EUMP2 =    -0.87093942147715D+03

 The electronic state is 1-A.
 Alpha  occ. eigenvalues --  -20.61995 -20.61962 -20.60127 -20.60119 -15.86970
 Alpha  occ. eigenvalues --  -15.85175 -11.32030 -11.30282 -11.28557 -11.28535
 Alpha  occ. eigenvalues --  -11.28214 -11.27480 -11.27458 -11.26873 -11.26858
 Alpha  occ. eigenvalues --  -11.26322 -11.25745 -11.25719  -1.61061  -1.59209
 Alpha  occ. eigenvalues --   -1.40607  -1.38770  -1.20169  -1.18424  -1.09624
 Alpha  occ. eigenvalues --   -1.07810  -1.05509  -1.03817  -0.96506  -0.94695
 Alpha  occ. eigenvalues --   -0.86921  -0.85199  -0.83335  -0.81568  -0.78427
 Alpha  occ. eigenvalues --   -0.76699  -0.73188  -0.72400  -0.71395  -0.71250
 Alpha  occ. eigenvalues --   -0.70532  -0.69398  -0.65810  -0.65494  -0.64058
 Alpha  occ. eigenvalues --   -0.63808  -0.62851  -0.61199  -0.56011  -0.54141
 Alpha  occ. eigenvalues --   -0.53868  -0.53584  -0.52128  -0.51910  -0.49976
 Alpha  occ. eigenvalues --   -0.49939  -0.48168  -0.48130  -0.46060  -0.44236
 Alpha  occ. eigenvalues --   -0.38133  -0.37100  -0.36260  -0.35433
 Alpha virt. eigenvalues --    0.04033   0.05877   0.10556   0.12244   0.15625
 Alpha virt. eigenvalues --    0.17466   0.20777   0.22349   0.26727   0.27537
 Alpha virt. eigenvalues --    0.27922   0.29426   0.30495   0.31817   0.32066

 Mulliken charges:
               1
     1  C   -0.169409
     2  C   -0.218546
     3  C   -0.171241
     4  C    0.153933
     5  C   -0.171858
     6  C   -0.218520
     7  H    0.229141
     8  H    0.226174
     9  H    0.276089
    10  H    0.278097
    11  H    0.227382
    12  N    0.484687
    13  O   -0.458944
    14  O   -0.463457
    15  C   -0.163124
    16  C   -0.221244
    17  C   -0.171706
    18  C    0.156629
    19  C   -0.174383
    20  C   -0.212768
    21  H    0.242161
    22  H    0.222031
    23  H    0.272283
    24  H    0.269735
    25  H    0.216021
    26  N    0.488412
    27  O   -0.464731
    28  O   -0.462844
 Sum of Mulliken charges =  -0.00000

 Dipole moment (field-independent basis, Debye):
    X=              7.3453    Y=             -0.1493    Z=             -0.7907  Tot=              7.3892
 Quadrupole moment (field-independent basis, Debye-Ang):
   XX=           -107.1115   YY=           -105.4711   ZZ=           -102.4614
   XY=            -29.8019   XZ=             -4.1027   YZ=             -2.0945

 Normal termination of Gaussian 16 at Fri May  7 06:36:57 2021.
