 Gaussian 16, Revision A.03,
 Gaussian 16:  EM64L-G16RevA.03 25-Dec-2016

 -------------
 #p 6-31g* mp2
 -------------

 ------------------------------------------------------
 Input file generated by CHIRIPA (05-May-2021 14:51:10)
 ------------------------------------------------------
 Symbolic Z-matrix:
 Charge =  0 Multiplicity = 1

                         Standard orientation:
 ---------------------------------------------------------------------
 Center     Atomic      Atomic             Coordinates (Angstroms)
 Number     Number       Type             X           Y           Z
 ---------------------------------------------------------------------
      1          6           0        3.508438    0.840703   -0.499680
      2          6           0        2.863382    1.971926    0.301707
      3          6           0        3.266396    3.357979   -0.202504
      4          1           0        4.601159    0.945221   -0.455164
      5          1           0        3.227448    0.943276   -1.556997
      6          1           0        3.144381    1.866450    1.357420
      7          1           0        1.772073    1.864593    0.255437
      8          1           0        2.971336    3.488141   -1.248735
      9          1           0        4.351441    3.490009   -0.140490
     10          1           0        2.793947    4.151753    0.384501
     11          6           0        3.115165   -0.551026   -0.007589
     12          6           0        3.760222   -1.682249   -0.808977
     13          6           0        3.357208   -3.068302   -0.304765
     14          1           0        3.396155   -0.653599    1.049727
     15          1           0        2.022444   -0.655543   -0.052105
     16          1           0        4.851530   -1.574916   -0.762707
     17          1           0        3.479222   -1.576772   -1.864690
     18          1           0        2.272162   -3.200331   -0.366779
     19          1           0        3.652267   -3.198464    0.741466
     20          1           0        3.829656   -3.862076   -0.891771
     21          6           0       -3.935542   -0.403925   -0.103092
     22          6           0       -4.993929    0.675079   -0.334513
     23          6           0       -6.235800    0.141378   -1.049155
     24          1           0       -3.645892   -0.837797   -1.069945
     25          1           0       -4.376523   -1.219870    0.486115
     26          1           0       -4.550687    1.489384   -0.921930
     27          1           0       -5.280953    1.106565    0.632984
     28          1           0       -6.704037   -0.656556   -0.463788
     29          1           0       -5.969622   -0.271561   -2.027537
     30          1           0       -6.979376    0.929323   -1.204385
     31          6           0       -2.688061    0.114247    0.610362
     32          6           0       -1.629675   -0.964756    0.841783
     33          6           0       -0.387804   -0.431055    1.556425
     34          1           0       -2.247079    0.930192    0.021154
     35          1           0       -2.977711    0.548120    1.577214
     36          1           0       -1.342650   -1.396243   -0.125715
     37          1           0       -2.072917   -1.779062    1.429200
     38          1           0       -0.653981   -0.018115    2.534807
     39          1           0        0.080435    0.366879    0.971057
     40          1           0        0.355774   -1.219001    1.711654
 ---------------------------------------------------------------------

 SCF Done:  E(RHF) =  -470.731778986     A.U. after   11 cycles
 E2 =    -0.1584025249D+01 EUMP2 =    -0.47231580423543D+03

 The electronic state is 1-A.
 Alpha  occ. eigenvalues --  -11.21620 -11.21618 -11.21580 -11.21551 -11.21427
 Alpha  occ. eigenvalues --  -11.21368 -11.21345 -11.21220 -11.21084 -11.21063
 Alpha  occ. eigenvalues --  -11.21061 -11.20991  -1.08461  -1.08379  -1.03545
 Alpha  occ. eigenvalues --   -1.03505  -0.96025  -0.95921  -0.87033  -0.86954
 Alpha  occ. eigenvalues --   -0.79642  -0.79571  -0.78308  -0.78136  -0.65196
 Alpha  occ. eigenvalues --   -0.64942  -0.60965  -0.60908  -0.59440  -0.59257
 Alpha  occ. eigenvalues --   -0.57631  -0.57529  -0.55403  -0.55150  -0.52778
 Alpha  occ. eigenvalues --   -0.52643  -0.52438  -0.52289  -0.50015  -0.49886
 Alpha  occ. eigenvalues --   -0.48068  -0.47755  -0.46813  -0.46567  -0.45874
 Alpha  occ. eigenvalues --   -0.45767  -0.45697  -0.45278  -0.43771  -0.43707
 Alpha virt. eigenvalues --    0.21371   0.23218   0.23510   0.24191   0.26081
 Alpha virt. eigenvalues --    0.26752   0.27029   0.27261   0.27884   0.29549
 Alpha virt. eigenvalues --    0.30377   0.31288   0.31698   0.31768   0.32303

 Mulliken charges:
               1
     1  C   -0.298170
     2  C   -0.304150
     3  C   -0.475213
     4  H    0.149344
     5  H    0.148524
     6  H    0.152549
     7  H    0.155557
     8  H    0.154774
     9  H    0.155282
    10  H    0.160229
    11  C   -0.304977
    12  C   -0.298989
    13  C   -0.476315
    14  H    0.148655
    15  H    0.160497
    16  H    0.151471
    17  H    0.151223
    18  H    0.154907
    19  H    0.155015
    20  H    0.160347
    21  C   -0.298247
    22  C   -0.299671
    23  C   -0.475715
    24  H    0.149487
    25  H    0.149696
    26  H    0.151865
    27  H    0.152025
    28  H    0.155242
    29  H    0.155151
    30  H    0.160310
    31  C   -0.298191
    32  C   -0.301109
    33  C   -0.483962
    34  H    0.148951
    35  H    0.150030
    36  H    0.151040
    37  H    0.152363
    38  H    0.155498
    39  H    0.161114
    40  H    0.163562
 Sum of Mulliken charges =  -0.00000

 Dipole moment (field-independent basis, Debye):
    X=             -0.0152    Y=              0.0042    Z=              0.0273  Tot=              0.0315
 Quadrupole moment (field-independent basis, Debye-Ang):
   XX=            -85.0955   YY=            -86.0223   ZZ=            -83.8706
   XY=             -0.3255   XZ=             -0.2456   YZ=             -0.0594

 Normal termination of Gaussian 16 at Wed May  5 15:11:04 2021.
