 Gaussian 16, Revision A.03,
 Gaussian 16:  EM64L-G16RevA.03 25-Dec-2016

 -------------
 #p 6-31g* mp2
 -------------

 ------------------------------------------------------
 Input file generated by CHIRIPA (05-May-2021 14:53:11)
 ------------------------------------------------------
 Symbolic Z-matrix:
 Charge =  0 Multiplicity = 1

                         Standard orientation:
 ---------------------------------------------------------------------
 Center     Atomic      Atomic             Coordinates (Angstroms)
 Number     Number       Type             X           Y           Z
 ---------------------------------------------------------------------
      1          6           0        3.507175   -0.265891   -0.735331
      2          6           0        4.290677   -1.239947    0.145194
      3          6           0        4.808346   -2.452072   -0.629768
      4          1           0        2.662621   -0.796224   -1.196220
      5          1           0        4.151078    0.072079   -1.559079
      6          1           0        3.645931   -1.574911    0.967822
      7          1           0        5.133353   -0.707186    0.604192
      8          1           0        5.472967   -2.135965   -1.440295
      9          1           0        3.977093   -3.008620   -1.074599
     10          1           0        5.365470   -3.135253    0.018874
     11          6           0        2.983165    0.951020    0.025109
     12          6           0        2.199663    1.925076   -0.855416
     13          6           0        1.681994    3.137201   -0.080454
     14          1           0        2.339262    0.613051    0.848857
     15          1           0        3.827719    1.481354    0.485998
     16          1           0        1.356987    1.392315   -1.314413
     17          1           0        2.844409    2.260040   -1.678044
     18          1           0        2.513247    3.693749    0.364377
     19          1           0        1.017373    2.821094    0.730074
     20          1           0        1.124870    3.820382   -0.729096
     21          6           0       -0.858099   -0.064814    2.151416
     22          6           0       -1.334334    1.083845    1.510865
     23          6           0       -2.263748    0.983408    0.471322
     24          6           0       -2.697434   -0.287236    0.096261
     25          6           0       -2.241697   -1.450326    0.714982
     26          6           0       -1.312500   -1.326009    1.752134
     27          1           0       -0.136192    0.022484    2.958030
     28          1           0       -0.983202    2.064609    1.818848
     29          1           0       -2.648976    1.856201   -0.041756
     30          1           0       -2.610284   -2.414275    0.385795
     31          1           0       -0.944384   -2.219798    2.247793
     32          7           0       -3.681248   -0.406204   -1.002992
     33          8           0       -4.047656   -1.537231   -1.314701
     34          8           0       -4.067326    0.633827   -1.532063
 ---------------------------------------------------------------------

 SCF Done:  E(RHF) =  -669.535431799     A.U. after   15 cycles
 E2 =    -0.2092351377D+01 EUMP2 =    -0.67162778317593D+03

 The electronic state is 1-A.
 Alpha  occ. eigenvalues --  -20.60829 -20.60824 -15.85883 -11.31280 -11.27845
 Alpha  occ. eigenvalues --  -11.27841 -11.27603 -11.26871 -11.26858 -11.22040
 Alpha  occ. eigenvalues --  -11.22039 -11.21873 -11.21757 -11.21706 -11.21422
 Alpha  occ. eigenvalues --   -1.59904  -1.39456  -1.19456  -1.08889  -1.08832
 Alpha  occ. eigenvalues --   -1.04861  -1.03987  -0.96454  -0.95673  -0.87476
 Alpha  occ. eigenvalues --   -0.86257  -0.82502  -0.80054  -0.78689  -0.77546
 Alpha  occ. eigenvalues --   -0.72101  -0.71228  -0.70555  -0.65533  -0.65105
 Alpha  occ. eigenvalues --   -0.64867  -0.62250  -0.61354  -0.59813  -0.58058
 Alpha  occ. eigenvalues --   -0.55799  -0.55327  -0.53181  -0.53145  -0.53057
 Alpha  occ. eigenvalues --   -0.52766  -0.50378  -0.48862  -0.48854  -0.48367
 Alpha  occ. eigenvalues --   -0.47074  -0.46236  -0.46147  -0.44855  -0.44238
 Alpha  occ. eigenvalues --   -0.37418  -0.36438
 Alpha virt. eigenvalues --    0.04963   0.11078   0.16365   0.20317   0.22689
 Alpha virt. eigenvalues --    0.23942   0.25741   0.26158   0.26850   0.28469
 Alpha virt. eigenvalues --    0.28722   0.30022   0.31225   0.31523   0.31705

 Mulliken charges:
               1
     1  C   -0.298998
     2  C   -0.298944
     3  C   -0.476017
     4  H    0.152252
     5  H    0.151470
     6  H    0.147387
     7  H    0.152190
     8  H    0.156934
     9  H    0.156047
    10  H    0.160276
    11  C   -0.298210
    12  C   -0.299456
    13  C   -0.477893
    14  H    0.143931
    15  H    0.149239
    16  H    0.156295
    17  H    0.154610
    18  H    0.156420
    19  H    0.145466
    20  H    0.162698
    21  C   -0.171929
    22  C   -0.217285
    23  C   -0.171996
    24  C    0.158478
    25  C   -0.170858
    26  C   -0.219033
    27  H    0.226547
    28  H    0.226150
    29  H    0.276489
    30  H    0.275954
    31  H    0.223916
    32  N    0.488051
    33  O   -0.460194
    34  O   -0.459988
 Sum of Mulliken charges =  -0.00000

 Dipole moment (field-independent basis, Debye):
    X=              3.4713    Y=              0.3848    Z=              3.7841  Tot=              5.1495
 Quadrupole moment (field-independent basis, Debye-Ang):
   XX=           -113.5343   YY=            -90.6994   ZZ=            -94.7495
   XY=             -1.3914   XZ=            -10.4298   YZ=             -2.2638

 Normal termination of Gaussian 16 at Thu May  6 00:53:10 2021.
