 Gaussian 16, Revision A.03,
 Gaussian 16:  EM64L-G16RevA.03 25-Dec-2016

 -------------
 #p 6-31g* mp2
 -------------

 ------------------------------------------------------
 Input file generated by CHIRIPA (05-May-2021 14:51:10)
 ------------------------------------------------------
 Symbolic Z-matrix:
 Charge =  0 Multiplicity = 1

                         Standard orientation:
 ---------------------------------------------------------------------
 Center     Atomic      Atomic             Coordinates (Angstroms)
 Number     Number       Type             X           Y           Z
 ---------------------------------------------------------------------
      1          6           0       -3.559829   -0.514393   -0.233326
      2          6           0       -4.822630    0.334885   -0.381803
      3          6           0       -5.718609   -0.133565   -1.528786
      4          1           0       -2.995376   -0.488557   -1.175489
      5          1           0       -3.848067   -1.562118   -0.070270
      6          1           0       -4.532109    1.380916   -0.543150
      7          1           0       -5.384045    0.307179    0.560885
      8          1           0       -6.036975   -1.169064   -1.370712
      9          1           0       -5.180198   -0.089226   -2.481020
     10          1           0       -6.615524    0.487426   -1.616948
     11          6           0       -2.653964   -0.058429    0.909142
     12          6           0       -1.391164   -0.907707    1.057619
     13          6           0       -0.495185   -0.439257    2.204602
     14          1           0       -2.365726    0.989296    0.746086
     15          1           0       -3.218417   -0.084265    1.851305
     16          1           0       -0.829748   -0.880001    0.114931
     17          1           0       -1.681684   -1.953738    1.218966
     18          1           0       -1.033595   -0.483596    3.156836
     19          1           0       -0.176819    0.596242    2.046528
     20          1           0        0.401731   -1.060248    2.292764
     21          6           0        3.034112    0.986935   -0.633545
     22          6           0        2.430298    1.997264    0.342482
     23          6           0        2.291032    3.394108   -0.263510
     24          1           0        4.019490    1.346282   -0.960415
     25          1           0        2.405602    0.936238   -1.533434
     26          1           0        3.059005    2.045020    1.240849
     27          1           0        1.446325    1.635375    0.667214
     28          1           0        1.646535    3.367761   -1.148117
     29          1           0        3.268377    3.779733   -0.571224
     30          1           0        1.857365    4.100412    0.451283
     31          6           0        3.179681   -0.414113   -0.042271
     32          6           0        3.783495   -1.424442   -1.018298
     33          6           0        3.922762   -2.821286   -0.412307
     34          1           0        3.808191   -0.363416    0.857617
     35          1           0        2.194303   -0.773460    0.284599
     36          1           0        4.767468   -1.062553   -1.343031
     37          1           0        3.154789   -1.472199   -1.916665
     38          1           0        2.945416   -3.206912   -0.104592
     39          1           0        4.567258   -2.794940    0.472302
     40          1           0        4.356428   -3.527590   -1.127100
 ---------------------------------------------------------------------

 SCF Done:  E(RHF) =  -470.732988816     A.U. after   11 cycles
 E2 =    -0.1583503892D+01 EUMP2 =    -0.47231649270783D+03

 The electronic state is 1-A.
 Alpha  occ. eigenvalues --  -11.21672 -11.21632 -11.21593 -11.21573 -11.21452
 Alpha  occ. eigenvalues --  -11.21392 -11.21391 -11.21327 -11.21096 -11.21080
 Alpha  occ. eigenvalues --  -11.21080 -11.21069  -1.08485  -1.08415  -1.03579
 Alpha  occ. eigenvalues --   -1.03522  -0.96025  -0.95972  -0.87039  -0.86991
 Alpha  occ. eigenvalues --   -0.79670  -0.79561  -0.78291  -0.78233  -0.65226
 Alpha  occ. eigenvalues --   -0.64960  -0.61077  -0.60838  -0.59405  -0.59336
 Alpha  occ. eigenvalues --   -0.57704  -0.57518  -0.55325  -0.55262  -0.52740
 Alpha  occ. eigenvalues --   -0.52651  -0.52502  -0.52339  -0.50061  -0.49861
 Alpha  occ. eigenvalues --   -0.48047  -0.47817  -0.46814  -0.46469  -0.45883
 Alpha  occ. eigenvalues --   -0.45766  -0.45726  -0.45575  -0.43821  -0.43772
 Alpha virt. eigenvalues --    0.20182   0.23198   0.23868   0.24119   0.26253
 Alpha virt. eigenvalues --    0.26795   0.27011   0.27307   0.28009   0.29243
 Alpha virt. eigenvalues --    0.30224   0.31547   0.31850   0.31918   0.32198

 Mulliken charges:
               1
     1  C   -0.298302
     2  C   -0.299724
     3  C   -0.475734
     4  H    0.149446
     5  H    0.149673
     6  H    0.152034
     7  H    0.152067
     8  H    0.155239
     9  H    0.155167
    10  H    0.160395
    11  C   -0.298208
    12  C   -0.302337
    13  C   -0.481321
    14  H    0.149363
    15  H    0.150132
    16  H    0.151981
    17  H    0.152451
    18  H    0.155663
    19  H    0.159595
    20  H    0.162166
    21  C   -0.297458
    22  C   -0.306790
    23  C   -0.475317
    24  H    0.149663
    25  H    0.148662
    26  H    0.152051
    27  H    0.159041
    28  H    0.154615
    29  H    0.155338
    30  H    0.159998
    31  C   -0.304798
    32  C   -0.299320
    33  C   -0.475794
    34  H    0.149402
    35  H    0.156910
    36  H    0.151937
    37  H    0.151623
    38  H    0.155033
    39  H    0.155158
    40  H    0.160298
 Sum of Mulliken charges =  -0.00000

 Dipole moment (field-independent basis, Debye):
    X=             -0.0172    Y=             -0.0061    Z=              0.0252  Tot=              0.0311
 Quadrupole moment (field-independent basis, Debye-Ang):
   XX=            -84.2335   YY=            -85.5686   ZZ=            -84.9638
   XY=              0.5418   XZ=             -0.6212   YZ=             -0.1768

 Normal termination of Gaussian 16 at Wed May  5 21:23:38 2021.
