 Gaussian 16, Revision A.03,
 Gaussian 16:  EM64L-G16RevA.03 25-Dec-2016

 -------------
 #p 6-31g* mp2
 -------------

 ------------------------------------------------------
 Input file generated by CHIRIPA (05-May-2021 14:51:08)
 ------------------------------------------------------
 Symbolic Z-matrix:
 Charge =  0 Multiplicity = 1

                         Standard orientation:
 ---------------------------------------------------------------------
 Center     Atomic      Atomic             Coordinates (Angstroms)
 Number     Number       Type             X           Y           Z
 ---------------------------------------------------------------------
      1          6           0       -3.361471    1.228101   -0.213613
      2          6           0       -1.973949    1.542928    0.346433
      3          6           0       -1.429467    2.885196   -0.143105
      4          1           0       -3.315589    1.228458   -1.311265
      5          1           0       -4.054905    2.031732    0.070503
      6          1           0       -1.283656    0.738251    0.062518
      7          1           0       -2.023099    1.541633    1.442881
      8          1           0       -2.095369    3.702167    0.153096
      9          1           0       -1.351725    2.894221   -1.235110
     10          1           0       -0.436661    3.090226    0.269399
     11          6           0       -3.919214   -0.110534    0.266707
     12          6           0       -5.306736   -0.425360   -0.293339
     13          6           0       -5.851218   -1.767629    0.196199
     14          1           0       -3.225780   -0.914164   -0.017409
     15          1           0       -3.965097   -0.110890    1.364359
     16          1           0       -5.257587   -0.424065   -1.389787
     17          1           0       -5.997029    0.379316   -0.009424
     18          1           0       -5.928960   -1.776653    1.288204
     19          1           0       -5.185316   -2.584599   -0.100002
     20          1           0       -6.844024   -1.972659   -0.216305
     21          6           0        2.885246   -0.443906   -0.018500
     22          6           0        2.074257   -1.733922   -0.145543
     23          6           0        0.565326   -1.487736   -0.127867
     24          1           0        2.606482    0.066657    0.913467
     25          1           0        2.613755    0.234007   -0.839548
     26          1           0        2.348206   -2.409755    0.674710
     27          1           0        2.355122   -2.241569   -1.077221
     28          1           0        0.272002   -0.833585   -0.955301
     29          1           0        0.265047   -1.002727    0.806585
     30          1           0        0.004813   -2.423267   -0.219890
     31          6           0        4.395439   -0.673662   -0.034594
     32          6           0        5.206428    0.616354    0.092449
     33          6           0        6.715360    0.370169    0.074773
     34          1           0        4.666930   -1.351575    0.786455
     35          1           0        4.674203   -1.184225   -0.966561
     36          1           0        4.925562    1.124002    1.024128
     37          1           0        4.932478    1.292188   -0.727804
     38          1           0        7.015638   -0.114841   -0.859679
     39          1           0        7.008682   -0.283983    0.902208
     40          1           0        7.275872    1.305700    0.166797
 ---------------------------------------------------------------------

 SCF Done:  E(RHF) =  -470.732672019     A.U. after   11 cycles
 E2 =    -0.1583158227D+01 EUMP2 =    -0.47231583024619D+03

 The electronic state is 1-A.
 Alpha  occ. eigenvalues --  -11.21655 -11.21621 -11.21540 -11.21440 -11.21386
 Alpha  occ. eigenvalues --  -11.21379 -11.21307 -11.21245 -11.21141 -11.21086
 Alpha  occ. eigenvalues --  -11.21026 -11.20977  -1.08470  -1.08331  -1.03585
 Alpha  occ. eigenvalues --   -1.03429  -0.96035  -0.95893  -0.87070  -0.86899
 Alpha  occ. eigenvalues --   -0.79725  -0.79441  -0.78307  -0.78107  -0.65098
 Alpha  occ. eigenvalues --   -0.64972  -0.60975  -0.60859  -0.59408  -0.59259
 Alpha  occ. eigenvalues --   -0.57680  -0.57464  -0.55316  -0.55187  -0.52736
 Alpha  occ. eigenvalues --   -0.52617  -0.52509  -0.52281  -0.49974  -0.49838
 Alpha  occ. eigenvalues --   -0.48199  -0.47668  -0.46672  -0.46488  -0.45934
 Alpha  occ. eigenvalues --   -0.45748  -0.45662  -0.45342  -0.43824  -0.43687
 Alpha virt. eigenvalues --    0.22021   0.22959   0.23873   0.24807   0.25783
 Alpha virt. eigenvalues --    0.26489   0.27108   0.27399   0.28161   0.29303
 Alpha virt. eigenvalues --    0.30784   0.31241   0.31665   0.31842   0.32092

 Mulliken charges:
               1
     1  C   -0.297207
     2  C   -0.311039
     3  C   -0.475111
     4  H    0.148670
     5  H    0.148800
     6  H    0.166375
     7  H    0.149938
     8  H    0.154637
     9  H    0.154048
    10  H    0.159820
    11  C   -0.299362
    12  C   -0.299514
    13  C   -0.475605
    14  H    0.151048
    15  H    0.149150
    16  H    0.151706
    17  H    0.151773
    18  H    0.155027
    19  H    0.155057
    20  H    0.159992
    21  C   -0.298505
    22  C   -0.299777
    23  C   -0.479919
    24  H    0.149811
    25  H    0.149635
    26  H    0.152230
    27  H    0.151970
    28  H    0.156077
    29  H    0.159431
    30  H    0.160409
    31  C   -0.298272
    32  C   -0.299698
    33  C   -0.475736
    34  H    0.149620
    35  H    0.149701
    36  H    0.151992
    37  H    0.152056
    38  H    0.155200
    39  H    0.155210
    40  H    0.160361
 Sum of Mulliken charges =  -0.00000

 Dipole moment (field-independent basis, Debye):
    X=              0.0658    Y=             -0.0495    Z=              0.0024  Tot=              0.0824
 Quadrupole moment (field-independent basis, Debye-Ang):
   XX=            -86.3363   YY=            -85.5979   ZZ=            -83.1598
   XY=             -0.6024   XZ=             -0.2021   YZ=              0.5187

 Normal termination of Gaussian 16 at Thu May  6 00:31:29 2021.
