 Gaussian 16, Revision A.03,
 Gaussian 16:  EM64L-G16RevA.03 25-Dec-2016

 -------------
 #p 6-31g* mp2
 -------------

 ------------------------------------------------------
 Input file generated by CHIRIPA (05-May-2021 14:57:25)
 ------------------------------------------------------
 Symbolic Z-matrix:
 Charge =  0 Multiplicity = 1

                         Standard orientation:
 ---------------------------------------------------------------------
 Center     Atomic      Atomic             Coordinates (Angstroms)
 Number     Number       Type             X           Y           Z
 ---------------------------------------------------------------------
      1          6           0        2.351662    2.272966   -0.641295
      2          6           0        1.554106    1.197836   -0.235681
      3          6           0        2.123609   -0.054469    0.013207
      4          6           0        3.500195   -0.196836   -0.154220
      5          6           0        4.321401    0.855085   -0.557175
      6          6           0        3.730333    2.098466   -0.800467
      7          1           0        1.900882    3.242320   -0.832464
      8          1           0        0.483135    1.330442   -0.111249
      9          1           0        1.529622   -0.903790    0.328250
     10          1           0        5.386091    0.692207   -0.672600
     11          1           0        4.352184    2.931645   -1.115364
     12          7           0        4.114517   -1.517871    0.106304
     13          8           0        5.329745   -1.617386   -0.048473
     14          8           0        3.369163   -2.428771    0.460347
     15          6           0       -1.724016    1.248372    1.593406
     16          6           0       -2.684612    1.942142    0.850130
     17          6           0       -3.617580    1.249229    0.072963
     18          6           0       -3.560874   -0.143594    0.062174
     19          6           0       -2.615942   -0.863324    0.791821
     20          6           0       -1.692802   -0.149683    1.561934
     21          1           0       -1.003080    1.794695    2.194388
     22          1           0       -2.711220    3.027882    0.872670
     23          1           0       -4.371949    1.761169   -0.512071
     24          1           0       -2.614375   -1.945733    0.749309
     25          1           0       -0.947914   -0.691112    2.138164
     26          7           0       -4.543363   -0.888122   -0.756845
     27          8           0       -4.472335   -2.115126   -0.749429
     28          8           0       -5.365864   -0.230583   -1.390700
 ---------------------------------------------------------------------

 SCF Done:  E(RHF) =  -868.337118120     A.U. after   16 cycles
 E2 =    -0.2601592692D+01 EUMP2 =    -0.87093871081216D+03

 The electronic state is 1-A.
 Alpha  occ. eigenvalues --  -20.61364 -20.61351 -20.61166 -20.61153 -15.86422
 Alpha  occ. eigenvalues --  -15.86215 -11.32025 -11.31623 -11.28637 -11.28601
 Alpha  occ. eigenvalues --  -11.28435 -11.28196 -11.28159 -11.27917 -11.27722
 Alpha  occ. eigenvalues --  -11.27682 -11.27195 -11.27083  -1.60431  -1.60235
 Alpha  occ. eigenvalues --   -1.39977  -1.39789  -1.20255  -1.19781  -1.09624
 Alpha  occ. eigenvalues --   -1.09169  -1.05670  -1.05181  -0.96395  -0.96006
 Alpha  occ. eigenvalues --   -0.87053  -0.86586  -0.83202  -0.82829  -0.78197
 Alpha  occ. eigenvalues --   -0.77877  -0.72633  -0.72431  -0.71759  -0.71559
 Alpha  occ. eigenvalues --   -0.71346  -0.70909  -0.65889  -0.65653  -0.65422
 Alpha  occ. eigenvalues --   -0.65195  -0.62987  -0.62543  -0.56178  -0.55716
 Alpha  occ. eigenvalues --   -0.54139  -0.53736  -0.53518  -0.53089  -0.49412
 Alpha  occ. eigenvalues --   -0.49373  -0.49193  -0.49184  -0.45328  -0.45185
 Alpha  occ. eigenvalues --   -0.38275  -0.37766  -0.37293  -0.36775
 Alpha virt. eigenvalues --    0.04280   0.04651   0.10263   0.10821   0.15616
 Alpha virt. eigenvalues --    0.16154   0.19950   0.21640   0.25379   0.27131
 Alpha virt. eigenvalues --    0.27960   0.28242   0.29996   0.31087   0.31583

 Mulliken charges:
               1
     1  C   -0.173334
     2  C   -0.228600
     3  C   -0.176584
     4  C    0.160264
     5  C   -0.171036
     6  C   -0.217786
     7  H    0.224367
     8  H    0.234053
     9  H    0.271108
    10  H    0.276787
    11  H    0.224453
    12  N    0.488185
    13  O   -0.458572
    14  O   -0.461483
    15  C   -0.185137
    16  C   -0.220599
    17  C   -0.169464
    18  C    0.159701
    19  C   -0.169780
    20  C   -0.225306
    21  H    0.230397
    22  H    0.225067
    23  H    0.278585
    24  H    0.281547
    25  H    0.230168
    26  N    0.487912
    27  O   -0.456341
    28  O   -0.458574
 Sum of Mulliken charges =  -0.00000

 Dipole moment (field-independent basis, Debye):
    X=              1.0543    Y=              7.1874    Z=              1.9462  Tot=              7.5205
 Quadrupole moment (field-independent basis, Debye-Ang):
   XX=           -139.2187   YY=           -103.5724   ZZ=           -104.8265
   XY=              7.0141   XZ=            -13.6402   YZ=             -2.8102

 Normal termination of Gaussian 16 at Thu May  6 01:57:48 2021.
