 Gaussian 16, Revision A.03,
 Gaussian 16:  EM64L-G16RevA.03 25-Dec-2016

 -------------
 #p 6-31g* mp2
 -------------

 ------------------------------------------------------
 Input file generated by CHIRIPA (05-May-2021 14:51:11)
 ------------------------------------------------------
 Symbolic Z-matrix:
 Charge =  0 Multiplicity = 1

                         Standard orientation:
 ---------------------------------------------------------------------
 Center     Atomic      Atomic             Coordinates (Angstroms)
 Number     Number       Type             X           Y           Z
 ---------------------------------------------------------------------
      1          6           0       -2.069642   -0.713452    0.790120
      2          6           0       -1.445931   -2.059406    0.419474
      3          6           0       -0.635137   -2.670129    1.562901
      4          1           0       -1.273824   -0.017793    1.089583
      5          1           0       -2.715773   -0.846212    1.668917
      6          1           0       -0.802253   -1.924417   -0.459202
      7          1           0       -2.243309   -2.751883    0.120675
      8          1           0       -1.269143   -2.833437    2.440379
      9          1           0        0.180101   -2.001270    1.857207
     10          1           0       -0.198256   -3.631821    1.276294
     11          6           0       -2.883311   -0.090317   -0.342740
     12          6           0       -3.507022    1.255637    0.027906
     13          6           0       -4.317816    1.866360   -1.115521
     14          1           0       -2.237180    0.042443   -1.221537
     15          1           0       -3.679129   -0.785976   -0.642203
     16          1           0       -2.709644    1.948114    0.326705
     17          1           0       -4.150700    1.120648    0.906582
     18          1           0       -5.133054    1.197501   -1.409827
     19          1           0       -3.683810    2.029668   -1.992999
     20          1           0       -4.754697    2.828052   -0.828914
     21          6           0        2.083423   -0.216055   -0.440694
     22          6           0        2.972107   -1.418525   -0.760528
     23          6           0        2.171241   -2.647037   -1.193154
     24          1           0        1.375500   -0.492102    0.352772
     25          1           0        1.480472    0.031077   -1.325437
     26          1           0        3.574209   -1.662453    0.124112
     27          1           0        3.678124   -1.139525   -1.553192
     28          1           0        1.582628   -2.427065   -2.089674
     29          1           0        1.478123   -2.952964   -0.402840
     30          1           0        2.826204   -3.494868   -1.416903
     31          6           0        2.869530    1.019825   -0.006686
     32          6           0        1.980846    2.222293    0.313148
     33          6           0        2.781712    3.450805    0.745774
     34          1           0        3.472482    0.772692    0.878057
     35          1           0        3.577453    1.295871   -0.800152
     36          1           0        1.274830    1.943293    1.105812
     37          1           0        1.378744    2.466222   -0.571492
     38          1           0        3.474830    3.756733   -0.044540
     39          1           0        3.370325    3.230833    1.642294
     40          1           0        2.126748    4.298638    0.969523
 ---------------------------------------------------------------------

 SCF Done:  E(RHF) =  -470.731834978     A.U. after   11 cycles
 E2 =    -0.1585639519D+01 EUMP2 =    -0.47231747449735D+03

 The electronic state is 1-A.
 Alpha  occ. eigenvalues --  -11.21678 -11.21617 -11.21572 -11.21523 -11.21452
 Alpha  occ. eigenvalues --  -11.21391 -11.21372 -11.21313 -11.21127 -11.21122
 Alpha  occ. eigenvalues --  -11.21054 -11.20995  -1.08519  -1.08372  -1.03634
 Alpha  occ. eigenvalues --   -1.03462  -0.96062  -0.95942  -0.87061  -0.86975
 Alpha  occ. eigenvalues --   -0.79659  -0.79562  -0.78322  -0.78213  -0.65336
 Alpha  occ. eigenvalues --   -0.64861  -0.61244  -0.60713  -0.59456  -0.59292
 Alpha  occ. eigenvalues --   -0.57803  -0.57443  -0.55369  -0.55196  -0.52739
 Alpha  occ. eigenvalues --   -0.52692  -0.52500  -0.52290  -0.49966  -0.49907
 Alpha  occ. eigenvalues --   -0.48037  -0.47832  -0.46648  -0.46605  -0.46091
 Alpha  occ. eigenvalues --   -0.45866  -0.45530  -0.45386  -0.43821  -0.43768
 Alpha virt. eigenvalues --    0.20154   0.22807   0.23501   0.24149   0.25435
 Alpha virt. eigenvalues --    0.26057   0.26774   0.28110   0.28471   0.29969
 Alpha virt. eigenvalues --    0.30802   0.31444   0.31639   0.31805   0.32187

 Mulliken charges:
               1
     1  C   -0.300211
     2  C   -0.306166
     3  C   -0.482505
     4  H    0.151288
     5  H    0.149086
     6  H    0.160135
     7  H    0.152367
     8  H    0.157336
     9  H    0.155900
    10  H    0.160804
    11  C   -0.298037
    12  C   -0.299927
    13  C   -0.475649
    14  H    0.149716
    15  H    0.149490
    16  H    0.152455
    17  H    0.151735
    18  H    0.155100
    19  H    0.155000
    20  H    0.160155
    21  C   -0.307580
    22  C   -0.298420
    23  C   -0.485113
    24  H    0.158677
    25  H    0.148736
    26  H    0.151662
    27  H    0.151869
    28  H    0.154137
    29  H    0.167548
    30  H    0.159942
    31  C   -0.297856
    32  C   -0.300857
    33  C   -0.475704
    34  H    0.149630
    35  H    0.150049
    36  H    0.152043
    37  H    0.151774
    38  H    0.155500
    39  H    0.155443
    40  H    0.160450
 Sum of Mulliken charges =  -0.00000

 Dipole moment (field-independent basis, Debye):
    X=              0.0117    Y=             -0.0129    Z=              0.0066  Tot=              0.0186
 Quadrupole moment (field-independent basis, Debye-Ang):
   XX=            -84.7329   YY=            -85.6766   ZZ=            -84.4162
   XY=              0.3960   XZ=             -0.8698   YZ=             -0.3846

 Normal termination of Gaussian 16 at Wed May  5 18:15:26 2021.
