 Gaussian 16, Revision A.03,
 Gaussian 16:  EM64L-G16RevA.03 25-Dec-2016

 -------------
 #p 6-31g* mp2
 -------------

 ------------------------------------------------------
 Input file generated by CHIRIPA (05-May-2021 14:57:25)
 ------------------------------------------------------
 Symbolic Z-matrix:
 Charge =  0 Multiplicity = 1

                         Standard orientation:
 ---------------------------------------------------------------------
 Center     Atomic      Atomic             Coordinates (Angstroms)
 Number     Number       Type             X           Y           Z
 ---------------------------------------------------------------------
      1          6           0        1.940729    2.570765    0.328841
      2          6           0        3.119660    2.382149   -0.399903
      3          6           0        3.724501    1.123061   -0.458334
      4          6           0        3.120598    0.070001    0.226980
      5          6           0        1.946162    0.226201    0.961549
      6          6           0        1.358769    1.494088    1.006047
      7          1           0        1.477651    3.552273    0.368820
      8          1           0        3.573845    3.216492   -0.926811
      9          1           0        4.637332    0.949048   -1.015000
     10          1           0        1.516877   -0.624675    1.476469
     11          1           0        0.443211    1.637636    1.572786
     12          7           0        3.751680   -1.267596    0.172497
     13          8           0        3.199826   -2.179168    0.784977
     14          8           0        4.786227   -1.379106   -0.481656
     15          6           0       -0.777998   -1.232987   -0.918799
     16          6           0       -1.058163    0.122341   -1.121570
     17          6           0       -2.295154    0.655424   -0.747104
     18          6           0       -3.233006   -0.199332   -0.169945
     19          6           0       -2.983725   -1.553919    0.045102
     20          6           0       -1.739979   -2.065324   -0.337136
     21          1           0        0.185550   -1.638679   -1.212712
     22          1           0       -0.312980    0.771100   -1.573078
     23          1           0       -2.538388    1.700932   -0.892593
     24          1           0       -3.746626   -2.175804    0.497493
     25          1           0       -1.525160   -3.118282   -0.178458
     26          7           0       -4.546129    0.353544    0.230599
     27          8           0       -5.355437   -0.420461    0.737132
     28          8           0       -4.741184    1.550424    0.030429
 ---------------------------------------------------------------------

 SCF Done:  E(RHF) =  -868.337657843     A.U. after   16 cycles
 E2 =    -0.2602792146D+01 EUMP2 =    -0.87094044998913D+03

 The electronic state is 1-A.
 Alpha  occ. eigenvalues --  -20.61692 -20.61666 -20.61100 -20.61087 -15.86725
 Alpha  occ. eigenvalues --  -15.86147 -11.32058 -11.31511 -11.28569 -11.28543
 Alpha  occ. eigenvalues --  -11.28274 -11.28053 -11.27996 -11.27653 -11.27593
 Alpha  occ. eigenvalues --  -11.27512 -11.27012 -11.26986  -1.60760  -1.60173
 Alpha  occ. eigenvalues --   -1.40311  -1.39726  -1.20225  -1.19653  -1.09616
 Alpha  occ. eigenvalues --   -1.09033  -1.05589  -1.05033  -0.96451  -0.95869
 Alpha  occ. eigenvalues --   -0.86977  -0.86417  -0.83256  -0.82698  -0.78323
 Alpha  occ. eigenvalues --   -0.77768  -0.72929  -0.72359  -0.72108  -0.71502
 Alpha  occ. eigenvalues --   -0.71285  -0.70680  -0.65836  -0.65539  -0.65273
 Alpha  occ. eigenvalues --   -0.65011  -0.62902  -0.62385  -0.56062  -0.55458
 Alpha  occ. eigenvalues --   -0.54201  -0.53628  -0.53263  -0.52994  -0.49698
 Alpha  occ. eigenvalues --   -0.49684  -0.49124  -0.49111  -0.45716  -0.45133
 Alpha  occ. eigenvalues --   -0.38262  -0.38148  -0.37084  -0.36131
 Alpha virt. eigenvalues --    0.04084   0.04749   0.10336   0.11028   0.15645
 Alpha virt. eigenvalues --    0.16349   0.20655   0.21319   0.26637   0.27007
 Alpha virt. eigenvalues --    0.27542   0.28010   0.30389   0.30749   0.31921

 Mulliken charges:
               1
     1  C   -0.177782
     2  C   -0.219307
     3  C   -0.172823
     4  C    0.153255
     5  C   -0.173279
     6  C   -0.217361
     7  H    0.229335
     8  H    0.226605
     9  H    0.277435
    10  H    0.277217
    11  H    0.230549
    12  N    0.487135
    13  O   -0.462262
    14  O   -0.456851
    15  C   -0.176932
    16  C   -0.216041
    17  C   -0.179703
    18  C    0.158645
    19  C   -0.172497
    20  C   -0.220344
    21  H    0.232905
    22  H    0.226248
    23  H    0.272238
    24  H    0.276783
    25  H    0.229593
    26  N    0.487955
    27  O   -0.458650
    28  O   -0.462066
 Sum of Mulliken charges =  -0.00000

 Dipole moment (field-independent basis, Debye):
    X=              2.5236    Y=              2.7198    Z=             -1.1779  Tot=              3.8927
 Quadrupole moment (field-independent basis, Debye-Ang):
   XX=           -146.6045   YY=            -98.8563   ZZ=           -103.2165
   XY=             23.4392   XZ=              0.9095   YZ=             -1.0455

 Normal termination of Gaussian 16 at Thu May  6 21:20:02 2021.
