 Gaussian 16, Revision A.03,
 Gaussian 16:  EM64L-G16RevA.03 25-Dec-2016

 -------------
 #p 6-31g* mp2
 -------------

 ------------------------------------------------------
 Input file generated by CHIRIPA (05-May-2021 14:51:11)
 ------------------------------------------------------
 Symbolic Z-matrix:
 Charge =  0 Multiplicity = 1

                         Standard orientation:
 ---------------------------------------------------------------------
 Center     Atomic      Atomic             Coordinates (Angstroms)
 Number     Number       Type             X           Y           Z
 ---------------------------------------------------------------------
      1          6           0        2.684296   -0.947533    0.356155
      2          6           0        1.844848   -1.849741   -0.549015
      3          6           0        0.564564   -2.339768    0.128140
      4          1           0        2.939592   -1.495022    1.273774
      5          1           0        2.078532   -0.084503    0.665388
      6          1           0        2.452459   -2.710101   -0.857567
      7          1           0        1.591682   -1.300105   -1.464670
      8          1           0       -0.064642   -1.493074    0.421074
      9          1           0        0.801026   -2.911081    1.031626
     10          1           0       -0.020293   -2.983062   -0.536673
     11          6           0        3.967420   -0.449624   -0.306723
     12          6           0        4.806868    0.452584    0.598447
     13          6           0        6.087153    0.942612   -0.078707
     14          1           0        4.573184   -1.312654   -0.615956
     15          1           0        3.712124    0.097865   -1.224342
     16          1           0        5.060035   -0.097052    1.514102
     17          1           0        4.199257    1.312944    0.906999
     18          1           0        5.850690    1.513925   -0.982194
     19          1           0        6.716358    0.095917   -0.371642
     20          1           0        6.672010    1.585905    0.586105
     21          6           0       -3.649253    0.019794   -0.159248
     22          6           0       -5.098395   -0.067257    0.320747
     23          6           0       -5.731687   -1.431241    0.044564
     24          1           0       -3.613280   -0.191344   -1.236779
     25          1           0       -3.059440   -0.765796    0.333058
     26          1           0       -5.685005    0.719141   -0.171273
     27          1           0       -5.130945    0.144301    1.397222
     28          1           0       -5.171383   -2.225301    0.548678
     29          1           0       -5.728592   -1.647194   -1.028729
     30          1           0       -6.767511   -1.471447    0.395725
     31          6           0       -3.002463    1.377363    0.109816
     32          6           0       -1.553321    1.464413   -0.370179
     33          6           0       -0.920029    2.828399   -0.093996
     34          1           0       -3.592277    2.162952   -0.382490
     35          1           0       -3.038436    1.588500    1.187347
     36          1           0       -1.520771    1.252855   -1.446655
     37          1           0       -0.966712    0.678015    0.121840
     38          1           0       -0.923125    3.044351    0.979296
     39          1           0       -1.480333    3.622457   -0.598111
     40          1           0        0.115793    2.868604   -0.445157
 ---------------------------------------------------------------------

 SCF Done:  E(RHF) =  -470.733307587     A.U. after   11 cycles
 E2 =    -0.1583034589D+01 EUMP2 =    -0.47231634217519D+03

 The electronic state is 1-A.
 Alpha  occ. eigenvalues --  -11.21649 -11.21599 -11.21599 -11.21592 -11.21421
 Alpha  occ. eigenvalues --  -11.21406 -11.21355 -11.21346 -11.21132 -11.21069
 Alpha  occ. eigenvalues --  -11.21060 -11.21052  -1.08458  -1.08422  -1.03566
 Alpha  occ. eigenvalues --   -1.03515  -0.96000  -0.95977  -0.87024  -0.86987
 Alpha  occ. eigenvalues --   -0.79649  -0.79564  -0.78293  -0.78211  -0.65166
 Alpha  occ. eigenvalues --   -0.64988  -0.61070  -0.60823  -0.59383  -0.59326
 Alpha  occ. eigenvalues --   -0.57612  -0.57586  -0.55286  -0.55278  -0.52703
 Alpha  occ. eigenvalues --   -0.52666  -0.52445  -0.52386  -0.50011  -0.49883
 Alpha  occ. eigenvalues --   -0.48032  -0.47834  -0.46814  -0.46516  -0.45902
 Alpha  occ. eigenvalues --   -0.45773  -0.45748  -0.45438  -0.43806  -0.43780
 Alpha virt. eigenvalues --    0.20437   0.23023   0.23753   0.24548   0.25655
 Alpha virt. eigenvalues --    0.26574   0.26935   0.27423   0.28557   0.29175
 Alpha virt. eigenvalues --    0.30685   0.31495   0.31745   0.31927   0.31987

 Mulliken charges:
               1
     1  C   -0.299688
     2  C   -0.299218
     3  C   -0.482405
     4  H    0.149581
     5  H    0.150180
     6  H    0.151952
     7  H    0.152543
     8  H    0.160944
     9  H    0.154822
    10  H    0.160733
    11  C   -0.298254
    12  C   -0.299715
    13  C   -0.475699
    14  H    0.149589
    15  H    0.149632
    16  H    0.151911
    17  H    0.152027
    18  H    0.155166
    19  H    0.155171
    20  H    0.160283
    21  C   -0.300089
    22  C   -0.299667
    23  C   -0.475762
    24  H    0.149660
    25  H    0.151608
    26  H    0.151892
    27  H    0.151950
    28  H    0.155567
    29  H    0.155129
    30  H    0.160196
    31  C   -0.297864
    32  C   -0.307707
    33  C   -0.475355
    34  H    0.149706
    35  H    0.149573
    36  H    0.152088
    37  H    0.158919
    38  H    0.155338
    39  H    0.155636
    40  H    0.159627
 Sum of Mulliken charges =  -0.00000

 Dipole moment (field-independent basis, Debye):
    X=             -0.0141    Y=             -0.0003    Z=             -0.0038  Tot=              0.0146
 Quadrupole moment (field-independent basis, Debye-Ang):
   XX=            -85.7036   YY=            -85.0832   ZZ=            -83.9531
   XY=             -1.4948   XZ=              0.7333   YZ=             -0.5654

 Normal termination of Gaussian 16 at Wed May  5 23:05:58 2021.
