 Gaussian 16, Revision A.03,
 Gaussian 16:  EM64L-G16RevA.03 25-Dec-2016

 -------------
 #p 6-31g* mp2
 -------------

 ------------------------------------------------------
 Input file generated by CHIRIPA (05-May-2021 14:53:15)
 ------------------------------------------------------
 Symbolic Z-matrix:
 Charge =  0 Multiplicity = 1

                         Standard orientation:
 ---------------------------------------------------------------------
 Center     Atomic      Atomic             Coordinates (Angstroms)
 Number     Number       Type             X           Y           Z
 ---------------------------------------------------------------------
      1          6           0       -3.462435    0.539616   -0.224400
      2          6           0       -3.652182    2.052912   -0.115244
      3          6           0       -2.331127    2.820280   -0.176520
      4          1           0       -2.801610    0.200021    0.584878
      5          1           0       -2.946623    0.308799   -1.166767
      6          1           0       -4.168717    2.280697    0.825990
      7          1           0       -4.312787    2.388917   -0.924762
      8          1           0       -1.814043    2.622265   -1.120986
      9          1           0       -1.669155    2.513431    0.639714
     10          1           0       -2.490067    3.900199   -0.096688
     11          6           0       -4.774071   -0.241267   -0.164734
     12          6           0       -4.584324   -1.754564   -0.273890
     13          6           0       -5.905379   -2.521931   -0.212614
     14          1           0       -5.289883   -0.010451    0.777633
     15          1           0       -5.434896    0.098327   -0.974012
     16          1           0       -3.923720   -2.090568    0.535628
     17          1           0       -4.067789   -1.982348   -1.215124
     18          1           0       -6.567351   -2.215082   -1.028848
     19          1           0       -6.422463   -2.323917    0.731851
     20          1           0       -5.746439   -3.601850   -0.292447
     21          6           0        1.039379    0.754547    1.081208
     22          6           0        1.428707   -0.565582    1.330618
     23          6           0        2.633377   -1.058926    0.820787
     24          6           0        3.427947   -0.200756    0.062173
     25          6           0        3.067510    1.119356   -0.203679
     26          6           0        1.858579    1.591328    0.316204
     27          1           0        0.101908    1.129487    1.481162
     28          1           0        0.794505   -1.217700    1.924399
     29          1           0        2.959011   -2.076659    0.998554
     30          1           0        3.720783    1.745577   -0.799077
     31          1           0        1.558762    2.617004    0.120903
     32          7           0        4.705532   -0.711724   -0.482882
     33          8           0        5.387761    0.064454   -1.148277
     34          8           0        5.000485   -1.878724   -0.234383
 ---------------------------------------------------------------------

 SCF Done:  E(RHF) =  -669.535398107     A.U. after   15 cycles
 E2 =    -0.2091276119D+01 EUMP2 =    -0.67162667422645D+03

 The electronic state is 1-A.
 Alpha  occ. eigenvalues --  -20.60718 -20.60713 -15.85772 -11.31125 -11.27696
 Alpha  occ. eigenvalues --  -11.27688 -11.27412 -11.26707 -11.26684 -11.22526
 Alpha  occ. eigenvalues --  -11.22260 -11.22250 -11.22202 -11.22056 -11.21556
 Alpha  occ. eigenvalues --   -1.59794  -1.39348  -1.19295  -1.09217  -1.08690
 Alpha  occ. eigenvalues --   -1.04697  -1.04320  -0.96788  -0.95530  -0.87807
 Alpha  occ. eigenvalues --   -0.86092  -0.82366  -0.80393  -0.79007  -0.77411
 Alpha  occ. eigenvalues --   -0.71990  -0.71118  -0.70430  -0.65847  -0.64947
 Alpha  occ. eigenvalues --   -0.64700  -0.62046  -0.61721  -0.60158  -0.58386
 Alpha  occ. eigenvalues --   -0.56138  -0.55182  -0.53468  -0.53212  -0.53011
 Alpha  occ. eigenvalues --   -0.52784  -0.50730  -0.48753  -0.48746  -0.48690
 Alpha  occ. eigenvalues --   -0.47414  -0.46557  -0.46453  -0.44757  -0.44563
 Alpha  occ. eigenvalues --   -0.37262  -0.36302
 Alpha virt. eigenvalues --    0.05113   0.11334   0.16559   0.19389   0.22462
 Alpha virt. eigenvalues --    0.23734   0.25251   0.25929   0.26625   0.27885
 Alpha virt. eigenvalues --    0.28909   0.30078   0.31001   0.31415   0.31720

 Mulliken charges:
               1
     1  C   -0.297640
     2  C   -0.300274
     3  C   -0.478713
     4  H    0.141515
     5  H    0.153269
     6  H    0.153523
     7  H    0.156550
     8  H    0.159217
     9  H    0.143565
    10  H    0.164520
    11  C   -0.298969
    12  C   -0.299737
    13  C   -0.476164
    14  H    0.150123
    15  H    0.152238
    16  H    0.149473
    17  H    0.153929
    18  H    0.156656
    19  H    0.155532
    20  H    0.161999
    21  C   -0.172542
    22  C   -0.219278
    23  C   -0.170936
    24  C    0.158292
    25  C   -0.171173
    26  C   -0.220523
    27  H    0.230282
    28  H    0.223090
    29  H    0.275293
    30  H    0.275384
    31  H    0.224712
    32  N    0.488056
    33  O   -0.460629
    34  O   -0.460638
 Sum of Mulliken charges =  -0.00000

 Dipole moment (field-independent basis, Debye):
    X=             -4.7249    Y=              1.8087    Z=              1.8167  Tot=              5.3756
 Quadrupole moment (field-independent basis, Debye-Ang):
   XX=           -126.1860   YY=            -91.9427   ZZ=            -93.2907
   XY=              7.3879   XZ=              6.2871   YZ=             -2.6141

 Normal termination of Gaussian 16 at Wed May  5 20:17:00 2021.
