 Gaussian 16, Revision A.03,
 Gaussian 16:  EM64L-G16RevA.03 25-Dec-2016

 -------------
 #p 6-31g* mp2
 -------------

 ------------------------------------------------------
 Input file generated by CHIRIPA (05-May-2021 14:55:23)
 ------------------------------------------------------
 Symbolic Z-matrix:
 Charge =  0 Multiplicity = 1

                         Standard orientation:
 ---------------------------------------------------------------------
 Center     Atomic      Atomic             Coordinates (Angstroms)
 Number     Number       Type             X           Y           Z
 ---------------------------------------------------------------------
      1          6           0        1.848094   -1.372804    2.267622
      2          6           0        2.116676   -2.169735    1.149908
      3          6           0        2.224058   -1.597234   -0.121021
      4          6           0        2.056398   -0.218319   -0.238383
      5          6           0        1.788011    0.602337    0.856049
      6          6           0        1.684907    0.008254    2.117390
      7          1           0        1.766339   -1.825919    3.251186
      8          1           0        2.243878   -3.242554    1.263591
      9          1           0        2.431286   -2.190673   -1.003237
     10          1           0        1.666153    1.668919    0.711228
     11          1           0        1.476250    0.629626    2.983649
     12          7           0        2.167814    0.399186   -1.578784
     13          8           0        2.015932    1.616425   -1.655590
     14          8           0        2.404916   -0.345744   -2.527203
     15          6           0       -2.758847   -0.147952   -0.477528
     16          6           0       -3.716754   -1.208293    0.066600
     17          6           0       -4.007462   -2.317275   -0.945054
     18          1           0       -3.186147    0.289258   -1.390330
     19          1           0       -1.817580   -0.631462   -0.773547
     20          1           0       -4.655428   -0.722723    0.362792
     21          1           0       -3.287214   -1.642894    0.978321
     22          1           0       -3.082910   -2.827978   -1.233130
     23          1           0       -4.458898   -1.902579   -1.852156
     24          1           0       -4.694281   -3.064469   -0.535374
     25          6           0       -2.458522    0.967387    0.522249
     26          6           0       -1.500616    2.027728   -0.021880
     27          6           0       -1.209909    3.136709    0.989774
     28          1           0       -3.399790    1.450897    0.818269
     29          1           0       -2.031223    0.530177    1.435051
     30          1           0       -1.930157    2.462329   -0.933599
     31          1           0       -0.561942    1.542158   -0.318071
     32          1           0       -0.758472    2.722014    1.896876
     33          1           0       -2.134461    3.647413    1.277851
     34          1           0       -0.523089    3.883904    0.580094
 ---------------------------------------------------------------------

 SCF Done:  E(RHF) =  -669.534976342     A.U. after   15 cycles
 E2 =    -0.2094590363D+01 EUMP2 =    -0.67162956670474D+03

 The electronic state is 1-A.
 Alpha  occ. eigenvalues --  -20.60932 -20.60907 -15.85944 -11.31292 -11.27880
 Alpha  occ. eigenvalues --  -11.27848 -11.27614 -11.26871 -11.26861 -11.21614
 Alpha  occ. eigenvalues --  -11.21393 -11.21337 -11.21280 -11.21232 -11.21070
 Alpha  occ. eigenvalues --   -1.59980  -1.39536  -1.19482  -1.08874  -1.08386
 Alpha  occ. eigenvalues --   -1.04883  -1.03519  -0.96009  -0.95703  -0.87018
 Alpha  occ. eigenvalues --   -0.86282  -0.82539  -0.79571  -0.78194  -0.77583
 Alpha  occ. eigenvalues --   -0.72170  -0.71306  -0.70596  -0.65133  -0.65115
 Alpha  occ. eigenvalues --   -0.64813  -0.62298  -0.60866  -0.59341  -0.57585
 Alpha  occ. eigenvalues --   -0.55455  -0.55228  -0.53204  -0.52947  -0.52686
 Alpha  occ. eigenvalues --   -0.52416  -0.49970  -0.48953  -0.48923  -0.47889
 Alpha  occ. eigenvalues --   -0.46641  -0.45775  -0.45690  -0.44767  -0.43755
 Alpha  occ. eigenvalues --   -0.37434  -0.36432
 Alpha virt. eigenvalues --    0.04920   0.11093   0.16335   0.20485   0.22979
 Alpha virt. eigenvalues --    0.24027   0.26239   0.26771   0.27201   0.27940
 Alpha virt. eigenvalues --    0.29373   0.30106   0.31519   0.32000   0.32092

 Mulliken charges:
               1
     1  C   -0.170608
     2  C   -0.218813
     3  C   -0.170989
     4  C    0.159990
     5  C   -0.174819
     6  C   -0.220884
     7  H    0.226255
     8  H    0.223937
     9  H    0.276022
    10  H    0.281466
    11  H    0.224592
    12  N    0.488640
    13  O   -0.458811
    14  O   -0.458902
    15  C   -0.298037
    16  C   -0.299196
    17  C   -0.475526
    18  H    0.152623
    19  H    0.149502
    20  H    0.151730
    21  H    0.148734
    22  H    0.154803
    23  H    0.157095
    24  H    0.158935
    25  C   -0.297827
    26  C   -0.304389
    27  C   -0.480511
    28  H    0.148464
    29  H    0.144572
    30  H    0.157648
    31  H    0.158507
    32  H    0.142257
    33  H    0.157714
    34  H    0.165825
 Sum of Mulliken charges =  -0.00000

 Dipole moment (field-independent basis, Debye):
    X=             -0.3119    Y=             -2.1641    Z=              4.5880  Tot=              5.0824
 Quadrupole moment (field-independent basis, Debye-Ang):
   XX=            -96.4812   YY=            -90.2606   ZZ=            -97.0545
   XY=             -6.2044   XZ=              9.8280   YZ=              0.5002

 Normal termination of Gaussian 16 at Wed May  5 17:33:50 2021.
