 Gaussian 16, Revision A.03,
 Gaussian 16:  EM64L-G16RevA.03 25-Dec-2016

 -------------
 #p 6-31g* mp2
 -------------

 ------------------------------------------------------
 Input file generated by CHIRIPA (05-May-2021 14:55:25)
 ------------------------------------------------------
 Symbolic Z-matrix:
 Charge =  0 Multiplicity = 1

                         Standard orientation:
 ---------------------------------------------------------------------
 Center     Atomic      Atomic             Coordinates (Angstroms)
 Number     Number       Type             X           Y           Z
 ---------------------------------------------------------------------
      1          6           0        3.764747    0.208599   -2.205175
      2          6           0        4.483471   -0.516522   -1.249060
      3          6           0        3.944544   -0.746641    0.020252
      4          6           0        2.678587   -0.234843    0.300799
      5          6           0        1.937850    0.491384   -0.630433
      6          6           0        2.496466    0.709355   -1.893360
      7          1           0        4.191046    0.382642   -3.188727
      8          1           0        5.468650   -0.906607   -1.488433
      9          1           0        4.479200   -1.304678    0.779300
     10          1           0        0.958052    0.867686   -0.362458
     11          1           0        1.936016    1.272842   -2.633915
     12          7           0        2.097627   -0.472028    1.641182
     13          8           0        0.980394   -0.010535    1.863561
     14          8           0        2.770503   -1.114938    2.444016
     15          6           0       -3.560975   -0.513201   -0.101249
     16          6           0       -4.846015   -1.103852   -0.682446
     17          6           0       -4.850661   -2.632804   -0.673588
     18          1           0       -2.701288   -0.887230   -0.673950
     19          1           0       -3.432138   -0.875227    0.928184
     20          1           0       -4.973108   -0.739721   -1.710002
     21          1           0       -5.702757   -0.728224   -0.108416
     22          1           0       -4.748535   -3.012439    0.348199
     23          1           0       -4.014739   -3.024001   -1.262488
     24          1           0       -5.778433   -3.033891   -1.093383
     25          6           0       -3.541326    1.014325   -0.103262
     26          6           0       -2.256286    1.604976    0.477935
     27          6           0       -2.251640    3.133928    0.469076
     28          1           0       -3.670161    1.376351   -1.132696
     29          1           0       -4.401012    1.388353    0.469439
     30          1           0       -1.399543    1.229347   -0.096096
     31          1           0       -2.129192    1.240844    1.505491
     32          1           0       -3.087560    3.525125    1.057975
     33          1           0       -2.353766    3.513563   -0.552711
     34          1           0       -1.323867    3.535015    0.888870
 ---------------------------------------------------------------------

 SCF Done:  E(RHF) =  -669.535454360     A.U. after   15 cycles
 E2 =    -0.2091613916D+01 EUMP2 =    -0.67162706827569D+03

 The electronic state is 1-A.
 Alpha  occ. eigenvalues --  -20.60774 -20.60768 -15.85823 -11.31190 -11.27764
 Alpha  occ. eigenvalues --  -11.27743 -11.27512 -11.26783 -11.26773 -11.21375
 Alpha  occ. eigenvalues --  -11.21293 -11.21144 -11.21055 -11.20887 -11.20847
 Alpha  occ. eigenvalues --   -1.59848  -1.39400  -1.19367  -1.08763  -1.08168
 Alpha  occ. eigenvalues --   -1.04772  -1.03289  -0.95749  -0.95595  -0.86764
 Alpha  occ. eigenvalues --   -0.86171  -0.82428  -0.79342  -0.77984  -0.77442
 Alpha  occ. eigenvalues --   -0.72041  -0.71169  -0.70484  -0.65020  -0.64886
 Alpha  occ. eigenvalues --   -0.64714  -0.62144  -0.60685  -0.59100  -0.57342
 Alpha  occ. eigenvalues --   -0.55281  -0.55043  -0.53101  -0.52877  -0.52443
 Alpha  occ. eigenvalues --   -0.52163  -0.49695  -0.48812  -0.48804  -0.47630
 Alpha  occ. eigenvalues --   -0.46372  -0.45516  -0.45412  -0.44801  -0.43537
 Alpha  occ. eigenvalues --   -0.37351  -0.36375
 Alpha virt. eigenvalues --    0.05054   0.11268   0.16551   0.20474   0.23090
 Alpha virt. eigenvalues --    0.24074   0.25798   0.27297   0.27691   0.28206
 Alpha virt. eigenvalues --    0.29199   0.30623   0.31508   0.31822   0.32174

 Mulliken charges:
               1
     1  C   -0.170406
     2  C   -0.219131
     3  C   -0.169729
     4  C    0.155457
     5  C   -0.179334
     6  C   -0.222991
     7  H    0.225628
     8  H    0.223465
     9  H    0.275669
    10  H    0.292453
    11  H    0.223694
    12  N    0.487263
    13  O   -0.461730
    14  O   -0.460393
    15  C   -0.297556
    16  C   -0.299521
    17  C   -0.475465
    18  H    0.146844
    19  H    0.156052
    20  H    0.149330
    21  H    0.151993
    22  H    0.157338
    23  H    0.154074
    24  H    0.159007
    25  C   -0.298355
    26  C   -0.301435
    27  C   -0.477465
    28  H    0.144783
    29  H    0.150247
    30  H    0.142742
    31  H    0.169217
    32  H    0.156910
    33  H    0.149359
    34  H    0.161987
 Sum of Mulliken charges =  -0.00000

 Dipole moment (field-independent basis, Debye):
    X=              2.0491    Y=              0.7968    Z=             -4.5466  Tot=              5.0503
 Quadrupole moment (field-independent basis, Debye-Ang):
   XX=            -80.5717   YY=            -95.9692   ZZ=            -96.9183
   XY=             -0.7727   XZ=            -11.9602   YZ=              0.6371

 Normal termination of Gaussian 16 at Thu May  6 03:14:49 2021.
