 Gaussian 16, Revision A.03,
 Gaussian 16:  EM64L-G16RevA.03 25-Dec-2016

 -------------
 #p 6-31g* mp2
 -------------

 ------------------------------------------------------
 Input file generated by CHIRIPA (05-May-2021 14:51:11)
 ------------------------------------------------------
 Symbolic Z-matrix:
 Charge =  0 Multiplicity = 1

                         Standard orientation:
 ---------------------------------------------------------------------
 Center     Atomic      Atomic             Coordinates (Angstroms)
 Number     Number       Type             X           Y           Z
 ---------------------------------------------------------------------
      1          6           0        3.029157   -0.190796   -0.154701
      2          6           0        4.484745   -0.189650    0.313535
      3          6           0        5.171556    1.160479    0.105599
      4          1           0        2.992663    0.080767   -1.218593
      5          1           0        2.476639    0.589875    0.386290
      6          1           0        5.034032   -0.971014   -0.227179
      7          1           0        4.517793   -0.461434    1.376388
      8          1           0        4.648974    1.947743    0.658522
      9          1           0        5.168146    1.435268   -0.954156
     10          1           0        6.211146    1.138889    0.447136
     11          6           0        2.329065   -1.533580    0.046626
     12          6           0        0.873476   -1.534726   -0.421610
     13          6           0        0.186665   -2.884855   -0.213674
     14          1           0        2.881583   -2.314251   -0.494365
     15          1           0        2.365558   -1.805143    1.110518
     16          1           0        0.840429   -1.262942   -1.484463
     17          1           0        0.324190   -0.753362    0.119104
     18          1           0        0.190076   -3.159644    0.846081
     19          1           0        0.709248   -3.672119   -0.766597
     20          1           0       -0.852924   -2.863265   -0.555211
     21          6           0       -2.481289    1.510080   -0.298856
     22          6           0       -1.384943    2.287401    0.430379
     23          6           0       -1.000024    3.581145   -0.287852
     24          1           0       -2.141913    1.278484   -1.317744
     25          1           0       -3.368016    2.150634   -0.402786
     26          1           0       -0.501030    1.645100    0.534127
     27          1           0       -1.726893    2.517007    1.447712
     28          1           0       -1.866637    4.244010   -0.378379
     29          1           0       -0.633808    3.367148   -1.297155
     30          1           0       -0.214810    4.120919    0.250610
     31          6           0       -2.876933    0.214296    0.406931
     32          6           0       -3.973278   -0.563024   -0.322304
     33          6           0       -4.358198   -1.856769    0.395927
     34          1           0       -1.990206   -0.426258    0.510862
     35          1           0       -3.216309    0.445892    1.425819
     36          1           0       -3.631329   -0.792630   -1.339638
     37          1           0       -4.857192    0.079276   -0.426052
     38          1           0       -4.724414   -1.642773    1.405231
     39          1           0       -3.491586   -2.519633    0.486454
     40          1           0       -5.143412   -2.396544   -0.142535
 ---------------------------------------------------------------------

 SCF Done:  E(RHF) =  -470.732899715     A.U. after   11 cycles
 E2 =    -0.1584400209D+01 EUMP2 =    -0.47231729992414D+03

 The electronic state is 1-A.
 Alpha  occ. eigenvalues --  -11.21677 -11.21638 -11.21598 -11.21583 -11.21465
 Alpha  occ. eigenvalues --  -11.21405 -11.21369 -11.21301 -11.21172 -11.21094
 Alpha  occ. eigenvalues --  -11.21060 -11.21051  -1.08510  -1.08398  -1.03599
 Alpha  occ. eigenvalues --   -1.03514  -0.96047  -0.95959  -0.87059  -0.86977
 Alpha  occ. eigenvalues --   -0.79674  -0.79579  -0.78391  -0.78152  -0.65304
 Alpha  occ. eigenvalues --   -0.64910  -0.60995  -0.60932  -0.59415  -0.59318
 Alpha  occ. eigenvalues --   -0.57668  -0.57559  -0.55363  -0.55219  -0.52751
 Alpha  occ. eigenvalues --   -0.52656  -0.52466  -0.52382  -0.49993  -0.49895
 Alpha  occ. eigenvalues --   -0.48028  -0.47872  -0.46858  -0.46620  -0.46117
 Alpha  occ. eigenvalues --   -0.45819  -0.45738  -0.45136  -0.43844  -0.43761
 Alpha virt. eigenvalues --    0.19978   0.21945   0.23475   0.24573   0.25723
 Alpha virt. eigenvalues --    0.26660   0.27066   0.27430   0.27573   0.29765
 Alpha virt. eigenvalues --    0.30481   0.31412   0.31727   0.31913   0.32440

 Mulliken charges:
               1
     1  C   -0.300003
     2  C   -0.299708
     3  C   -0.475764
     4  H    0.149714
     5  H    0.150704
     6  H    0.152131
     7  H    0.152110
     8  H    0.155371
     9  H    0.155264
    10  H    0.160387
    11  C   -0.297407
    12  C   -0.309801
    13  C   -0.479220
    14  H    0.149839
    15  H    0.149865
    16  H    0.151830
    17  H    0.160724
    18  H    0.155795
    19  H    0.156147
    20  H    0.162723
    21  C   -0.297580
    22  C   -0.305396
    23  C   -0.475289
    24  H    0.150037
    25  H    0.149547
    26  H    0.155980
    27  H    0.151713
    28  H    0.155169
    29  H    0.155613
    30  H    0.159937
    31  C   -0.306947
    32  C   -0.299040
    33  C   -0.478547
    34  H    0.158553
    35  H    0.149178
    36  H    0.151526
    37  H    0.151939
    38  H    0.155229
    39  H    0.157476
    40  H    0.160203
 Sum of Mulliken charges =  -0.00000

 Dipole moment (field-independent basis, Debye):
    X=              0.0371    Y=             -0.0157    Z=             -0.0011  Tot=              0.0403
 Quadrupole moment (field-independent basis, Debye-Ang):
   XX=            -84.7830   YY=            -86.2040   ZZ=            -83.7811
   XY=             -1.4130   XZ=             -0.4508   YZ=              0.9979

 Normal termination of Gaussian 16 at Thu May  6 05:27:41 2021.
