 Gaussian 16, Revision A.03,
 Gaussian 16:  EM64L-G16RevA.03 25-Dec-2016

 -------------
 #p 6-31g* mp2
 -------------

 ------------------------------------------------------
 Input file generated by CHIRIPA (05-May-2021 14:51:12)
 ------------------------------------------------------
 Symbolic Z-matrix:
 Charge =  0 Multiplicity = 1

                         Standard orientation:
 ---------------------------------------------------------------------
 Center     Atomic      Atomic             Coordinates (Angstroms)
 Number     Number       Type             X           Y           Z
 ---------------------------------------------------------------------
      1          6           0       -2.726111   -0.177578    1.012717
      2          6           0       -1.235075    0.134968    0.881897
      3          6           0       -0.510201    0.132404    2.228131
      4          1           0       -3.191167    0.558591    1.682584
      5          1           0       -2.847274   -1.158132    1.493580
      6          1           0       -1.116743    1.114025    0.400170
      7          1           0       -0.773552   -0.601917    0.212112
      8          1           0       -0.598632   -0.845971    2.711415
      9          1           0       -0.943772    0.879720    2.900541
     10          1           0        0.554350    0.358118    2.111321
     11          6           0       -3.464473   -0.178684   -0.324649
     12          6           0       -4.955508   -0.491230   -0.193830
     13          6           0       -5.680383   -0.488666   -1.540063
     14          1           0       -3.343310    0.801870   -0.805513
     15          1           0       -2.999416   -0.914853   -0.994517
     16          1           0       -5.417031    0.245654    0.475956
     17          1           0       -5.073840   -1.470287    0.287898
     18          1           0       -5.246811   -1.235982   -2.212474
     19          1           0       -5.591952    0.489709   -2.023347
     20          1           0       -6.744934   -0.714380   -1.423253
     21          6           0        3.601891   -0.351837   -0.558330
     22          6           0        3.324849   -1.731995    0.038658
     23          6           0        4.346858   -2.781510   -0.399303
     24          1           0        3.605307   -0.427400   -1.654334
     25          1           0        4.609995   -0.028430   -0.264173
     26          1           0        2.317038   -2.052101   -0.255392
     27          1           0        3.321902   -1.653102    1.133365
     28          1           0        5.355946   -2.488289   -0.092115
     29          1           0        4.345372   -2.889557   -1.488764
     30          1           0        4.129853   -3.760614    0.039019
     31          6           0        2.588692    0.708099   -0.129737
     32          6           0        2.865735    2.088258   -0.726726
     33          6           0        1.843725    3.137772   -0.288764
     34          1           0        1.580588    0.384691   -0.423895
     35          1           0        2.585277    0.783661    0.966266
     36          1           0        2.868682    2.009363   -1.821433
     37          1           0        3.873545    2.408363   -0.432676
     38          1           0        1.845211    3.245819    0.800697
     39          1           0        0.834638    2.844552   -0.595951
     40          1           0        2.060731    4.116876   -0.727086
 ---------------------------------------------------------------------

 SCF Done:  E(RHF) =  -470.732444008     A.U. after   11 cycles
 E2 =    -0.1584376660D+01 EUMP2 =    -0.47231682066789D+03

 The electronic state is 1-A.
 Alpha  occ. eigenvalues --  -11.21618 -11.21605 -11.21598 -11.21565 -11.21395
 Alpha  occ. eigenvalues --  -11.21392 -11.21328 -11.21324 -11.21084 -11.21083
 Alpha  occ. eigenvalues --  -11.21071 -11.20915  -1.08469  -1.08385  -1.03561
 Alpha  occ. eigenvalues --   -1.03477  -0.96013  -0.95919  -0.87027  -0.86941
 Alpha  occ. eigenvalues --   -0.79633  -0.79550  -0.78379  -0.78131  -0.65083
 Alpha  occ. eigenvalues --   -0.65034  -0.60960  -0.60880  -0.59498  -0.59216
 Alpha  occ. eigenvalues --   -0.57740  -0.57422  -0.55299  -0.55208  -0.52774
 Alpha  occ. eigenvalues --   -0.52645  -0.52477  -0.52222  -0.49969  -0.49852
 Alpha  occ. eigenvalues --   -0.47957  -0.47902  -0.46690  -0.46547  -0.46002
 Alpha  occ. eigenvalues --   -0.45739  -0.45681  -0.45420  -0.43794  -0.43694
 Alpha virt. eigenvalues --    0.21084   0.23169   0.23377   0.24410   0.24979
 Alpha virt. eigenvalues --    0.25948   0.26560   0.27777   0.28174   0.29629
 Alpha virt. eigenvalues --    0.30267   0.31290   0.31693   0.31837   0.32137

 Mulliken charges:
               1
     1  C   -0.298105
     2  C   -0.302789
     3  C   -0.481244
     4  H    0.149776
     5  H    0.149540
     6  H    0.154146
     7  H    0.151176
     8  H    0.154199
     9  H    0.154119
    10  H    0.167730
    11  C   -0.298245
    12  C   -0.299596
    13  C   -0.475697
    14  H    0.149186
    15  H    0.149161
    16  H    0.152049
    17  H    0.151966
    18  H    0.155054
    19  H    0.155149
    20  H    0.160278
    21  C   -0.297404
    22  C   -0.300263
    23  C   -0.475642
    24  H    0.149499
    25  H    0.149340
    26  H    0.151692
    27  H    0.152195
    28  H    0.155322
    29  H    0.155174
    30  H    0.160266
    31  C   -0.308022
    32  C   -0.298859
    33  C   -0.478639
    34  H    0.159245
    35  H    0.151465
    36  H    0.151821
    37  H    0.151714
    38  H    0.155425
    39  H    0.157482
    40  H    0.160332
 Sum of Mulliken charges =  -0.00000

 Dipole moment (field-independent basis, Debye):
    X=              0.0282    Y=              0.0080    Z=             -0.0108  Tot=              0.0313
 Quadrupole moment (field-independent basis, Debye-Ang):
   XX=            -85.3523   YY=            -84.5076   ZZ=            -85.0234
   XY=              0.4660   XZ=              0.0468   YZ=              0.0796

 Normal termination of Gaussian 16 at Wed May  5 15:18:21 2021.
