 Gaussian 16, Revision A.03,
 Gaussian 16:  EM64L-G16RevA.03 25-Dec-2016

 -------------
 #p 6-31g* mp2
 -------------

 ------------------------------------------------------
 Input file generated by CHIRIPA (05-May-2021 14:53:18)
 ------------------------------------------------------
 Symbolic Z-matrix:
 Charge =  0 Multiplicity = 1

                         Standard orientation:
 ---------------------------------------------------------------------
 Center     Atomic      Atomic             Coordinates (Angstroms)
 Number     Number       Type             X           Y           Z
 ---------------------------------------------------------------------
      1          6           0        3.656189   -0.480970   -0.050765
      2          6           0        5.001591   -0.698475    0.642467
      3          6           0        5.362689   -2.177694    0.781438
      4          1           0        2.870883   -0.999925    0.515738
      5          1           0        3.684356   -0.947481   -1.045234
      6          1           0        4.971368   -0.230496    1.634786
      7          1           0        5.783757   -0.178782    0.074354
      8          1           0        5.420360   -2.654254   -0.202516
      9          1           0        4.603355   -2.706262    1.366783
     10          1           0        6.328128   -2.310180    1.279672
     11          6           0        3.281324    0.992731   -0.197087
     12          6           0        1.935922    1.210235   -0.890318
     13          6           0        1.574823    2.689454   -1.029290
     14          1           0        3.253157    1.459242    0.797383
     15          1           0        4.066630    1.511685   -0.763589
     16          1           0        1.153756    0.690543   -0.322205
     17          1           0        1.966144    0.742256   -1.882638
     18          1           0        2.334157    3.218022   -1.614635
     19          1           0        1.517153    3.166014   -0.045336
     20          1           0        0.609385    2.821940   -1.527523
     21          6           0       -2.421139    2.084571    1.128160
     22          6           0       -2.930820    1.030438    1.893372
     23          6           0       -3.095110   -0.239522    1.332339
     24          6           0       -2.737889   -0.420761   -0.002889
     25          6           0       -2.227500    0.609468   -0.791192
     26          6           0       -2.071723    1.871098   -0.209323
     27          1           0       -2.296821    3.067870    1.572077
     28          1           0       -3.203022    1.193314    2.932325
     29          1           0       -3.487411   -1.073270    1.901886
     30          1           0       -1.965013    0.416456   -1.824277
     31          1           0       -1.675659    2.687899   -0.805992
     32          7           0       -2.907309   -1.760801   -0.607860
     33          8           0       -2.585118   -1.894597   -1.786388
     34          8           0       -3.359086   -2.651955    0.107948
 ---------------------------------------------------------------------

 SCF Done:  E(RHF) =  -669.535231951     A.U. after   15 cycles
 E2 =    -0.2092069607D+01 EUMP2 =    -0.67162730155782D+03

 The electronic state is 1-A.
 Alpha  occ. eigenvalues --  -20.60777 -20.60771 -15.85831 -11.31211 -11.27777
 Alpha  occ. eigenvalues --  -11.27773 -11.27511 -11.26797 -11.26768 -11.21943
 Alpha  occ. eigenvalues --  -11.21766 -11.21679 -11.21641 -11.21471 -11.21070
 Alpha  occ. eigenvalues --   -1.59852  -1.39405  -1.19385  -1.08775  -1.08642
 Alpha  occ. eigenvalues --   -1.04793  -1.03789  -0.96266  -0.95606  -0.87291
 Alpha  occ. eigenvalues --   -0.86176  -0.82439  -0.79853  -0.78424  -0.77488
 Alpha  occ. eigenvalues --   -0.72048  -0.71176  -0.70483  -0.65276  -0.65034
 Alpha  occ. eigenvalues --   -0.64812  -0.62190  -0.61178  -0.59649  -0.57864
 Alpha  occ. eigenvalues --   -0.55551  -0.55278  -0.53223  -0.53074  -0.52788
 Alpha  occ. eigenvalues --   -0.52537  -0.50184  -0.48809  -0.48802  -0.48165
 Alpha  occ. eigenvalues --   -0.46862  -0.45974  -0.45877  -0.44807  -0.44041
 Alpha  occ. eigenvalues --   -0.37358  -0.36356
 Alpha virt. eigenvalues --    0.05032   0.11234   0.16460   0.20437   0.22810
 Alpha virt. eigenvalues --    0.24058   0.26067   0.26452   0.27199   0.28284
 Alpha virt. eigenvalues --    0.28670   0.29921   0.31112   0.31691   0.32430

 Mulliken charges:
               1
     1  C   -0.298963
     2  C   -0.299850
     3  C   -0.475961
     4  H    0.151485
     5  H    0.151903
     6  H    0.150921
     7  H    0.151699
     8  H    0.156563
     9  H    0.156364
    10  H    0.160142
    11  C   -0.298473
    12  C   -0.303385
    13  C   -0.474602
    14  H    0.148300
    15  H    0.149851
    16  H    0.156538
    17  H    0.154434
    18  H    0.158380
    19  H    0.153123
    20  H    0.148692
    21  C   -0.172625
    22  C   -0.218611
    23  C   -0.171250
    24  C    0.157954
    25  C   -0.171490
    26  C   -0.216578
    27  H    0.226030
    28  H    0.223437
    29  H    0.275618
    30  H    0.276021
    31  H    0.226816
    32  N    0.488161
    33  O   -0.460130
    34  O   -0.460517
 Sum of Mulliken charges =  -0.00000

 Dipole moment (field-independent basis, Debye):
    X=              0.6478    Y=              4.6511    Z=              2.1499  Tot=              5.1647
 Quadrupole moment (field-independent basis, Debye-Ang):
   XX=            -97.8882   YY=            -99.9429   ZZ=            -90.3946
   XY=            -12.3319   XZ=             -8.2717   YZ=             -2.3564

 Normal termination of Gaussian 16 at Thu May  6 01:16:26 2021.
