 Gaussian 16, Revision A.03,
 Gaussian 16:  EM64L-G16RevA.03 25-Dec-2016

 -------------
 #p 6-31g* mp2
 -------------

 ------------------------------------------------------
 Input file generated by CHIRIPA (05-May-2021 14:55:24)
 ------------------------------------------------------
 Symbolic Z-matrix:
 Charge =  0 Multiplicity = 1

                         Standard orientation:
 ---------------------------------------------------------------------
 Center     Atomic      Atomic             Coordinates (Angstroms)
 Number     Number       Type             X           Y           Z
 ---------------------------------------------------------------------
      1          6           0        4.375494   -0.362755   -1.512976
      2          6           0        3.644103   -1.525167   -1.247671
      3          6           0        2.654148   -1.531352   -0.260504
      4          6           0        2.420766   -0.352144    0.445395
      5          6           0        3.132604    0.821932    0.204311
      6          6           0        4.117864    0.805026   -0.787417
      7          1           0        5.142691   -0.366920   -2.281603
      8          1           0        3.842027   -2.433535   -1.809578
      9          1           0        2.073050   -2.417191   -0.034603
     10          1           0        2.912597    1.712119    0.781010
     11          1           0        4.684312    1.709244   -0.991306
     12          7           0        1.375230   -0.346469    1.492879
     13          8           0        1.188791    0.705346    2.100794
     14          8           0        0.761976   -1.393944    1.686147
     15          6           0       -4.035355    0.189159   -0.311409
     16          6           0       -4.127459   -1.334682   -0.397486
     17          6           0       -5.566641   -1.845208   -0.320621
     18          1           0       -4.495557    0.525484    0.627764
     19          1           0       -4.626361    0.631798   -1.125151
     20          1           0       -3.535327   -1.774336    0.415350
     21          1           0       -3.666812   -1.667433   -1.336473
     22          1           0       -6.165511   -1.434058   -1.139713
     23          1           0       -6.033279   -1.541568    0.622064
     24          1           0       -5.609248   -2.937006   -0.384048
     25          6           0       -2.602937    0.714725   -0.386849
     26          6           0       -2.510834    2.238567   -0.300771
     27          6           0       -1.071650    2.749093   -0.377637
     28          1           0       -2.011930    0.272086    0.426894
     29          1           0       -2.142735    0.378400   -1.326020
     30          1           0       -2.971480    2.571318    0.638216
     31          1           0       -3.102965    2.678220   -1.113607
     32          1           0       -0.605013    2.445453   -1.320320
     33          1           0       -0.472781    2.337943    0.441456
     34          1           0       -1.029044    3.840890   -0.314210
 ---------------------------------------------------------------------

 SCF Done:  E(RHF) =  -669.536874963     A.U. after   15 cycles
 E2 =    -0.2091695017D+01 EUMP2 =    -0.67162856997971D+03

 The electronic state is 1-A.
 Alpha  occ. eigenvalues --  -20.61024 -20.61006 -15.86020 -11.31275 -11.27837
 Alpha  occ. eigenvalues --  -11.27828 -11.27571 -11.26834 -11.26822 -11.20918
 Alpha  occ. eigenvalues --  -11.20861 -11.20683 -11.20544 -11.20519 -11.20288
 Alpha  occ. eigenvalues --   -1.60060  -1.39619  -1.19441  -1.08860  -1.07694
 Alpha  occ. eigenvalues --   -1.04829  -1.02831  -0.95712  -0.95288  -0.86314
 Alpha  occ. eigenvalues --   -0.86233  -0.82549  -0.78902  -0.77613  -0.77504
 Alpha  occ. eigenvalues --   -0.72248  -0.71358  -0.70555  -0.65101  -0.64836
 Alpha  occ. eigenvalues --   -0.64309  -0.62178  -0.60214  -0.58668  -0.56907
 Alpha  occ. eigenvalues --   -0.55343  -0.54564  -0.53162  -0.52923  -0.52007
 Alpha  occ. eigenvalues --   -0.51731  -0.49248  -0.49009  -0.48994  -0.47234
 Alpha  occ. eigenvalues --   -0.45951  -0.45086  -0.45007  -0.44825  -0.43084
 Alpha  occ. eigenvalues --   -0.37417  -0.36424
 Alpha virt. eigenvalues --    0.04873   0.11216   0.16342   0.21317   0.23618
 Alpha virt. eigenvalues --    0.24942   0.27104   0.27366   0.27868   0.28418
 Alpha virt. eigenvalues --    0.28779   0.30780   0.31861   0.32274   0.32540

 Mulliken charges:
               1
     1  C   -0.170420
     2  C   -0.218747
     3  C   -0.170541
     4  C    0.158959
     5  C   -0.169949
     6  C   -0.218750
     7  H    0.225951
     8  H    0.223727
     9  H    0.275760
    10  H    0.276395
    11  H    0.223972
    12  N    0.488739
    13  O   -0.459617
    14  O   -0.458818
    15  C   -0.297518
    16  C   -0.300680
    17  C   -0.475328
    18  H    0.150691
    19  H    0.145864
    20  H    0.159382
    21  H    0.148159
    22  H    0.152727
    23  H    0.155510
    24  H    0.158486
    25  C   -0.303857
    26  C   -0.296732
    27  C   -0.488326
    28  H    0.164109
    29  H    0.143495
    30  H    0.153860
    31  H    0.147243
    32  H    0.147149
    33  H    0.173367
    34  H    0.155738
 Sum of Mulliken charges =  -0.00000

 Dipole moment (field-independent basis, Debye):
    X=              3.8831    Y=             -0.1286    Z=             -3.5022  Tot=              5.2307
 Quadrupole moment (field-independent basis, Debye-Ang):
   XX=            -78.7582   YY=            -90.8194   ZZ=            -97.6843
   XY=             -0.6709   XZ=             -7.7095   YZ=              2.5509

 Normal termination of Gaussian 16 at Wed May  5 17:36:04 2021.
