 Gaussian 16, Revision A.03,
 Gaussian 16:  EM64L-G16RevA.03 25-Dec-2016

 -------------
 #p 6-31g* mp2
 -------------

 ------------------------------------------------------
 Input file generated by CHIRIPA (05-May-2021 14:57:24)
 ------------------------------------------------------
 Symbolic Z-matrix:
 Charge =  0 Multiplicity = 1

                         Standard orientation:
 ---------------------------------------------------------------------
 Center     Atomic      Atomic             Coordinates (Angstroms)
 Number     Number       Type             X           Y           Z
 ---------------------------------------------------------------------
      1          6           0        4.104677   -1.774463    0.272056
      2          6           0        2.834931   -1.967258   -0.282108
      3          6           0        2.046194   -0.872436   -0.647904
      4          6           0        2.560806    0.407074   -0.444636
      5          6           0        3.821966    0.631688    0.105194
      6          6           0        4.593280   -0.477891    0.463601
      7          1           0        4.710620   -2.630679    0.553346
      8          1           0        2.452904   -2.973055   -0.432013
      9          1           0        1.059742   -0.992989   -1.078947
     10          1           0        4.175693    1.646301    0.242515
     11          1           0        5.579019   -0.325156    0.893759
     12          7           0        1.735027    1.573924   -0.827977
     13          8           0        2.211279    2.691057   -0.638671
     14          8           0        0.627167    1.349274   -1.310486
     15          6           0       -1.115763    0.102116    2.321947
     16          6           0       -2.273776    0.881047    2.228156
     17          6           0       -3.156990    0.714058    1.157364
     18          6           0       -2.849763   -0.245397    0.193857
     19          6           0       -1.704050   -1.036811    0.259401
     20          6           0       -0.835092   -0.852643    1.339004
     21          1           0       -0.435199    0.238510    3.157186
     22          1           0       -2.494300    1.623285    2.990059
     23          1           0       -4.060581    1.303540    1.060133
     24          1           0       -1.511104   -1.768714   -0.515523
     25          1           0        0.063492   -1.458990    1.409264
     26          7           0       -3.777236   -0.431275   -0.944406
     27          8           0       -3.483871   -1.283308   -1.780237
     28          8           0       -4.779993    0.278589   -0.979193
 ---------------------------------------------------------------------

 SCF Done:  E(RHF) =  -868.335765005     A.U. after   16 cycles
 E2 =    -0.2603461304D+01 EUMP2 =    -0.87093922630891D+03

 The electronic state is 1-A.
 Alpha  occ. eigenvalues --  -20.61207 -20.61155 -20.60367 -20.60354 -15.86237
 Alpha  occ. eigenvalues --  -15.85419 -11.31805 -11.30809 -11.28429 -11.28398
 Alpha  occ. eigenvalues --  -11.28172 -11.27493 -11.27476 -11.27407 -11.27338
 Alpha  occ. eigenvalues --  -11.27150 -11.26455 -11.26386  -1.60253  -1.59428
 Alpha  occ. eigenvalues --   -1.39800  -1.38987  -1.20023  -1.18977  -1.09354
 Alpha  occ. eigenvalues --   -1.08376  -1.05474  -1.04427  -0.96161  -0.95218
 Alpha  occ. eigenvalues --   -0.86830  -0.85830  -0.82996  -0.82086  -0.78027
 Alpha  occ. eigenvalues --   -0.77110  -0.72458  -0.71654  -0.71588  -0.71108
 Alpha  occ. eigenvalues --   -0.70727  -0.70147  -0.65658  -0.65448  -0.64670
 Alpha  occ. eigenvalues --   -0.64494  -0.62849  -0.61758  -0.55910  -0.54953
 Alpha  occ. eigenvalues --   -0.53833  -0.53549  -0.52646  -0.52497  -0.49232
 Alpha  occ. eigenvalues --   -0.49196  -0.48409  -0.48396  -0.45154  -0.44392
 Alpha  occ. eigenvalues --   -0.38030  -0.37216  -0.36843  -0.35838
 Alpha virt. eigenvalues --    0.04447   0.05490   0.10386   0.11783   0.15853
 Alpha virt. eigenvalues --    0.16926   0.20165   0.21988   0.25551   0.27268
 Alpha virt. eigenvalues --    0.28054   0.29458   0.30082   0.31184   0.31930

 Mulliken charges:
               1
     1  C   -0.170638
     2  C   -0.225474
     3  C   -0.176796
     4  C    0.158080
     5  C   -0.170933
     6  C   -0.219307
     7  H    0.227833
     8  H    0.224377
     9  H    0.280006
    10  H    0.277470
    11  H    0.225519
    12  N    0.487884
    13  O   -0.460615
    14  O   -0.455402
    15  C   -0.171757
    16  C   -0.215180
    17  C   -0.167812
    18  C    0.164537
    19  C   -0.165723
    20  C   -0.219409
    21  H    0.223495
    22  H    0.223272
    23  H    0.275961
    24  H    0.266042
    25  H    0.218404
    26  N    0.488963
    27  O   -0.463129
    28  O   -0.459666
 Sum of Mulliken charges =  -0.00000

 Dipole moment (field-independent basis, Debye):
    X=              6.1807    Y=             -3.2040    Z=              5.2990  Tot=              8.7490
 Quadrupole moment (field-independent basis, Debye-Ang):
   XX=           -104.1785   YY=           -105.0157   ZZ=           -104.7429
   XY=            -12.3470   XZ=             -8.6324   YZ=              4.2517

 Normal termination of Gaussian 16 at Thu May  6 01:52:29 2021.
