 Gaussian 16, Revision A.03,
 Gaussian 16:  EM64L-G16RevA.03 25-Dec-2016

 -------------
 #p 6-31g* mp2
 -------------

 ------------------------------------------------------
 Input file generated by CHIRIPA (05-May-2021 14:55:21)
 ------------------------------------------------------
 Symbolic Z-matrix:
 Charge =  0 Multiplicity = 1

                         Standard orientation:
 ---------------------------------------------------------------------
 Center     Atomic      Atomic             Coordinates (Angstroms)
 Number     Number       Type             X           Y           Z
 ---------------------------------------------------------------------
      1          6           0        4.352548   -2.111614    0.211279
      2          6           0        3.505943   -1.833601   -0.866909
      3          6           0        2.894962   -0.581726   -0.985473
      4          6           0        3.153916    0.373043   -0.003308
      5          6           0        3.992477    0.126341    1.082622
      6          6           0        4.592690   -1.132482    1.180894
      7          1           0        4.822991   -3.086799    0.295501
      8          1           0        3.317625   -2.592088   -1.621415
      9          1           0        2.235196   -0.339772   -1.809843
     10          1           0        4.161007    0.902674    1.819047
     11          1           0        5.249718   -1.345589    2.019312
     12          7           0        2.512797    1.702025   -0.118086
     13          8           0        2.757142    2.526093    0.760461
     14          8           0        1.778083    1.894448   -1.084422
     15          6           0       -3.541927    0.140475   -0.288549
     16          6           0       -2.279279   -0.703284   -0.110295
     17          6           0       -1.026548   -0.014443   -0.652475
     18          1           0       -3.677755    0.364815   -1.355398
     19          1           0       -3.404332    1.105431    0.218721
     20          1           0       -2.419744   -1.666904   -0.616577
     21          1           0       -2.146546   -0.925802    0.956233
     22          1           0       -0.858712    0.938522   -0.140331
     23          1           0       -1.133462    0.193210   -1.722078
     24          1           0       -0.135666   -0.635107   -0.514767
     25          6           0       -4.802598   -0.534743    0.248591
     26          6           0       -6.065246    0.309016    0.070338
     27          6           0       -7.317977   -0.379825    0.612517
     28          1           0       -4.940193   -1.499699   -0.258679
     29          1           0       -4.666771   -0.759083    1.315440
     30          1           0       -6.197979    0.531535   -0.996191
     31          1           0       -5.924781    1.272636    0.576619
     32          1           0       -7.211063   -0.587477    1.682120
     33          1           0       -7.485813   -1.332790    0.100374
     34          1           0       -8.208860    0.240839    0.474808
 ---------------------------------------------------------------------

 SCF Done:  E(RHF) =  -669.535521491     A.U. after   15 cycles
 E2 =    -0.2092248615D+01 EUMP2 =    -0.67162777010595D+03

 The electronic state is 1-A.
 Alpha  occ. eigenvalues --  -20.60836 -20.60802 -15.85843 -11.31212 -11.27784
 Alpha  occ. eigenvalues --  -11.27764 -11.27529 -11.26802 -11.26792 -11.21311
 Alpha  occ. eigenvalues --  -11.21158 -11.21070 -11.20943 -11.20845 -11.20399
 Alpha  occ. eigenvalues --   -1.59879  -1.39433  -1.19390  -1.08782  -1.08059
 Alpha  occ. eigenvalues --   -1.04794  -1.03142  -0.95659  -0.95539  -0.86602
 Alpha  occ. eigenvalues --   -0.86180  -0.82451  -0.79215  -0.77874  -0.77480
 Alpha  occ. eigenvalues --   -0.72071  -0.71190  -0.70498  -0.65042  -0.64796
 Alpha  occ. eigenvalues --   -0.64691  -0.62147  -0.60538  -0.58982  -0.57205
 Alpha  occ. eigenvalues --   -0.55295  -0.54854  -0.53173  -0.52901  -0.52241
 Alpha  occ. eigenvalues --   -0.51967  -0.49508  -0.48833  -0.48829  -0.47517
 Alpha  occ. eigenvalues --   -0.46258  -0.45440  -0.45349  -0.44737  -0.43377
 Alpha  occ. eigenvalues --   -0.37359  -0.36375
 Alpha virt. eigenvalues --    0.05008   0.11182   0.16489   0.21326   0.23218
 Alpha virt. eigenvalues --    0.24619   0.26902   0.27133   0.27750   0.27922
 Alpha virt. eigenvalues --    0.28905   0.30824   0.31704   0.31824   0.32133

 Mulliken charges:
               1
     1  C   -0.170579
     2  C   -0.220003
     3  C   -0.170858
     4  C    0.159181
     5  C   -0.170963
     6  C   -0.218465
     7  H    0.225732
     8  H    0.223831
     9  H    0.278269
    10  H    0.275602
    11  H    0.223540
    12  N    0.487959
    13  O   -0.460476
    14  O   -0.456979
    15  C   -0.298255
    16  C   -0.301130
    17  C   -0.475021
    18  H    0.149736
    19  H    0.152625
    20  H    0.146566
    21  H    0.149494
    22  H    0.168604
    23  H    0.155556
    24  H    0.149028
    25  C   -0.297744
    26  C   -0.299520
    27  C   -0.475478
    28  H    0.147562
    29  H    0.148714
    30  H    0.151878
    31  H    0.152963
    32  H    0.154655
    33  H    0.154124
    34  H    0.159853
 Sum of Mulliken charges =  -0.00000

 Dipole moment (field-independent basis, Debye):
    X=              2.3931    Y=             -4.5373    Z=              0.3818  Tot=              5.1439
 Quadrupole moment (field-independent basis, Debye-Ang):
   XX=            -81.4340   YY=            -98.4424   ZZ=            -90.6882
   XY=            -14.0061   XZ=              4.0265   YZ=              2.0729

 Normal termination of Gaussian 16 at Thu May  6 07:46:07 2021.
