 Gaussian 16, Revision A.03,
 Gaussian 16:  EM64L-G16RevA.03 25-Dec-2016

 -------------
 #p 6-31g* mp2
 -------------

 ------------------------------------------------------
 Input file generated by CHIRIPA (05-May-2021 14:51:09)
 ------------------------------------------------------
 Symbolic Z-matrix:
 Charge =  0 Multiplicity = 1

                         Standard orientation:
 ---------------------------------------------------------------------
 Center     Atomic      Atomic             Coordinates (Angstroms)
 Number     Number       Type             X           Y           Z
 ---------------------------------------------------------------------
      1          6           0       -4.160122    0.608733    0.385885
      2          6           0       -4.687630    1.660464   -0.590630
      3          6           0       -5.407348    2.811743    0.112475
      4          1           0       -4.997731    0.213209    0.976578
      5          1           0       -3.475440    1.090168    1.097802
      6          1           0       -5.370041    1.176929   -1.301351
      7          1           0       -3.848696    2.053392   -1.179199
      8          1           0       -4.732369    3.320273    0.808465
      9          1           0       -6.262358    2.438830    0.685619
     10          1           0       -5.776279    3.552018   -0.604282
     11          6           0       -3.438157   -0.548572   -0.301967
     12          6           0       -2.910650   -1.600303    0.674548
     13          6           0       -2.190932   -2.751581   -0.028557
     14          1           0       -4.122840   -1.030006   -1.013884
     15          1           0       -2.600548   -0.153048   -0.892659
     16          1           0       -3.749583   -1.993231    1.263118
     17          1           0       -2.228239   -1.116767    1.385269
     18          1           0       -1.335921   -2.378668   -0.601701
     19          1           0       -2.865910   -3.260112   -0.724547
     20          1           0       -1.822001   -3.491857    0.688201
     21          6           0        4.505552    0.229398    0.088748
     22          6           0        4.634128    1.744658   -0.070756
     23          6           0        6.053183    2.248642    0.193968
     24          1           0        4.813018   -0.053339    1.104854
     25          1           0        5.205576   -0.265361   -0.598692
     26          1           0        3.933082    2.236390    0.615794
     27          1           0        4.326137    2.023843   -1.086538
     28          1           0        6.762293    1.784938   -0.499388
     29          1           0        6.367004    1.998694    1.212615
     30          1           0        6.122458    3.334351    0.074404
     31          6           0        3.092728   -0.289560   -0.172666
     32          6           0        2.964151   -1.804820   -0.013163
     33          6           0        1.545097   -2.308803   -0.277886
     34          1           0        2.392704    0.205200    0.514774
     35          1           0        2.785261   -0.006822   -1.188771
     36          1           0        3.272142   -2.084004    1.002619
     37          1           0        3.665197   -2.296553   -0.699711
     38          1           0        1.231275   -2.058855   -1.296533
     39          1           0        0.835986   -1.845099    0.415470
     40          1           0        1.475821   -3.394513   -0.158323
 ---------------------------------------------------------------------

 SCF Done:  E(RHF) =  -470.732729068     A.U. after   11 cycles
 E2 =    -0.1582712969D+01 EUMP2 =    -0.47231544203676D+03

 The electronic state is 1-A.
 Alpha  occ. eigenvalues --  -11.21622 -11.21601 -11.21578 -11.21536 -11.21429
 Alpha  occ. eigenvalues --  -11.21369 -11.21366 -11.21304 -11.21087 -11.21072
 Alpha  occ. eigenvalues --  -11.21054 -11.20867  -1.08452  -1.08382  -1.03565
 Alpha  occ. eigenvalues --   -1.03455  -0.96053  -0.95867  -0.87111  -0.86846
 Alpha  occ. eigenvalues --   -0.79690  -0.79465  -0.78272  -0.78191  -0.65091
 Alpha  occ. eigenvalues --   -0.65010  -0.61006  -0.60831  -0.59381  -0.59268
 Alpha  occ. eigenvalues --   -0.57654  -0.57499  -0.55386  -0.55143  -0.52785
 Alpha  occ. eigenvalues --   -0.52536  -0.52519  -0.52222  -0.49994  -0.49783
 Alpha  occ. eigenvalues --   -0.48016  -0.47743  -0.46650  -0.46547  -0.45834
 Alpha  occ. eigenvalues --   -0.45735  -0.45701  -0.45622  -0.43823  -0.43694
 Alpha virt. eigenvalues --    0.21868   0.23002   0.23646   0.24853   0.26292
 Alpha virt. eigenvalues --    0.26516   0.27297   0.27549   0.27583   0.29254
 Alpha virt. eigenvalues --    0.30339   0.30829   0.31462   0.32019   0.32291

 Mulliken charges:
               1
     1  C   -0.298180
     2  C   -0.299629
     3  C   -0.475667
     4  H    0.149576
     5  H    0.149215
     6  H    0.151893
     7  H    0.151911
     8  H    0.155085
     9  H    0.155139
    10  H    0.160167
    11  C   -0.298267
    12  C   -0.300390
    13  C   -0.481443
    14  H    0.149500
    15  H    0.149685
    16  H    0.151624
    17  H    0.150778
    18  H    0.165694
    19  H    0.153744
    20  H    0.159273
    21  C   -0.298242
    22  C   -0.299638
    23  C   -0.475717
    24  H    0.149726
    25  H    0.149661
    26  H    0.151803
    27  H    0.151905
    28  H    0.155248
    29  H    0.155222
    30  H    0.160286
    31  C   -0.298300
    32  C   -0.300781
    33  C   -0.476967
    34  H    0.149066
    35  H    0.149416
    36  H    0.151948
    37  H    0.151871
    38  H    0.154070
    39  H    0.158002
    40  H    0.161713
 Sum of Mulliken charges =  -0.00000

 Dipole moment (field-independent basis, Debye):
    X=              0.0367    Y=             -0.0158    Z=             -0.0131  Tot=              0.0421
 Quadrupole moment (field-independent basis, Debye-Ang):
   XX=            -85.3609   YY=            -85.6034   ZZ=            -83.9664
   XY=              0.3481   XZ=             -0.0933   YZ=             -0.2289

 Normal termination of Gaussian 16 at Wed May  5 15:08:36 2021.
