 Gaussian 16, Revision A.03,
 Gaussian 16:  EM64L-G16RevA.03 25-Dec-2016

 -------------
 #p 6-31g* mp2
 -------------

 ------------------------------------------------------
 Input file generated by CHIRIPA (05-May-2021 14:51:11)
 ------------------------------------------------------
 Symbolic Z-matrix:
 Charge =  0 Multiplicity = 1

                         Standard orientation:
 ---------------------------------------------------------------------
 Center     Atomic      Atomic             Coordinates (Angstroms)
 Number     Number       Type             X           Y           Z
 ---------------------------------------------------------------------
      1          6           0       -3.634153    0.403502   -0.586195
      2          6           0       -3.146308    1.730275   -0.003387
      3          6           0       -1.959160    2.312354   -0.771278
      4          1           0       -2.805217   -0.317473   -0.584107
      5          1           0       -3.914792    0.554081   -1.637843
      6          1           0       -2.867979    1.577545    1.047242
      7          1           0       -3.976555    2.448116   -0.006686
      8          1           0       -2.228055    2.493091   -1.817046
      9          1           0       -1.113181    1.617573   -0.757129
     10          1           0       -1.626628    3.260672   -0.337717
     11          6           0       -4.820537   -0.190922    0.170694
     12          6           0       -5.308383   -1.517695   -0.412114
     13          6           0       -6.495531   -2.099774    0.355777
     14          1           0       -4.539899   -0.341500    1.222342
     15          1           0       -5.649474    0.530053    0.168606
     16          1           0       -4.478136   -2.235536   -0.408815
     17          1           0       -5.586712   -1.364964   -1.462743
     18          1           0       -7.341510   -1.404993    0.341628
     19          1           0       -6.226636   -2.280511    1.401545
     20          1           0       -6.828063   -3.048092   -0.077784
     21          6           0        3.713837    0.458447    0.236283
     22          6           0        2.422726    0.068198    0.956507
     23          6           0        1.405265    1.208449    1.005416
     24          1           0        4.158840    1.327503    0.739927
     25          1           0        3.472279    0.779675   -0.786388
     26          1           0        2.666798   -0.253515    1.977069
     27          1           0        1.980846   -0.800150    0.451205
     28          1           0        1.132917    1.525403   -0.006497
     29          1           0        1.822766    2.075145    1.528037
     30          1           0        0.489926    0.907741    1.524635
     31          6           0        4.740854   -0.671027    0.179217
     32          6           0        6.031964   -0.280777   -0.541006
     33          6           0        7.049426   -1.421030   -0.589915
     34          1           0        4.982412   -0.992255    1.201889
     35          1           0        4.295850   -1.540084   -0.324427
     36          1           0        6.473845    0.587570   -0.035704
     37          1           0        5.787893    0.040934   -1.561568
     38          1           0        6.631925   -2.287725   -1.112536
     39          1           0        7.321774   -1.737985    0.421998
     40          1           0        7.964766   -1.120321   -1.109134
 ---------------------------------------------------------------------

 SCF Done:  E(RHF) =  -470.732924124     A.U. after   11 cycles
 E2 =    -0.1582476857D+01 EUMP2 =    -0.47231540098074D+03

 The electronic state is 1-A.
 Alpha  occ. eigenvalues --  -11.21615 -11.21607 -11.21590 -11.21550 -11.21415
 Alpha  occ. eigenvalues --  -11.21381 -11.21356 -11.21321 -11.21076 -11.21062
 Alpha  occ. eigenvalues --  -11.21059 -11.20938  -1.08442  -1.08398  -1.03554
 Alpha  occ. eigenvalues --   -1.03477  -0.96030  -0.95900  -0.87073  -0.86894
 Alpha  occ. eigenvalues --   -0.79653  -0.79508  -0.78256  -0.78211  -0.65098
 Alpha  occ. eigenvalues --   -0.65012  -0.61067  -0.60791  -0.59354  -0.59303
 Alpha  occ. eigenvalues --   -0.57608  -0.57544  -0.55515  -0.55032  -0.52720
 Alpha  occ. eigenvalues --   -0.52614  -0.52442  -0.52311  -0.50162  -0.49637
 Alpha  occ. eigenvalues --   -0.47945  -0.47844  -0.46749  -0.46443  -0.45808
 Alpha  occ. eigenvalues --   -0.45758  -0.45712  -0.45630  -0.43789  -0.43745
 Alpha virt. eigenvalues --    0.21836   0.23012   0.23643   0.24921   0.26348
 Alpha virt. eigenvalues --    0.26656   0.27048   0.27552   0.27685   0.29043
 Alpha virt. eigenvalues --    0.30435   0.31083   0.31716   0.31965   0.32392

 Mulliken charges:
               1
     1  C   -0.298417
     2  C   -0.299702
     3  C   -0.479913
     4  H    0.149442
     5  H    0.149409
     6  H    0.151704
     7  H    0.151660
     8  H    0.153737
     9  H    0.161506
    10  H    0.160244
    11  C   -0.298241
    12  C   -0.299619
    13  C   -0.475684
    14  H    0.149381
    15  H    0.149659
    16  H    0.151822
    17  H    0.151883
    18  H    0.155181
    19  H    0.155153
    20  H    0.160184
    21  C   -0.298522
    22  C   -0.299959
    23  C   -0.479128
    24  H    0.149773
    25  H    0.149815
    26  H    0.151867
    27  H    0.151431
    28  H    0.159702
    29  H    0.155379
    30  H    0.160175
    31  C   -0.298278
    32  C   -0.299676
    33  C   -0.475714
    34  H    0.149525
    35  H    0.149599
    36  H    0.151977
    37  H    0.152002
    38  H    0.155175
    39  H    0.155171
    40  H    0.160295
 Sum of Mulliken charges =  -0.00000

 Dipole moment (field-independent basis, Debye):
    X=              0.0300    Y=              0.0098    Z=              0.0012  Tot=              0.0316
 Quadrupole moment (field-independent basis, Debye-Ang):
   XX=            -85.7480   YY=            -85.2827   ZZ=            -83.8603
   XY=             -0.0104   XZ=              1.2191   YZ=              0.1631

 Normal termination of Gaussian 16 at Wed May  5 21:26:27 2021.
