 Gaussian 16, Revision A.03,
 Gaussian 16:  EM64L-G16RevA.03 25-Dec-2016

 -------------
 #p 6-31g* mp2
 -------------

 ------------------------------------------------------
 Input file generated by CHIRIPA (05-May-2021 14:55:21)
 ------------------------------------------------------
 Symbolic Z-matrix:
 Charge =  0 Multiplicity = 1

                         Standard orientation:
 ---------------------------------------------------------------------
 Center     Atomic      Atomic             Coordinates (Angstroms)
 Number     Number       Type             X           Y           Z
 ---------------------------------------------------------------------
      1          6           0        0.817641   -1.128734    0.902872
      2          6           0        0.844396    0.138925    0.312241
      3          6           0        2.049696    0.688920   -0.134195
      4          6           0        3.214607   -0.059713    0.026495
      5          6           0        3.220451   -1.325277    0.610963
      6          6           0        2.003663   -1.855508    1.050088
      7          1           0       -0.123127   -1.548307    1.246834
      8          1           0       -0.075135    0.705616    0.196615
      9          1           0        2.099085    1.668037   -0.594964
     10          1           0        4.153410   -1.866277    0.712567
     11          1           0        1.985891   -2.840226    1.508410
     12          7           0        4.496685    0.512081   -0.442256
     13          8           0        5.509190   -0.167648   -0.289156
     14          8           0        4.464797    1.629154   -0.953889
     15          6           0       -4.115636    0.856027    0.142025
     16          6           0       -3.137897    2.022503   -0.004072
     17          6           0       -3.695179    3.333949    0.550311
     18          1           0       -5.053119    1.104883   -0.373865
     19          1           0       -4.367537    0.728641    1.203963
     20          1           0       -2.886842    2.146770   -1.065273
     21          1           0       -2.202564    1.770764    0.512062
     22          1           0       -3.928712    3.233688    1.615211
     23          1           0       -4.616879    3.611831    0.028915
     24          1           0       -2.979960    4.154416    0.435618
     25          6           0       -3.572825   -0.461913   -0.407629
     26          6           0       -4.550564   -1.628389   -0.261531
     27          6           0       -3.993282   -2.939835   -0.815915
     28          1           0       -3.320925   -0.334526   -1.469567
     29          1           0       -2.635343   -0.710768    0.108261
     30          1           0       -5.485899   -1.376649   -0.777666
     31          1           0       -4.801620   -1.752655    0.799669
     32          1           0       -3.071584   -3.217716   -0.294518
     33          1           0       -3.759750   -2.839574   -1.880814
     34          1           0       -4.708502   -3.760301   -0.701222
 ---------------------------------------------------------------------

 SCF Done:  E(RHF) =  -669.535455888     A.U. after   15 cycles
 E2 =    -0.2091850645D+01 EUMP2 =    -0.67162730653349D+03

 The electronic state is 1-A.
 Alpha  occ. eigenvalues --  -20.60716 -20.60711 -15.85768 -11.31125 -11.27693
 Alpha  occ. eigenvalues --  -11.27676 -11.27433 -11.26714 -11.26652 -11.22705
 Alpha  occ. eigenvalues --  -11.22517 -11.22459 -11.22345 -11.21904 -11.21877
 Alpha  occ. eigenvalues --   -1.59792  -1.39345  -1.19293  -1.09436  -1.08691
 Alpha  occ. eigenvalues --   -1.04693  -1.04462  -0.96884  -0.95530  -0.87898
 Alpha  occ. eigenvalues --   -0.86097  -0.82362  -0.80543  -0.79278  -0.77404
 Alpha  occ. eigenvalues --   -0.71987  -0.71114  -0.70415  -0.66100  -0.64944
 Alpha  occ. eigenvalues --   -0.64683  -0.62091  -0.61815  -0.60253  -0.58506
 Alpha  occ. eigenvalues --   -0.56171  -0.55205  -0.53564  -0.53306  -0.53023
 Alpha  occ. eigenvalues --   -0.52799  -0.50824  -0.48863  -0.48743  -0.48724
 Alpha  occ. eigenvalues --   -0.47575  -0.46788  -0.46702  -0.44753  -0.44729
 Alpha  occ. eigenvalues --   -0.37275  -0.36293
 Alpha virt. eigenvalues --    0.05119   0.11332   0.16590   0.18533   0.22502
 Alpha virt. eigenvalues --    0.22877   0.24803   0.25860   0.26831   0.27276
 Alpha virt. eigenvalues --    0.29306   0.30760   0.30939   0.31256   0.31878

 Mulliken charges:
               1
     1  C   -0.175010
     2  C   -0.227110
     3  C   -0.173435
     4  C    0.158956
     5  C   -0.171278
     6  C   -0.218472
     7  H    0.226172
     8  H    0.236819
     9  H    0.275972
    10  H    0.275331
    11  H    0.223150
    12  N    0.488002
    13  O   -0.460680
    14  O   -0.460514
    15  C   -0.298572
    16  C   -0.306515
    17  C   -0.475471
    18  H    0.154618
    19  H    0.151093
    20  H    0.154760
    21  H    0.145753
    22  H    0.157159
    23  H    0.158872
    24  H    0.162903
    25  C   -0.299848
    26  C   -0.300760
    27  C   -0.475095
    28  H    0.153576
    29  H    0.139194
    30  H    0.156031
    31  H    0.152594
    32  H    0.149855
    33  H    0.158291
    34  H    0.163662
 Sum of Mulliken charges =  -0.00000

 Dipole moment (field-independent basis, Debye):
    X=             -4.8126    Y=             -1.9588    Z=              1.5823  Tot=              5.4315
 Quadrupole moment (field-independent basis, Debye-Ang):
   XX=           -121.8581   YY=            -91.9234   ZZ=            -94.2084
   XY=             -8.5321   XZ=              6.7399   YZ=             -2.1336

 Normal termination of Gaussian 16 at Thu May  6 10:54:10 2021.
