 Gaussian 16, Revision A.03,
 Gaussian 16:  EM64L-G16RevA.03 25-Dec-2016

 -------------
 #p 6-31g* mp2
 -------------

 ------------------------------------------------------
 Input file generated by CHIRIPA (05-May-2021 14:53:15)
 ------------------------------------------------------
 Symbolic Z-matrix:
 Charge =  0 Multiplicity = 1

                         Standard orientation:
 ---------------------------------------------------------------------
 Center     Atomic      Atomic             Coordinates (Angstroms)
 Number     Number       Type             X           Y           Z
 ---------------------------------------------------------------------
      1          6           0        3.281802   -0.882352    0.752640
      2          6           0        1.884935   -1.421131    0.442051
      3          6           0        1.380857   -2.402276    1.500848
      4          1           0        3.982224   -1.724487    0.837278
      5          1           0        3.266830   -0.388406    1.734062
      6          1           0        1.902209   -1.912703   -0.539109
      7          1           0        1.187794   -0.577603    0.357953
      8          1           0        1.335028   -1.919725    2.482502
      9          1           0        2.053502   -3.262410    1.580343
     10          1           0        0.380633   -2.775005    1.259009
     11          6           0        3.799470    0.099747   -0.296754
     12          6           0        5.196337    0.638526    0.013836
     13          6           0        5.700415    1.619672   -1.044961
     14          1           0        3.814442   -0.394199   -1.278175
     15          1           0        3.099048    0.941882   -0.381391
     16          1           0        5.893477   -0.205002    0.097933
     17          1           0        5.179063    1.130098    0.994996
     18          1           0        5.027770    2.479806   -1.124456
     19          1           0        5.746244    1.137120   -2.026615
     20          1           0        6.700639    1.992400   -0.803123
     21          6           0       -2.925991   -2.077498   -0.990922
     22          6           0       -1.713027   -1.386840   -1.081640
     23          6           0       -1.612865   -0.066051   -0.634390
     24          6           0       -2.750666    0.536104   -0.099499
     25          6           0       -3.973246   -0.125564    0.004340
     26          6           0       -4.050248   -1.445769   -0.449177
     27          1           0       -2.994804   -3.103291   -1.340790
     28          1           0       -0.838279   -1.874928   -1.501917
     29          1           0       -0.686247    0.491973   -0.692749
     30          1           0       -4.828011    0.387545    0.428032
     31          1           0       -4.993554   -1.979697   -0.377480
     32          7           0       -2.656889    1.934055    0.377302
     33          8           0       -3.673836    2.442132    0.844542
     34          8           0       -1.568215    2.495222    0.274751
 ---------------------------------------------------------------------

 SCF Done:  E(RHF) =  -669.535323812     A.U. after   15 cycles
 E2 =    -0.2092474162D+01 EUMP2 =    -0.67162779797431D+03

 The electronic state is 1-A.
 Alpha  occ. eigenvalues --  -20.60783 -20.60777 -15.85835 -11.31185 -11.27759
 Alpha  occ. eigenvalues --  -11.27734 -11.27500 -11.26774 -11.26745 -11.22220
 Alpha  occ. eigenvalues --  -11.21721 -11.21706 -11.21589 -11.21524 -11.21103
 Alpha  occ. eigenvalues --   -1.59858  -1.39412  -1.19363  -1.08765  -1.08735
 Alpha  occ. eigenvalues --   -1.04768  -1.03831  -0.96250  -0.95597  -0.87271
 Alpha  occ. eigenvalues --   -0.86160  -0.82434  -0.79956  -0.78562  -0.77455
 Alpha  occ. eigenvalues --   -0.72055  -0.71180  -0.70481  -0.65392  -0.65011
 Alpha  occ. eigenvalues --   -0.64748  -0.62163  -0.61206  -0.59632  -0.57875
 Alpha  occ. eigenvalues --   -0.55517  -0.55265  -0.53133  -0.52926  -0.52885
 Alpha  occ. eigenvalues --   -0.52628  -0.50182  -0.48813  -0.48811  -0.48236
 Alpha  occ. eigenvalues --   -0.46964  -0.46081  -0.45978  -0.44819  -0.44078
 Alpha  occ. eigenvalues --   -0.37343  -0.36330
 Alpha virt. eigenvalues --    0.05027   0.11202   0.16464   0.20297   0.22852
 Alpha virt. eigenvalues --    0.24014   0.24990   0.25874   0.27314   0.28324
 Alpha virt. eigenvalues --    0.29484   0.29965   0.31373   0.31474   0.32188

 Mulliken charges:
               1
     1  C   -0.297682
     2  C   -0.306186
     3  C   -0.476730
     4  H    0.150290
     5  H    0.154250
     6  H    0.144103
     7  H    0.152959
     8  H    0.160457
     9  H    0.155871
    10  H    0.158240
    11  C   -0.300249
    12  C   -0.299925
    13  C   -0.476417
    14  H    0.146883
    15  H    0.153008
    16  H    0.151418
    17  H    0.154409
    18  H    0.158088
    19  H    0.154053
    20  H    0.161100
    21  C   -0.172104
    22  C   -0.218651
    23  C   -0.173264
    24  C    0.158611
    25  C   -0.170946
    26  C   -0.218293
    27  H    0.225768
    28  H    0.227419
    29  H    0.277655
    30  H    0.275577
    31  H    0.223462
    32  N    0.488118
    33  O   -0.460272
    34  O   -0.461022
 Sum of Mulliken charges =  -0.00000

 Dipole moment (field-independent basis, Debye):
    X=             -0.2635    Y=             -4.8740    Z=             -1.6060  Tot=              5.1385
 Quadrupole moment (field-independent basis, Debye-Ang):
   XX=            -87.9720   YY=           -100.7087   ZZ=            -94.9502
   XY=             13.2315   XZ=              3.6161   YZ=              0.4452

 Normal termination of Gaussian 16 at Wed May  5 18:40:40 2021.
