 Gaussian 16, Revision A.03,
 Gaussian 16:  EM64L-G16RevA.03 25-Dec-2016

 -------------
 #p 6-31g* mp2
 -------------

 ------------------------------------------------------
 Input file generated by CHIRIPA (05-May-2021 14:55:23)
 ------------------------------------------------------
 Symbolic Z-matrix:
 Charge =  0 Multiplicity = 1

                         Standard orientation:
 ---------------------------------------------------------------------
 Center     Atomic      Atomic             Coordinates (Angstroms)
 Number     Number       Type             X           Y           Z
 ---------------------------------------------------------------------
      1          6           0        1.337120   -1.961521    0.932733
      2          6           0        1.082458   -0.587052    0.882695
      3          6           0        2.049594    0.296944    0.395101
      4          6           0        3.265893   -0.230233   -0.036166
      5          6           0        3.549521   -1.594585    0.001084
      6          6           0        2.567669   -2.460022    0.492544
      7          1           0        0.580109   -2.641022    1.313009
      8          1           0        0.127698   -0.197088    1.223876
      9          1           0        1.878830    1.365481    0.345242
     10          1           0        4.510755   -1.953588   -0.346141
     11          1           0        2.768208   -3.526984    0.530238
     12          7           0        4.297546    0.695790   -0.554406
     13          8           0        5.361102    0.206245   -0.928343
     14          8           0        4.023064    1.893619   -0.576852
     15          6           0       -4.693066    0.270610   -0.106050
     16          6           0       -4.867505   -1.158461   -0.621135
     17          6           0       -6.334181   -1.582946   -0.701578
     18          1           0       -5.155595    0.354715    0.886894
     19          1           0       -5.239563    0.959646   -0.764811
     20          1           0       -4.319701   -1.844451    0.037610
     21          1           0       -4.404339   -1.239224   -1.612886
     22          1           0       -6.890146   -0.922074   -1.374447
     23          1           0       -6.805027   -1.530739    0.285427
     24          1           0       -6.435779   -2.607744   -1.072155
     25          6           0       -3.232344    0.709494   -0.020020
     26          6           0       -3.057906    2.138565    0.495064
     27          6           0       -1.591230    2.563049    0.575508
     28          1           0       -2.685849    0.020457    0.638740
     29          1           0       -2.769816    0.625388   -1.012965
     30          1           0       -3.521072    2.219328    1.486815
     31          1           0       -3.605711    2.824553   -0.163680
     32          1           0       -1.120384    2.510842   -0.411497
     33          1           0       -1.035264    1.902178    1.248377
     34          1           0       -1.489632    3.587847    0.946084
 ---------------------------------------------------------------------

 SCF Done:  E(RHF) =  -669.535416848     A.U. after   15 cycles
 E2 =    -0.2091510852D+01 EUMP2 =    -0.67162692769992D+03

 The electronic state is 1-A.
 Alpha  occ. eigenvalues --  -20.60695 -20.60690 -15.85748 -11.31097 -11.27673
 Alpha  occ. eigenvalues --  -11.27639 -11.27411 -11.26690 -11.26637 -11.22376
 Alpha  occ. eigenvalues --  -11.22222 -11.22212 -11.22027 -11.22009 -11.21571
 Alpha  occ. eigenvalues --   -1.59771  -1.39325  -1.19269  -1.09161  -1.08669
 Alpha  occ. eigenvalues --   -1.04672  -1.04239  -0.96704  -0.95506  -0.87721
 Alpha  occ. eigenvalues --   -0.86071  -0.82343  -0.80311  -0.78977  -0.77381
 Alpha  occ. eigenvalues --   -0.71966  -0.71094  -0.70381  -0.65808  -0.64922
 Alpha  occ. eigenvalues --   -0.64681  -0.62093  -0.61583  -0.60052  -0.58301
 Alpha  occ. eigenvalues --   -0.56008  -0.55179  -0.53370  -0.53143  -0.53001
 Alpha  occ. eigenvalues --   -0.52762  -0.50644  -0.48745  -0.48722  -0.48595
 Alpha  occ. eigenvalues --   -0.47329  -0.46505  -0.46423  -0.44734  -0.44491
 Alpha  occ. eigenvalues --   -0.37256  -0.36268
 Alpha virt. eigenvalues --    0.05142   0.11365   0.16625   0.19365   0.22512
 Alpha virt. eigenvalues --    0.23657   0.25127   0.25746   0.26685   0.28465
 Alpha virt. eigenvalues --    0.29292   0.29443   0.31247   0.31407   0.31649

 Mulliken charges:
               1
     1  C   -0.171700
     2  C   -0.224191
     3  C   -0.174234
     4  C    0.158763
     5  C   -0.171167
     6  C   -0.218609
     7  H    0.225245
     8  H    0.231412
     9  H    0.277562
    10  H    0.275231
    11  H    0.222960
    12  N    0.488090
    13  O   -0.460899
    14  O   -0.460399
    15  C   -0.298777
    16  C   -0.299647
    17  C   -0.476096
    18  H    0.150624
    19  H    0.152747
    20  H    0.148558
    21  H    0.153543
    22  H    0.157029
    23  H    0.155734
    24  H    0.161295
    25  C   -0.299207
    26  C   -0.300608
    27  C   -0.481140
    28  H    0.140561
    29  H    0.153239
    30  H    0.153808
    31  H    0.156985
    32  H    0.159982
    33  H    0.145415
    34  H    0.167894
 Sum of Mulliken charges =  -0.00000

 Dipole moment (field-independent basis, Debye):
    X=             -3.8632    Y=             -3.1505    Z=              1.7460  Tot=              5.2819
 Quadrupole moment (field-independent basis, Debye-Ang):
   XX=           -117.3978   YY=            -90.1801   ZZ=            -94.7215
   XY=            -13.3595   XZ=              5.6732   YZ=             -0.0237

 Normal termination of Gaussian 16 at Thu May  6 17:37:15 2021.
