 Gaussian 16, Revision A.03,
 Gaussian 16:  EM64L-G16RevA.03 25-Dec-2016

 -------------
 #p 6-31g* mp2
 -------------

 ------------------------------------------------------
 Input file generated by CHIRIPA (05-May-2021 14:51:08)
 ------------------------------------------------------
 Symbolic Z-matrix:
 Charge =  0 Multiplicity = 1

                         Standard orientation:
 ---------------------------------------------------------------------
 Center     Atomic      Atomic             Coordinates (Angstroms)
 Number     Number       Type             X           Y           Z
 ---------------------------------------------------------------------
      1          6           0       -2.202433   -1.639675    0.138298
      2          6           0       -0.750235   -1.717078    0.610647
      3          6           0       -0.272870   -3.154301    0.821138
      4          1           0       -2.847887   -2.137808    0.874640
      5          1           0       -2.306097   -2.202541   -0.799694
      6          1           0       -0.649044   -1.153076    1.546744
      7          1           0       -0.108185   -1.218536   -0.126811
      8          1           0       -0.345101   -3.724585   -0.110613
      9          1           0       -0.889033   -3.658754    1.572450
     10          1           0        0.767750   -3.186325    1.158697
     11          6           0       -2.694181   -0.209380   -0.076569
     12          6           0       -4.146379   -0.131977   -0.548918
     13          6           0       -4.623745    1.305246   -0.759408
     14          1           0       -2.590517    0.353486    0.861424
     15          1           0       -2.048727    0.288752   -0.812911
     16          1           0       -4.788429   -0.630520    0.188540
     17          1           0       -4.247570   -0.695979   -1.485015
     18          1           0       -4.007581    1.809698   -1.510721
     19          1           0       -4.551513    1.875530    0.172343
     20          1           0       -5.664364    1.337270   -1.096968
     21          6           0        2.607423    0.183978   -0.129357
     22          6           0        4.045850   -0.072436   -0.580094
     23          6           0        4.348910   -1.558637   -0.772857
     24          1           0        2.422949   -0.354221    0.810460
     25          1           0        1.916897   -0.238643   -0.872298
     26          1           0        4.733456    0.351758    0.162788
     27          1           0        4.226979    0.466590   -1.518847
     28          1           0        3.686470   -1.991949   -1.529174
     29          1           0        4.195824   -2.107434    0.162016
     30          1           0        5.382479   -1.719101   -1.095107
     31          6           0        2.289191    1.665077    0.067627
     32          6           0        0.850765    1.921492    0.518365
     33          6           0        0.547705    3.407693    0.711128
     34          1           0        2.979717    2.087698    0.810568
     35          1           0        2.473665    2.203277   -0.872189
     36          1           0        0.669634    1.382465    1.457118
     37          1           0        0.163158    1.497298   -0.224516
     38          1           0        0.700790    3.956490   -0.223745
     39          1           0        1.210145    3.841005    1.467445
     40          1           0       -0.485865    3.568156    1.033377
 ---------------------------------------------------------------------

 SCF Done:  E(RHF) =  -470.732026345     A.U. after   11 cycles
 E2 =    -0.1585179201D+01 EUMP2 =    -0.47231720554560D+03

 The electronic state is 1-A.
 Alpha  occ. eigenvalues --  -11.21602 -11.21588 -11.21506 -11.21436 -11.21390
 Alpha  occ. eigenvalues --  -11.21366 -11.21329 -11.21297 -11.21084 -11.21070
 Alpha  occ. eigenvalues --  -11.21023 -11.20998  -1.08469  -1.08339  -1.03507
 Alpha  occ. eigenvalues --   -1.03480  -0.95985  -0.95920  -0.86981  -0.86954
 Alpha  occ. eigenvalues --   -0.79595  -0.79583  -0.78557  -0.77844  -0.65194
 Alpha  occ. eigenvalues --   -0.64895  -0.60910  -0.60890  -0.59338  -0.59313
 Alpha  occ. eigenvalues --   -0.57719  -0.57404  -0.55292  -0.55200  -0.52698
 Alpha  occ. eigenvalues --   -0.52597  -0.52395  -0.52357  -0.49949  -0.49850
 Alpha  occ. eigenvalues --   -0.47955  -0.47909  -0.46803  -0.46636  -0.46225
 Alpha  occ. eigenvalues --   -0.45892  -0.45458  -0.44839  -0.43771  -0.43705
 Alpha virt. eigenvalues --    0.21243   0.22632   0.23717   0.24043   0.24404
 Alpha virt. eigenvalues --    0.26086   0.27056   0.27695   0.28187   0.29895
 Alpha virt. eigenvalues --    0.30432   0.31156   0.31750   0.31848   0.32351

 Mulliken charges:
               1
     1  C   -0.298217
     2  C   -0.305554
     3  C   -0.476206
     4  H    0.149023
     5  H    0.148620
     6  H    0.151751
     7  H    0.160918
     8  H    0.154508
     9  H    0.154560
    10  H    0.160172
    11  C   -0.300380
    12  C   -0.299398
    13  C   -0.475582
    14  H    0.150341
    15  H    0.150900
    16  H    0.152004
    17  H    0.151692
    18  H    0.154908
    19  H    0.155037
    20  H    0.160263
    21  C   -0.301549
    22  C   -0.299043
    23  C   -0.475684
    24  H    0.152057
    25  H    0.150767
    26  H    0.151924
    27  H    0.151730
    28  H    0.155066
    29  H    0.154968
    30  H    0.160387
    31  C   -0.298230
    32  C   -0.304327
    33  C   -0.475826
    34  H    0.149183
    35  H    0.148975
    36  H    0.153209
    37  H    0.157385
    38  H    0.154606
    39  H    0.154684
    40  H    0.160358
 Sum of Mulliken charges =  -0.00000

 Dipole moment (field-independent basis, Debye):
    X=              0.0164    Y=              0.0098    Z=             -0.0029  Tot=              0.0193
 Quadrupole moment (field-independent basis, Debye-Ang):
   XX=            -85.1120   YY=            -87.0251   ZZ=            -82.9327
   XY=              0.7656   XZ=             -0.0465   YZ=             -0.0044

 Normal termination of Gaussian 16 at Thu May  6 10:00:53 2021.
