 Gaussian 16, Revision A.03,
 Gaussian 16:  EM64L-G16RevA.03 25-Dec-2016

 -------------
 #p 6-31g* mp2
 -------------

 ------------------------------------------------------
 Input file generated by CHIRIPA (05-May-2021 14:53:16)
 ------------------------------------------------------
 Symbolic Z-matrix:
 Charge =  0 Multiplicity = 1

                         Standard orientation:
 ---------------------------------------------------------------------
 Center     Atomic      Atomic             Coordinates (Angstroms)
 Number     Number       Type             X           Y           Z
 ---------------------------------------------------------------------
      1          6           0       -3.201516    0.668841   -0.507586
      2          6           0       -2.082135    1.709967   -0.539649
      3          6           0       -2.576836    3.097423   -0.949565
      4          1           0       -3.671158    0.614047   -1.499241
      5          1           0       -3.982428    1.001631    0.190142
      6          1           0       -1.302918    1.374645   -1.236066
      7          1           0       -1.614977    1.762151    0.452146
      8          1           0       -3.338634    3.456937   -0.250268
      9          1           0       -3.024801    3.067228   -1.948072
     10          1           0       -1.760384    3.826119   -0.965909
     11          6           0       -2.722602   -0.723229   -0.099529
     12          6           0       -3.841983   -1.764354   -0.067466
     13          6           0       -3.347282   -3.151810    0.342450
     14          1           0       -1.941691   -1.056019   -0.797256
     15          1           0       -2.252961   -0.668435    0.892126
     16          1           0       -4.309141   -1.816539   -1.059260
     17          1           0       -4.621200   -1.429032    0.628951
     18          1           0       -2.899317   -3.121616    1.340957
     19          1           0       -2.585484   -3.511324   -0.356846
     20          1           0       -4.163734   -3.880507    0.358795
     21          6           0        0.965415    1.730071    1.512640
     22          6           0        1.907364    2.146444    0.566128
     23          6           0        2.660282    1.208433   -0.146473
     24          6           0        2.444495   -0.143958    0.113845
     25          6           0        1.513490   -0.590150    1.050558
     26          6           0        0.771825    0.365508    1.751413
     27          1           0        0.384901    2.465594    2.061643
     28          1           0        2.059827    3.205519    0.378619
     29          1           0        3.396110    1.503114   -0.884808
     30          1           0        1.383834   -1.652864    1.215625
     31          1           0        0.040987    0.039248    2.485903
     32          7           0        3.235619   -1.146329   -0.634335
     33          8           0        3.026663   -2.331899   -0.386548
     34          8           0        4.049679   -0.727438   -1.454381
 ---------------------------------------------------------------------

 SCF Done:  E(RHF) =  -669.534147133     A.U. after   15 cycles
 E2 =    -0.2093934643D+01 EUMP2 =    -0.67162808177619D+03

 The electronic state is 1-A.
 Alpha  occ. eigenvalues --  -20.60775 -20.60769 -15.85830 -11.31191 -11.27788
 Alpha  occ. eigenvalues --  -11.27770 -11.27516 -11.26780 -11.26764 -11.21975
 Alpha  occ. eigenvalues --  -11.21926 -11.21817 -11.21757 -11.21589 -11.21350
 Alpha  occ. eigenvalues --   -1.59852  -1.39405  -1.19380  -1.08878  -1.08739
 Alpha  occ. eigenvalues --   -1.04780  -1.03925  -0.96385  -0.95613  -0.87396
 Alpha  occ. eigenvalues --   -0.86186  -0.82445  -0.79984  -0.78662  -0.77477
 Alpha  occ. eigenvalues --   -0.72049  -0.71176  -0.70513  -0.65502  -0.65034
 Alpha  occ. eigenvalues --   -0.64770  -0.62130  -0.61333  -0.59772  -0.57999
 Alpha  occ. eigenvalues --   -0.55689  -0.55288  -0.53285  -0.52969  -0.52893
 Alpha  occ. eigenvalues --   -0.52776  -0.50322  -0.48808  -0.48802  -0.48290
 Alpha  occ. eigenvalues --   -0.47028  -0.46201  -0.46103  -0.44812  -0.44184
 Alpha  occ. eigenvalues --   -0.37225  -0.36349
 Alpha virt. eigenvalues --    0.05022   0.11143   0.16409   0.20214   0.22971
 Alpha virt. eigenvalues --    0.23595   0.25534   0.26667   0.27363   0.28055
 Alpha virt. eigenvalues --    0.28999   0.30290   0.31217   0.31404   0.31932

 Mulliken charges:
               1
     1  C   -0.298897
     2  C   -0.299180
     3  C   -0.475999
     4  H    0.151873
     5  H    0.147728
     6  H    0.156232
     7  H    0.146755
     8  H    0.153874
     9  H    0.158337
    10  H    0.155565
    11  C   -0.297435
    12  C   -0.300082
    13  C   -0.475993
    14  H    0.153939
    15  H    0.140869
    16  H    0.154297
    17  H    0.150975
    18  H    0.150854
    19  H    0.159253
    20  H    0.162183
    21  C   -0.168975
    22  C   -0.218764
    23  C   -0.171043
    24  C    0.157595
    25  C   -0.170242
    26  C   -0.214592
    27  H    0.225748
    28  H    0.223399
    29  H    0.275673
    30  H    0.276050
    31  H    0.222992
    32  N    0.488053
    33  O   -0.460425
    34  O   -0.460620
 Sum of Mulliken charges =  -0.00000

 Dipole moment (field-independent basis, Debye):
    X=             -2.7744    Y=              3.4806    Z=              2.5589  Tot=              5.1342
 Quadrupole moment (field-independent basis, Debye-Ang):
   XX=           -108.0625   YY=            -94.5025   ZZ=            -92.6273
   XY=             11.5061   XZ=              4.8595   YZ=             -1.4073

 Normal termination of Gaussian 16 at Thu May  6 15:35:32 2021.
