 Gaussian 16, Revision A.03,
 Gaussian 16:  EM64L-G16RevA.03 25-Dec-2016

 -------------
 #p 6-31g* mp2
 -------------

 ------------------------------------------------------
 Input file generated by CHIRIPA (05-May-2021 14:57:22)
 ------------------------------------------------------
 Symbolic Z-matrix:
 Charge =  0 Multiplicity = 1

                         Standard orientation:
 ---------------------------------------------------------------------
 Center     Atomic      Atomic             Coordinates (Angstroms)
 Number     Number       Type             X           Y           Z
 ---------------------------------------------------------------------
      1          6           0        3.049515    2.312298    1.187712
      2          6           0        3.275468    2.109479   -0.177693
      3          6           0        3.284245    0.817452   -0.711675
      4          6           0        3.062519   -0.253708    0.152468
      5          6           0        2.834505   -0.084060    1.517210
      6          6           0        2.830141    1.216813    2.029321
      7          1           0        3.044411    3.319412    1.594027
      8          1           0        3.446129    2.958370   -0.833669
      9          1           0        3.456620    0.631825   -1.764883
     10          1           0        2.667459   -0.950060    2.146144
     11          1           0        2.654395    1.371326    3.090116
     12          7           0        3.069475   -1.626202   -0.401258
     13          8           0        2.871535   -2.553194    0.381138
     14          8           0        3.272734   -1.748983   -1.607180
     15          6           0       -1.087489    0.567118   -1.719711
     16          6           0       -2.227232    1.377378   -1.751106
     17          6           0       -3.326799    1.087899   -0.937656
     18          6           0       -3.252200   -0.024663   -0.101037
     19          6           0       -2.130842   -0.851065   -0.047137
     20          6           0       -1.043010   -0.542562   -0.869327
     21          1           0       -0.237876    0.799381   -2.355013
     22          1           0       -2.264575    2.239813   -2.410542
     23          1           0       -4.221675    1.698304   -0.942002
     24          1           0       -2.123129   -1.704000    0.620591
     25          1           0       -0.159184   -1.173589   -0.842853
     26          7           0       -4.410052   -0.341192    0.764753
     27          8           0       -4.319413   -1.327087    1.493060
     28          8           0       -5.386288    0.402602    0.698658
 ---------------------------------------------------------------------

 SCF Done:  E(RHF) =  -868.338280908     A.U. after   16 cycles
 E2 =    -0.2599982683D+01 EUMP2 =    -0.87093826359048D+03

 The electronic state is 1-A.
 Alpha  occ. eigenvalues --  -20.61754 -20.61738 -20.60699 -20.60691 -15.86792
 Alpha  occ. eigenvalues --  -15.85749 -11.32046 -11.31085 -11.28623 -11.28543
 Alpha  occ. eigenvalues --  -11.28250 -11.27676 -11.27607 -11.27577 -11.27498
 Alpha  occ. eigenvalues --  -11.27390 -11.26698 -11.26599  -1.60846  -1.59775
 Alpha  occ. eigenvalues --   -1.40391  -1.39328  -1.20192  -1.19255  -1.09603
 Alpha  occ. eigenvalues --   -1.08656  -1.05564  -1.04647  -0.96456  -0.95495
 Alpha  occ. eigenvalues --   -0.86966  -0.86049  -0.83278  -0.82323  -0.78358
 Alpha  occ. eigenvalues --   -0.77376  -0.72988  -0.72211  -0.71965  -0.71268
 Alpha  occ. eigenvalues --   -0.71099  -0.70362  -0.65831  -0.65545  -0.64904
 Alpha  occ. eigenvalues --   -0.64641  -0.62909  -0.61988  -0.56036  -0.55159
 Alpha  occ. eigenvalues --   -0.53919  -0.53640  -0.52975  -0.52729  -0.49765
 Alpha  occ. eigenvalues --   -0.49743  -0.48726  -0.48722  -0.45808  -0.44740
 Alpha  occ. eigenvalues --   -0.38162  -0.37265  -0.37129  -0.36245
 Alpha virt. eigenvalues --    0.04129   0.05151   0.10460   0.11388   0.15673
 Alpha virt. eigenvalues --    0.16656   0.20601   0.21403   0.26506   0.26903
 Alpha virt. eigenvalues --    0.27571   0.28448   0.30400   0.30657   0.32012

 Mulliken charges:
               1
     1  C   -0.169277
     2  C   -0.218368
     3  C   -0.176774
     4  C    0.153973
     5  C   -0.171096
     6  C   -0.216883
     7  H    0.229024
     8  H    0.224505
     9  H    0.274071
    10  H    0.277990
    11  H    0.227955
    12  N    0.485440
    13  O   -0.457765
    14  O   -0.460995
    15  C   -0.169985
    16  C   -0.219271
    17  C   -0.171827
    18  C    0.158179
    19  C   -0.172480
    20  C   -0.220000
    21  H    0.223995
    22  H    0.221215
    23  H    0.274495
    24  H    0.277884
    25  H    0.229488
    26  N    0.487946
    27  O   -0.459875
    28  O   -0.461564
 Sum of Mulliken charges =  -0.00000

 Dipole moment (field-independent basis, Debye):
    X=              4.2242    Y=              5.9896    Z=             -0.9211  Tot=              7.3870
 Quadrupole moment (field-independent basis, Debye-Ang):
   XX=           -131.5757   YY=           -104.0602   ZZ=            -99.3235
   XY=              9.7576   XZ=             16.0169   YZ=             -3.2133

 Normal termination of Gaussian 16 at Fri May  7 07:54:52 2021.
