 Gaussian 16, Revision A.03,
 Gaussian 16:  EM64L-G16RevA.03 25-Dec-2016

 -------------
 #p 6-31g* mp2
 -------------

 ------------------------------------------------------
 Input file generated by CHIRIPA (05-May-2021 14:51:07)
 ------------------------------------------------------
 Symbolic Z-matrix:
 Charge =  0 Multiplicity = 1

                         Standard orientation:
 ---------------------------------------------------------------------
 Center     Atomic      Atomic             Coordinates (Angstroms)
 Number     Number       Type             X           Y           Z
 ---------------------------------------------------------------------
      1          6           0        3.655790   -0.043099   -0.235975
      2          6           0        4.083345    1.413395   -0.052115
      3          6           0        5.252505    1.804927   -0.956307
      4          1           0        4.513614   -0.698797   -0.033138
      5          1           0        3.378790   -0.206799   -1.286627
      6          1           0        4.358136    1.574648    0.998173
      7          1           0        3.224352    2.065694   -0.255226
      8          1           0        4.985943    1.672287   -2.009850
      9          1           0        6.126169    1.178451   -0.749329
     10          1           0        5.541804    2.850073   -0.808539
     11          6           0        2.488002   -0.449531    0.661139
     12          6           0        2.060447   -1.906026    0.477278
     13          6           0        0.891288   -2.297558    1.381471
     14          1           0        2.765003   -0.285832    1.711790
     15          1           0        1.630178    0.206167    0.458302
     16          1           0        2.919440   -2.558324    0.680390
     17          1           0        1.785656   -2.067279   -0.573009
     18          1           0        0.017624   -1.671082    1.174493
     19          1           0        1.157849   -2.164918    2.435014
     20          1           0        0.601989   -3.342704    1.233703
     21          6           0       -2.602685   -0.333346   -0.377704
     22          6           0       -3.334630   -1.649535   -0.642063
     23          6           0       -2.382456   -2.799733   -0.971009
     24          1           0       -2.000869   -0.072410   -1.258996
     25          1           0       -1.896582   -0.474812    0.452237
     26          1           0       -4.040136   -1.505256   -1.470351
     27          1           0       -3.934922   -1.907270    0.239887
     28          1           0       -1.686557   -2.972364   -0.143651
     29          1           0       -1.792368   -2.568066   -1.863605
     30          1           0       -2.926760   -3.730976   -1.156425
     31          6           0       -3.541108    0.825977   -0.047460
     32          6           0       -2.809163    2.142166    0.216899
     33          6           0       -3.761336    3.292363    0.545846
     34          1           0       -4.247210    0.967443   -0.877400
     35          1           0       -4.142924    0.565040    0.833833
     36          1           0       -2.208870    2.399900   -0.665052
     37          1           0       -2.103656    1.997887    1.045187
     38          1           0       -4.351425    3.060697    1.438442
     39          1           0       -4.457236    3.464994   -0.281514
     40          1           0       -3.217033    4.223607    0.731262
 ---------------------------------------------------------------------

 SCF Done:  E(RHF) =  -470.732650344     A.U. after   11 cycles
 E2 =    -0.1583648210D+01 EUMP2 =    -0.47231629855414D+03

 The electronic state is 1-A.
 Alpha  occ. eigenvalues --  -11.21633 -11.21596 -11.21591 -11.21587 -11.21438
 Alpha  occ. eigenvalues --  -11.21390 -11.21378 -11.21330 -11.21091 -11.21064
 Alpha  occ. eigenvalues --  -11.21055 -11.20978  -1.08462  -1.08410  -1.03566
 Alpha  occ. eigenvalues --   -1.03493  -0.96014  -0.95949  -0.87038  -0.86965
 Alpha  occ. eigenvalues --   -0.79669  -0.79528  -0.78311  -0.78195  -0.65166
 Alpha  occ. eigenvalues --   -0.64985  -0.61093  -0.60787  -0.59368  -0.59341
 Alpha  occ. eigenvalues --   -0.57661  -0.57527  -0.55348  -0.55205  -0.52731
 Alpha  occ. eigenvalues --   -0.52669  -0.52456  -0.52306  -0.50021  -0.49883
 Alpha  occ. eigenvalues --   -0.47971  -0.47848  -0.46828  -0.46496  -0.45927
 Alpha  occ. eigenvalues --   -0.45771  -0.45725  -0.45364  -0.43795  -0.43769
 Alpha virt. eigenvalues --    0.21137   0.23237   0.23504   0.24974   0.25515
 Alpha virt. eigenvalues --    0.26482   0.26888   0.27511   0.28404   0.29279
 Alpha virt. eigenvalues --    0.30573   0.31144   0.31491   0.31962   0.32072

 Mulliken charges:
               1
     1  C   -0.298283
     2  C   -0.299705
     3  C   -0.475691
     4  H    0.149615
     5  H    0.149529
     6  H    0.151851
     7  H    0.152110
     8  H    0.155131
     9  H    0.155157
    10  H    0.160211
    11  C   -0.299229
    12  C   -0.299125
    13  C   -0.485265
    14  H    0.149250
    15  H    0.150594
    16  H    0.151904
    17  H    0.152887
    18  H    0.163166
    19  H    0.155009
    20  H    0.160980
    21  C   -0.305475
    22  C   -0.299206
    23  C   -0.482460
    24  H    0.149105
    25  H    0.155309
    26  H    0.151827
    27  H    0.151866
    28  H    0.164112
    29  H    0.153998
    30  H    0.159701
    31  C   -0.297522
    32  C   -0.299881
    33  C   -0.475704
    34  H    0.149798
    35  H    0.149909
    36  H    0.151607
    37  H    0.151952
    38  H    0.155364
    39  H    0.155258
    40  H    0.160346
 Sum of Mulliken charges =  -0.00000

 Dipole moment (field-independent basis, Debye):
    X=             -0.0003    Y=             -0.0001    Z=              0.0145  Tot=              0.0145
 Quadrupole moment (field-independent basis, Debye-Ang):
   XX=            -85.4146   YY=            -85.7192   ZZ=            -83.7120
   XY=             -0.0895   XZ=              1.1042   YZ=             -0.4579

 Normal termination of Gaussian 16 at Wed May  5 19:39:35 2021.
