 Gaussian 16, Revision A.03,
 Gaussian 16:  EM64L-G16RevA.03 25-Dec-2016

 -------------
 #p 6-31g* mp2
 -------------

 ------------------------------------------------------
 Input file generated by CHIRIPA (05-May-2021 14:53:15)
 ------------------------------------------------------
 Symbolic Z-matrix:
 Charge =  0 Multiplicity = 1

                         Standard orientation:
 ---------------------------------------------------------------------
 Center     Atomic      Atomic             Coordinates (Angstroms)
 Number     Number       Type             X           Y           Z
 ---------------------------------------------------------------------
      1          6           0        2.187710   -0.561735   -0.067464
      2          6           0        3.098179   -1.765732   -0.311232
      3          6           0        2.368896   -3.100151   -0.152279
      4          1           0        1.762132   -0.630541    0.943028
      5          1           0        1.341109   -0.603531   -0.766689
      6          1           0        3.943543   -1.720934    0.387315
      7          1           0        3.521790   -1.693952   -1.321192
      8          1           0        1.536151   -3.170690   -0.859499
      9          1           0        1.960300   -3.197825    0.858715
     10          1           0        3.038401   -3.947328   -0.330929
     11          6           0        2.902370    0.779492   -0.222700
     12          6           0        1.991900    1.983489    0.021068
     13          6           0        2.721183    3.317908   -0.137885
     14          1           0        3.748970    0.821288    0.476525
     15          1           0        3.327948    0.848298   -1.233192
     16          1           0        1.568290    1.911709    1.031028
     17          1           0        1.146536    1.938691   -0.677479
     18          1           0        3.129779    3.415581   -1.148879
     19          1           0        3.553929    3.388446    0.569335
     20          1           0        2.051679    4.165084    0.040765
     21          6           0       -1.654632   -2.583028    0.234756
     22          6           0       -1.056056   -1.749822    1.185541
     23          6           0       -1.234094   -0.364347    1.128026
     24          6           0       -2.020571    0.156433    0.101608
     25          6           0       -2.630096   -0.647472   -0.860425
     26          6           0       -2.438360   -2.030168   -0.783398
     27          1           0       -1.511006   -3.658220    0.287014
     28          1           0       -0.446881   -2.176400    1.977363
     29          1           0       -0.782299    0.303848    1.851084
     30          1           0       -3.231865   -0.192952   -1.638053
     31          1           0       -2.904437   -2.674820   -1.523155
     32          7           0       -2.216303    1.621704    0.030390
     33          8           0       -2.913822    2.055787   -0.883763
     34          8           0       -1.668493    2.308354    0.890072
 ---------------------------------------------------------------------

 SCF Done:  E(RHF) =  -669.533970948     A.U. after   15 cycles
 E2 =    -0.2095797658D+01 EUMP2 =    -0.67162976860661D+03

 The electronic state is 1-A.
 Alpha  occ. eigenvalues --  -20.60819 -20.60795 -15.85844 -11.31176 -11.27749
 Alpha  occ. eigenvalues --  -11.27716 -11.27468 -11.26760 -11.26706 -11.21928
 Alpha  occ. eigenvalues --  -11.21665 -11.21512 -11.21287 -11.21209 -11.20592
 Alpha  occ. eigenvalues --   -1.59873  -1.39427  -1.19355  -1.08754  -1.08477
 Alpha  occ. eigenvalues --   -1.04755  -1.03538  -0.96025  -0.95585  -0.87048
 Alpha  occ. eigenvalues --   -0.86150  -0.82432  -0.79648  -0.78301  -0.77433
 Alpha  occ. eigenvalues --   -0.72067  -0.71187  -0.70455  -0.65149  -0.64990
 Alpha  occ. eigenvalues --   -0.64767  -0.62103  -0.60945  -0.59421  -0.57597
 Alpha  occ. eigenvalues --   -0.55353  -0.55232  -0.53195  -0.52855  -0.52656
 Alpha  occ. eigenvalues --   -0.52447  -0.50000  -0.48842  -0.48822  -0.47917
 Alpha  occ. eigenvalues --   -0.46693  -0.45843  -0.45672  -0.44725  -0.43775
 Alpha  occ. eigenvalues --   -0.37312  -0.36207
 Alpha virt. eigenvalues --    0.05024   0.11160   0.16385   0.20042   0.23113
 Alpha virt. eigenvalues --    0.23836   0.25141   0.26761   0.26788   0.28812
 Alpha virt. eigenvalues --    0.29146   0.30193   0.31313   0.31631   0.32244

 Mulliken charges:
               1
     1  C   -0.295884
     2  C   -0.299331
     3  C   -0.475071
     4  H    0.139845
     5  H    0.153619
     6  H    0.152295
     7  H    0.153935
     8  H    0.154880
     9  H    0.145171
    10  H    0.160923
    11  C   -0.299220
    12  C   -0.297963
    13  C   -0.477073
    14  H    0.147763
    15  H    0.149457
    16  H    0.153744
    17  H    0.153097
    18  H    0.153185
    19  H    0.151940
    20  H    0.169218
    21  C   -0.171069
    22  C   -0.213150
    23  C   -0.166486
    24  C    0.156394
    25  C   -0.172218
    26  C   -0.219915
    27  H    0.226486
    28  H    0.222991
    29  H    0.275542
    30  H    0.275324
    31  H    0.223315
    32  N    0.488223
    33  O   -0.460512
    34  O   -0.459455
 Sum of Mulliken charges =  -0.00000

 Dipole moment (field-independent basis, Debye):
    X=              0.6269    Y=             -5.0237    Z=              0.2204  Tot=              5.0675
 Quadrupole moment (field-independent basis, Debye-Ang):
   XX=            -96.9498   YY=            -97.9030   ZZ=            -90.7614
   XY=             10.7911   XZ=              2.3858   YZ=              0.2326

 Normal termination of Gaussian 16 at Thu May  6 01:06:49 2021.
