 Gaussian 16, Revision A.03,
 Gaussian 16:  EM64L-G16RevA.03 25-Dec-2016

 -------------
 #p 6-31g* mp2
 -------------

 ------------------------------------------------------
 Input file generated by CHIRIPA (05-May-2021 14:53:12)
 ------------------------------------------------------
 Symbolic Z-matrix:
 Charge =  0 Multiplicity = 1

                         Standard orientation:
 ---------------------------------------------------------------------
 Center     Atomic      Atomic             Coordinates (Angstroms)
 Number     Number       Type             X           Y           Z
 ---------------------------------------------------------------------
      1          6           0        4.484621   -0.244115    0.401363
      2          6           0        5.877139   -0.491830   -0.179599
      3          6           0        6.528893   -1.761821    0.368243
      4          1           0        4.557235   -0.177989    1.495575
      5          1           0        3.844264   -1.109776    0.182347
      6          1           0        6.514285    0.374639    0.039247
      7          1           0        5.801230   -0.557183   -1.272569
      8          1           0        5.916655   -2.639517    0.137125
      9          1           0        6.633761   -1.702401    1.456395
     10          1           0        7.523525   -1.919594   -0.060331
     11          6           0        3.820133    1.021852   -0.136699
     12          6           0        2.427616    1.269567    0.444263
     13          6           0        1.775861    2.539558   -0.103580
     14          1           0        4.460491    1.887513    0.082316
     15          1           0        3.747520    0.955726   -1.230911
     16          1           0        2.503525    1.334920    1.537233
     17          1           0        1.790470    0.403098    0.225416
     18          1           0        1.670994    2.480138   -1.191731
     19          1           0        2.388100    3.417254    0.127539
     20          1           0        0.781230    2.697331    0.324995
     21          6           0       -5.646866    0.120633    0.538663
     22          6           0       -5.168521   -1.190428    0.444727
     23          6           0       -3.839019   -1.437427    0.089812
     24          6           0       -3.011749   -0.344837   -0.165455
     25          6           0       -3.458706    0.972834   -0.080241
     26          6           0       -4.791940    1.196184    0.276341
     27          1           0       -6.681105    0.303323    0.815017
     28          1           0       -5.830200   -2.027656    0.647885
     29          1           0       -3.442554   -2.442322    0.009698
     30          1           0       -2.775221    1.786967   -0.288696
     31          1           0       -5.160689    2.215429    0.348519
     32          7           0       -1.602289   -0.593805   -0.542070
     33          8           0       -0.893634    0.386041   -0.761949
     34          8           0       -1.232899   -1.764078   -0.610251
 ---------------------------------------------------------------------

 SCF Done:  E(RHF) =  -669.536208442     A.U. after   15 cycles
 E2 =    -0.2091609137D+01 EUMP2 =    -0.67162781757923D+03

 The electronic state is 1-A.
 Alpha  occ. eigenvalues --  -20.61029 -20.61010 -15.86036 -11.31334 -11.27892
 Alpha  occ. eigenvalues --  -11.27889 -11.27625 -11.26893 -11.26883 -11.20737
 Alpha  occ. eigenvalues --  -11.20338 -11.20310 -11.20137 -11.19963 -11.19618
 Alpha  occ. eigenvalues --   -1.60077  -1.39633  -1.19499  -1.08910  -1.07261
 Alpha  occ. eigenvalues --   -1.04890  -1.02340  -0.95759  -0.94828  -0.86292
 Alpha  occ. eigenvalues --   -0.85864  -0.82588  -0.78447  -0.77645  -0.77038
 Alpha  occ. eigenvalues --   -0.72268  -0.71386  -0.70607  -0.65157  -0.64894
 Alpha  occ. eigenvalues --   -0.63880  -0.62237  -0.59714  -0.58233  -0.56423
 Alpha  occ. eigenvalues --   -0.55396  -0.54119  -0.53223  -0.52980  -0.51552
 Alpha  occ. eigenvalues --   -0.51266  -0.49061  -0.49013  -0.48775  -0.46753
 Alpha  occ. eigenvalues --   -0.45484  -0.45055  -0.44608  -0.44364  -0.42616
 Alpha  occ. eigenvalues --   -0.37475  -0.36489
 Alpha virt. eigenvalues --    0.04857   0.11165   0.16349   0.21215   0.23996
 Alpha virt. eigenvalues --    0.25299   0.27101   0.27757   0.27929   0.28731
 Alpha virt. eigenvalues --    0.29174   0.30731   0.31823   0.32528   0.32877

 Mulliken charges:
               1
     1  C   -0.298590
     2  C   -0.298754
     3  C   -0.475210
     4  H    0.146134
     5  H    0.154305
     6  H    0.149229
     7  H    0.151607
     8  H    0.155783
     9  H    0.153332
    10  H    0.157340
    11  C   -0.297543
    12  C   -0.305857
    13  C   -0.467325
    14  H    0.143332
    15  H    0.150085
    16  H    0.141942
    17  H    0.176367
    18  H    0.157696
    19  H    0.143389
    20  H    0.156826
    21  C   -0.170465
    22  C   -0.218607
    23  C   -0.170582
    24  C    0.157758
    25  C   -0.170882
    26  C   -0.218586
    27  H    0.226162
    28  H    0.223946
    29  H    0.275891
    30  H    0.276248
    31  H    0.224088
    32  N    0.491059
    33  O   -0.460692
    34  O   -0.459426
 Sum of Mulliken charges =  -0.00000

 Dipole moment (field-independent basis, Debye):
    X=             -5.3648    Y=              0.7218    Z=              1.2272  Tot=              5.5505
 Quadrupole moment (field-independent basis, Debye-Ang):
   XX=            -66.8335   YY=            -91.5947   ZZ=            -95.7166
   XY=              0.2598   XZ=             -3.5429   YZ=             -0.4492

 Normal termination of Gaussian 16 at Thu May  6 02:33:22 2021.
