 Gaussian 16, Revision A.03,
 Gaussian 16:  EM64L-G16RevA.03 25-Dec-2016

 -------------
 #p 6-31g* mp2
 -------------

 ------------------------------------------------------
 Input file generated by CHIRIPA (05-May-2021 14:53:15)
 ------------------------------------------------------
 Symbolic Z-matrix:
 Charge =  0 Multiplicity = 1

                         Standard orientation:
 ---------------------------------------------------------------------
 Center     Atomic      Atomic             Coordinates (Angstroms)
 Number     Number       Type             X           Y           Z
 ---------------------------------------------------------------------
      1          6           0       -2.278951    0.769393   -0.845929
      2          6           0       -1.869342    2.126987   -0.273964
      3          6           0       -1.229297    3.040335   -1.319876
      4          1           0       -1.394777    0.276774   -1.273139
      5          1           0       -2.981299    0.926006   -1.676335
      6          1           0       -1.169046    1.967803    0.556013
      7          1           0       -2.754558    2.616348    0.152105
      8          1           0       -1.924704    3.228531   -2.144251
      9          1           0       -0.330183    2.576301   -1.738048
     10          1           0       -0.944171    4.005407   -0.889529
     11          6           0       -2.920298   -0.154855    0.187593
     12          6           0       -3.329906   -1.512449   -0.384371
     13          6           0       -3.969951   -2.425797    0.661541
     14          1           0       -2.217950   -0.311468    1.017999
     15          1           0       -3.804472    0.337764    0.614803
     16          1           0       -2.444691   -2.001810   -0.810440
     17          1           0       -4.030203   -1.353266   -1.214348
     18          1           0       -4.869065   -1.961763    1.079712
     19          1           0       -3.274545   -2.613993    1.485915
     20          1           0       -4.255078   -3.390869    0.231193
     21          6           0        1.436932    1.846636    1.545099
     22          6           0        2.176880    1.941203    0.361860
     23          6           0        2.511719    0.791672   -0.359951
     24          6           0        2.088384   -0.441787    0.132650
     25          6           0        1.350037   -0.568665    1.308249
     26          6           0        1.026596    0.594212    2.013691
     27          1           0        1.181249    2.744803    2.099462
     28          1           0        2.496894    2.912523   -0.004435
     29          1           0        3.083573    0.836064   -1.278880
     30          1           0        1.045167   -1.550923    1.648313
     31          1           0        0.451840    0.517750    2.932306
     32          7           0        2.436830   -1.665809   -0.622835
     33          8           0        2.051937   -2.740672   -0.167683
     34          8           0        3.088237   -1.527157   -1.655832
 ---------------------------------------------------------------------

 SCF Done:  E(RHF) =  -669.534822870     A.U. after   15 cycles
 E2 =    -0.2094978553D+01 EUMP2 =    -0.67162980142273D+03

 The electronic state is 1-A.
 Alpha  occ. eigenvalues --  -20.60898 -20.60893 -15.85955 -11.31368 -11.27945
 Alpha  occ. eigenvalues --  -11.27940 -11.27657 -11.26946 -11.26934 -11.21725
 Alpha  occ. eigenvalues --  -11.21605 -11.21532 -11.21463 -11.21387 -11.21105
 Alpha  occ. eigenvalues --   -1.59975  -1.39526  -1.19552  -1.08947  -1.08539
 Alpha  occ. eigenvalues --   -1.04951  -1.03658  -0.96132  -0.95756  -0.87149
 Alpha  occ. eigenvalues --   -0.86339  -0.82583  -0.79729  -0.78374  -0.77621
 Alpha  occ. eigenvalues --   -0.72170  -0.71302  -0.70643  -0.65217  -0.65195
 Alpha  occ. eigenvalues --   -0.64930  -0.62288  -0.61100  -0.59513  -0.57742
 Alpha  occ. eigenvalues --   -0.55448  -0.55430  -0.53259  -0.53029  -0.52812
 Alpha  occ. eigenvalues --   -0.52553  -0.50073  -0.48932  -0.48923  -0.48041
 Alpha  occ. eigenvalues --   -0.46778  -0.45905  -0.45853  -0.44922  -0.43917
 Alpha  occ. eigenvalues --   -0.37393  -0.36506
 Alpha virt. eigenvalues --    0.04859   0.11029   0.16244   0.20720   0.22932
 Alpha virt. eigenvalues --    0.23896   0.26087   0.26733   0.27556   0.28162
 Alpha virt. eigenvalues --    0.28584   0.30593   0.31160   0.31571   0.31966

 Mulliken charges:
               1
     1  C   -0.297452
     2  C   -0.305067
     3  C   -0.475910
     4  H    0.151998
     5  H    0.150197
     6  H    0.155244
     7  H    0.148997
     8  H    0.156995
     9  H    0.155624
    10  H    0.152457
    11  C   -0.297965
    12  C   -0.301372
    13  C   -0.474906
    14  H    0.143253
    15  H    0.148182
    16  H    0.157590
    17  H    0.152696
    18  H    0.153741
    19  H    0.152367
    20  H    0.162995
    21  C   -0.172792
    22  C   -0.214155
    23  C   -0.172614
    24  C    0.158541
    25  C   -0.170356
    26  C   -0.217789
    27  H    0.227809
    28  H    0.225412
    29  H    0.276624
    30  H    0.276356
    31  H    0.225244
    32  N    0.487860
    33  O   -0.460033
    34  O   -0.459770
 Sum of Mulliken charges =  -0.00000

 Dipole moment (field-independent basis, Debye):
    X=             -1.0806    Y=              4.2296    Z=              2.6568  Tot=              5.1104
 Quadrupole moment (field-independent basis, Debye-Ang):
   XX=            -98.8218   YY=            -98.1588   ZZ=            -92.3931
   XY=             10.8270   XZ=              4.3077   YZ=             -2.1434

 Normal termination of Gaussian 16 at Thu May  6 07:28:29 2021.
