 Gaussian 16, Revision A.03,
 Gaussian 16:  EM64L-G16RevA.03 25-Dec-2016

 -------------
 #p 6-31g* mp2
 -------------

 ------------------------------------------------------
 Input file generated by CHIRIPA (05-May-2021 14:51:13)
 ------------------------------------------------------
 Symbolic Z-matrix:
 Charge =  0 Multiplicity = 1

                         Standard orientation:
 ---------------------------------------------------------------------
 Center     Atomic      Atomic             Coordinates (Angstroms)
 Number     Number       Type             X           Y           Z
 ---------------------------------------------------------------------
      1          6           0       -4.088516    0.873968   -0.319785
      2          6           0       -2.851721    1.631434    0.164535
      3          6           0       -2.863013    3.104671   -0.244415
      4          1           0       -4.153300    0.951829   -1.413717
      5          1           0       -4.988310    1.360103    0.082008
      6          1           0       -1.954466    1.143192   -0.236925
      7          1           0       -2.789768    1.551599    1.257423
      8          1           0       -3.740657    3.612396    0.168570
      9          1           0       -2.900609    3.201669   -1.334268
     10          1           0       -1.969810    3.627130    0.112074
     11          6           0       -4.091750   -0.600099    0.081271
     12          6           0       -5.328546   -1.357565   -0.403049
     13          6           0       -5.317253   -2.830802    0.005901
     14          1           0       -3.191956   -1.086234   -0.320522
     15          1           0       -4.026966   -0.677960    1.175203
     16          1           0       -5.390499   -1.277730   -1.495937
     17          1           0       -6.225800   -0.869323   -0.001589
     18          1           0       -5.279657   -2.927800    1.095754
     19          1           0       -4.439609   -3.338527   -0.407084
     20          1           0       -6.210457   -3.353261   -0.350587
     21          6           0        3.436838   -0.346647    0.454903
     22          6           0        2.296035    0.647554    0.235545
     23          6           0        0.995700    0.214139    0.913095
     24          1           0        3.134264   -1.331920    0.074598
     25          1           0        3.606832   -0.466778    1.533822
     26          1           0        2.129166    0.766824   -0.842668
     27          1           0        2.601433    1.630620    0.616243
     28          1           0        1.139331    0.113601    1.993773
     29          1           0        0.664381   -0.755101    0.526571
     30          1           0        0.193586    0.939189    0.743460
     31          6           0        4.743428    0.072778   -0.216389
     32          6           0        5.884231   -0.921423    0.002969
     33          6           0        7.184566   -0.488008   -0.674582
     34          1           0        4.573435    0.192910   -1.295308
     35          1           0        5.046002    1.058050    0.163916
     36          1           0        5.578834   -1.904488   -0.377729
     37          1           0        6.051100   -1.040694    1.081182
     38          1           0        7.515886    0.481233   -0.288058
     39          1           0        7.040936   -0.387471   -1.755259
     40          1           0        7.986681   -1.213059   -0.504946
 ---------------------------------------------------------------------

 SCF Done:  E(RHF) =  -470.733148930     A.U. after   11 cycles
 E2 =    -0.1582443988D+01 EUMP2 =    -0.47231559291856D+03

 The electronic state is 1-A.
 Alpha  occ. eigenvalues --  -11.21597 -11.21585 -11.21584 -11.21565 -11.21395
 Alpha  occ. eigenvalues --  -11.21383 -11.21335 -11.21324 -11.21076 -11.21068
 Alpha  occ. eigenvalues --  -11.21058 -11.21000  -1.08425  -1.08407  -1.03541
 Alpha  occ. eigenvalues --   -1.03494  -0.95985  -0.95947  -0.87011  -0.86954
 Alpha  occ. eigenvalues --   -0.79657  -0.79511  -0.78248  -0.78210  -0.65064
 Alpha  occ. eigenvalues --   -0.65034  -0.60955  -0.60892  -0.59508  -0.59189
 Alpha  occ. eigenvalues --   -0.57685  -0.57462  -0.55262  -0.55242  -0.52738
 Alpha  occ. eigenvalues --   -0.52614  -0.52402  -0.52368  -0.49928  -0.49883
 Alpha  occ. eigenvalues --   -0.48006  -0.47785  -0.46646  -0.46575  -0.45773
 Alpha  occ. eigenvalues --   -0.45768  -0.45712  -0.45673  -0.43805  -0.43673
 Alpha virt. eigenvalues --    0.22054   0.23059   0.23527   0.24794   0.26405
 Alpha virt. eigenvalues --    0.26714   0.26845   0.27339   0.27847   0.28979
 Alpha virt. eigenvalues --    0.30516   0.31394   0.31421   0.31818   0.32026

 Mulliken charges:
               1
     1  C   -0.297727
     2  C   -0.304906
     3  C   -0.476344
     4  H    0.149377
     5  H    0.149375
     6  H    0.157089
     7  H    0.152321
     8  H    0.155439
     9  H    0.155176
    10  H    0.160063
    11  C   -0.298290
    12  C   -0.299657
    13  C   -0.475654
    14  H    0.149715
    15  H    0.149910
    16  H    0.151797
    17  H    0.151882
    18  H    0.155254
    19  H    0.155091
    20  H    0.160160
    21  C   -0.298337
    22  C   -0.299369
    23  C   -0.482424
    24  H    0.149502
    25  H    0.149555
    26  H    0.151432
    27  H    0.151742
    28  H    0.154928
    29  H    0.154312
    30  H    0.168707
    31  C   -0.298218
    32  C   -0.299624
    33  C   -0.475691
    34  H    0.149411
    35  H    0.149622
    36  H    0.151897
    37  H    0.151934
    38  H    0.155175
    39  H    0.155144
    40  H    0.160233
 Sum of Mulliken charges =  -0.00000

 Dipole moment (field-independent basis, Debye):
    X=             -0.0136    Y=              0.0042    Z=              0.0074  Tot=              0.0161
 Quadrupole moment (field-independent basis, Debye-Ang):
   XX=            -85.6296   YY=            -85.7265   ZZ=            -83.5213
   XY=             -0.2914   XZ=              0.2579   YZ=              0.9756

 Normal termination of Gaussian 16 at Wed May  5 19:57:21 2021.
