 Gaussian 16, Revision A.03,
 Gaussian 16:  EM64L-G16RevA.03 25-Dec-2016

 -------------
 #p 6-31g* mp2
 -------------

 ------------------------------------------------------
 Input file generated by CHIRIPA (05-May-2021 14:53:13)
 ------------------------------------------------------
 Symbolic Z-matrix:
 Charge =  0 Multiplicity = 1

                         Standard orientation:
 ---------------------------------------------------------------------
 Center     Atomic      Atomic             Coordinates (Angstroms)
 Number     Number       Type             X           Y           Z
 ---------------------------------------------------------------------
      1          6           0        3.102720    0.602395    0.121035
      2          6           0        2.640255    1.967373   -0.389793
      3          6           0        1.372830    2.461423    0.308307
      4          1           0        2.295013   -0.128427   -0.021985
      5          1           0        3.279855    0.664621    1.203692
      6          1           0        2.465374    1.902950   -1.471404
      7          1           0        3.449226    2.694987   -0.245715
      8          1           0        1.538111    2.554020    1.386597
      9          1           0        0.548669    1.757483    0.153944
     10          1           0        1.059956    3.438788   -0.072123
     11          6           0        4.368646    0.095073   -0.567285
     12          6           0        4.831111   -1.269905   -0.056457
     13          6           0        6.098536   -1.763955   -0.754556
     14          1           0        4.191511    0.032847   -1.649942
     15          1           0        5.176353    0.825895   -0.424265
     16          1           0        4.022140   -1.997519   -0.200534
     17          1           0        5.005992   -1.205482    1.025154
     18          1           0        6.922697   -1.060015   -0.600194
     19          1           0        5.933255   -1.856553   -1.832846
     20          1           0        6.411410   -2.741320   -0.374127
     21          6           0       -4.396282   -0.191441   -1.869095
     22          6           0       -3.811125    0.981724   -1.381451
     23          6           0       -2.990574    0.948687   -0.250013
     24          6           0       -2.775636   -0.280280    0.371866
     25          6           0       -3.344372   -1.466288   -0.089887
     26          6           0       -4.161451   -1.409555   -1.222895
     27          1           0       -5.032357   -0.156573   -2.748634
     28          1           0       -3.991737    1.929145   -1.881267
     29          1           0       -2.524974    1.841775    0.148771
     30          1           0       -3.145782   -2.395785    0.429744
     31          1           0       -4.614571   -2.322237   -1.599378
     32          7           0       -1.908792   -0.327798    1.570500
     33          8           0       -1.735089   -1.423132    2.100318
     34          8           0       -1.419479    0.731192    1.957475
 ---------------------------------------------------------------------

 SCF Done:  E(RHF) =  -669.535795850     A.U. after   15 cycles
 E2 =    -0.2091328495D+01 EUMP2 =    -0.67162712434509D+03

 The electronic state is 1-A.
 Alpha  occ. eigenvalues --  -20.60881 -20.60865 -15.85899 -11.31254 -11.27820
 Alpha  occ. eigenvalues --  -11.27808 -11.27561 -11.26835 -11.26823 -11.21134
 Alpha  occ. eigenvalues --  -11.20995 -11.20892 -11.20722 -11.20709 -11.20223
 Alpha  occ. eigenvalues --   -1.59937  -1.39492  -1.19425  -1.08825  -1.07872
 Alpha  occ. eigenvalues --   -1.04823  -1.02968  -0.95665  -0.95399  -0.86416
 Alpha  occ. eigenvalues --   -0.86222  -0.82491  -0.79033  -0.77680  -0.77524
 Alpha  occ. eigenvalues --   -0.72123  -0.71257  -0.70530  -0.65079  -0.64826
 Alpha  occ. eigenvalues --   -0.64511  -0.62170  -0.60371  -0.58796  -0.57009
 Alpha  occ. eigenvalues --   -0.55327  -0.54690  -0.53155  -0.52914  -0.52125
 Alpha  occ. eigenvalues --   -0.51805  -0.49366  -0.48884  -0.48863  -0.47347
 Alpha  occ. eigenvalues --   -0.46093  -0.45283  -0.45148  -0.44711  -0.43235
 Alpha  occ. eigenvalues --   -0.37407  -0.36425
 Alpha virt. eigenvalues --    0.04963   0.11178   0.16442   0.21288   0.23379
 Alpha virt. eigenvalues --    0.24773   0.26823   0.27297   0.27747   0.28120
 Alpha virt. eigenvalues --    0.28926   0.30687   0.31691   0.32210   0.32460

 Mulliken charges:
               1
     1  C   -0.296962
     2  C   -0.300495
     3  C   -0.475275
     4  H    0.150319
     5  H    0.153808
     6  H    0.146290
     7  H    0.149443
     8  H    0.163521
     9  H    0.159279
    10  H    0.150577
    11  C   -0.297987
    12  C   -0.299331
    13  C   -0.475404
    14  H    0.146560
    15  H    0.148316
    16  H    0.152337
    17  H    0.153599
    18  H    0.154424
    19  H    0.153415
    20  H    0.159563
    21  C   -0.170709
    22  C   -0.218645
    23  C   -0.172252
    24  C    0.157847
    25  C   -0.171063
    26  C   -0.218531
    27  H    0.225848
    28  H    0.223953
    29  H    0.277825
    30  H    0.275700
    31  H    0.223667
    32  N    0.487561
    33  O   -0.459562
    34  O   -0.457635
 Sum of Mulliken charges =  -0.00000

 Dipole moment (field-independent basis, Debye):
    X=             -3.2094    Y=              0.1164    Z=             -4.0775  Tot=              5.1903
 Quadrupole moment (field-independent basis, Debye-Ang):
   XX=            -79.3433   YY=            -90.3245   ZZ=            -98.2203
   XY=              1.8650   XZ=             12.0118   YZ=              1.1979

 Normal termination of Gaussian 16 at Thu May  6 20:16:57 2021.
