 Gaussian 16, Revision A.03,
 Gaussian 16:  EM64L-G16RevA.03 25-Dec-2016

 -------------
 #p 6-31g* mp2
 -------------

 ------------------------------------------------------
 Input file generated by CHIRIPA (05-May-2021 14:55:22)
 ------------------------------------------------------
 Symbolic Z-matrix:
 Charge =  0 Multiplicity = 1

                         Standard orientation:
 ---------------------------------------------------------------------
 Center     Atomic      Atomic             Coordinates (Angstroms)
 Number     Number       Type             X           Y           Z
 ---------------------------------------------------------------------
      1          6           0        3.792605    2.053120   -0.944927
      2          6           0        2.643885    2.317703   -0.191959
      3          6           0        1.997796    1.290497    0.502278
      4          6           0        2.530094    0.004664    0.421156
      5          6           0        3.672887   -0.290626   -0.320544
      6          6           0        4.302540    0.752094   -1.006707
      7          1           0        4.288119    2.857104   -1.481091
      8          1           0        2.245621    3.327134   -0.142170
      9          1           0        1.106991    1.467376    1.092701
     10          1           0        4.046276   -1.307024   -0.351105
     11          1           0        5.194493    0.543685   -1.590685
     12          7           0        1.854808   -1.091005    1.151840
     13          8           0        2.343705   -2.215260    1.064270
     14          8           0        0.849409   -0.804789    1.798283
     15          6           0       -3.199832   -0.965386   -0.527180
     16          6           0       -1.775164   -1.144323   -1.052812
     17          6           0       -1.427639   -2.606751   -1.332680
     18          1           0       -3.321573   -1.555018    0.391764
     19          1           0       -3.907833   -1.377844   -1.259306
     20          1           0       -1.070137   -0.730404   -0.320540
     21          1           0       -1.656742   -0.554044   -1.970507
     22          1           0       -2.107827   -3.028156   -2.079918
     23          1           0       -1.517887   -3.205517   -0.420575
     24          1           0       -0.404743   -2.711668   -1.707560
     25          6           0       -3.562125    0.491164   -0.242690
     26          6           0       -4.986792    0.670101    0.282942
     27          6           0       -5.334318    2.132528    0.562811
     28          1           0       -2.854123    0.903622    0.489436
     29          1           0       -3.440384    1.080796   -1.161633
     30          1           0       -5.105214    0.079822    1.200637
     31          1           0       -5.691820    0.256182   -0.449330
     32          1           0       -5.244069    2.731295   -0.349294
     33          1           0       -4.654130    2.553933    1.310048
     34          1           0       -6.357215    2.237446    0.937691
 ---------------------------------------------------------------------

 SCF Done:  E(RHF) =  -669.536412814     A.U. after   15 cycles
 E2 =    -0.2091721576D+01 EUMP2 =    -0.67162813439022D+03

 The electronic state is 1-A.
 Alpha  occ. eigenvalues --  -20.60973 -20.60961 -15.85980 -11.31276 -11.27838
 Alpha  occ. eigenvalues --  -11.27834 -11.27571 -11.26842 -11.26831 -11.21241
 Alpha  occ. eigenvalues --  -11.20950 -11.20841 -11.20825 -11.20729 -11.20247
 Alpha  occ. eigenvalues --   -1.60016  -1.39576  -1.19443  -1.08853  -1.07887
 Alpha  occ. eigenvalues --   -1.04836  -1.02979  -0.95700  -0.95441  -0.86456
 Alpha  occ. eigenvalues --   -0.86239  -0.82536  -0.79068  -0.77721  -0.77575
 Alpha  occ. eigenvalues --   -0.72210  -0.71329  -0.70554  -0.65102  -0.64841
 Alpha  occ. eigenvalues --   -0.64497  -0.62186  -0.60352  -0.58833  -0.57060
 Alpha  occ. eigenvalues --   -0.55344  -0.54716  -0.53165  -0.52930  -0.52141
 Alpha  occ. eigenvalues --   -0.51875  -0.49377  -0.48978  -0.48961  -0.47403
 Alpha  occ. eigenvalues --   -0.46151  -0.45418  -0.45212  -0.44617  -0.43237
 Alpha  occ. eigenvalues --   -0.37418  -0.36433
 Alpha virt. eigenvalues --    0.04913   0.11188   0.16379   0.21239   0.23350
 Alpha virt. eigenvalues --    0.24791   0.26417   0.27410   0.27741   0.28360
 Alpha virt. eigenvalues --    0.28820   0.30894   0.31818   0.32126   0.32521

 Mulliken charges:
               1
     1  C   -0.170523
     2  C   -0.218457
     3  C   -0.170750
     4  C    0.158777
     5  C   -0.170896
     6  C   -0.218540
     7  H    0.225973
     8  H    0.223993
     9  H    0.275599
    10  H    0.275725
    11  H    0.223765
    12  N    0.488466
    13  O   -0.457885
    14  O   -0.459488
    15  C   -0.297252
    16  C   -0.307120
    17  C   -0.474879
    18  H    0.154908
    19  H    0.146463
    20  H    0.161992
    21  H    0.144131
    22  H    0.150224
    23  H    0.164153
    24  H    0.157562
    25  C   -0.298025
    26  C   -0.299406
    27  C   -0.475352
    28  H    0.149655
    29  H    0.145430
    30  H    0.154064
    31  H    0.151080
    32  H    0.152957
    33  H    0.154009
    34  H    0.159649
 Sum of Mulliken charges =  -0.00000

 Dipole moment (field-independent basis, Debye):
    X=              2.5571    Y=              3.7826    Z=             -2.4350  Tot=              5.1746
 Quadrupole moment (field-independent basis, Debye-Ang):
   XX=            -81.0370   YY=            -93.8946   ZZ=            -96.5107
   XY=              7.9930   XZ=             -6.9310   YZ=              2.2301

 Normal termination of Gaussian 16 at Wed May  5 16:01:11 2021.
