 Gaussian 16, Revision A.03,
 Gaussian 16:  EM64L-G16RevA.03 25-Dec-2016

 -------------
 #p 6-31g* mp2
 -------------

 ------------------------------------------------------
 Input file generated by CHIRIPA (05-May-2021 14:53:17)
 ------------------------------------------------------
 Symbolic Z-matrix:
 Charge =  0 Multiplicity = 1

                         Standard orientation:
 ---------------------------------------------------------------------
 Center     Atomic      Atomic             Coordinates (Angstroms)
 Number     Number       Type             X           Y           Z
 ---------------------------------------------------------------------
      1          6           0       -2.904990    1.353965    0.122131
      2          6           0       -1.432522    1.718697   -0.069686
      3          6           0       -1.110734    3.140468    0.391632
      4          1           0       -3.528536    2.070181   -0.430292
      5          1           0       -3.167641    1.464385    1.183365
      6          1           0       -1.172369    1.606290   -1.130016
      7          1           0       -0.812402    1.001416    0.483102
      8          1           0       -1.342592    3.262318    1.454644
      9          1           0       -1.704604    3.870629   -0.167640
     10          1           0       -0.052897    3.380211    0.245473
     11          6           0       -3.242245   -0.064323   -0.334429
     12          6           0       -4.714714   -0.429054   -0.142612
     13          6           0       -5.036501   -1.850825   -0.603930
     14          1           0       -2.979595   -0.174743   -1.395663
     15          1           0       -2.618700   -0.780538    0.217994
     16          1           0       -5.334834    0.288227   -0.695400
     17          1           0       -4.974867   -0.316647    0.917718
     18          1           0       -4.442632   -2.580986   -0.044658
     19          1           0       -4.804644   -1.972675   -1.666942
     20          1           0       -6.094339   -2.090569   -0.457770
     21          6           0        1.391453   -2.739911    0.671033
     22          6           0        1.008370   -1.592424    1.373203
     23          6           0        1.561319   -0.348186    1.055918
     24          6           0        2.498889   -0.287584    0.026073
     25          6           0        2.900951   -1.412819   -0.691898
     26          6           0        2.334857   -2.646610   -0.357464
     27          1           0        0.956803   -3.702406    0.924168
     28          1           0        0.275929   -1.661889    2.172421
     29          1           0        1.282739    0.556072    1.583296
     30          1           0        3.633392   -1.312041   -1.483599
     31          1           0        2.634250   -3.536095   -0.904479
     32          7           0        3.091230    1.024104   -0.318899
     33          8           0        3.915281    1.050873   -1.230415
     34          8           0        2.720238    2.000599    0.328757
 ---------------------------------------------------------------------

 SCF Done:  E(RHF) =  -669.535105203     A.U. after   15 cycles
 E2 =    -0.2093302535D+01 EUMP2 =    -0.67162840773761D+03

 The electronic state is 1-A.
 Alpha  occ. eigenvalues --  -20.60885 -20.60879 -15.85921 -11.31242 -11.27830
 Alpha  occ. eigenvalues --  -11.27818 -11.27571 -11.26836 -11.26817 -11.21820
 Alpha  occ. eigenvalues --  -11.21571 -11.21470 -11.21396 -11.21359 -11.20593
 Alpha  occ. eigenvalues --   -1.59945  -1.39501  -1.19433  -1.08827  -1.08515
 Alpha  occ. eigenvalues --   -1.04843  -1.03545  -0.95980  -0.95666  -0.86987
 Alpha  occ. eigenvalues --   -0.86234  -0.82509  -0.79633  -0.78346  -0.77546
 Alpha  occ. eigenvalues --   -0.72145  -0.71259  -0.70554  -0.65202  -0.65080
 Alpha  occ. eigenvalues --   -0.64832  -0.62229  -0.60937  -0.59342  -0.57563
 Alpha  occ. eigenvalues --   -0.55365  -0.55263  -0.53188  -0.52924  -0.52605
 Alpha  occ. eigenvalues --   -0.52387  -0.49944  -0.48901  -0.48898  -0.47914
 Alpha  occ. eigenvalues --   -0.46693  -0.45871  -0.45800  -0.44898  -0.43773
 Alpha  occ. eigenvalues --   -0.37398  -0.36354
 Alpha virt. eigenvalues --    0.04922   0.11154   0.16331   0.20728   0.22911
 Alpha virt. eigenvalues --    0.24078   0.26085   0.27056   0.27273   0.28191
 Alpha virt. eigenvalues --    0.28967   0.31018   0.31420   0.31708   0.32163

 Mulliken charges:
               1
     1  C   -0.297528
     2  C   -0.302269
     3  C   -0.484222
     4  H    0.151348
     5  H    0.146670
     6  H    0.153689
     7  H    0.145055
     8  H    0.149664
     9  H    0.154226
    10  H    0.181882
    11  C   -0.296901
    12  C   -0.299618
    13  C   -0.475020
    14  H    0.150933
    15  H    0.143301
    16  H    0.153790
    17  H    0.150876
    18  H    0.151301
    19  H    0.155906
    20  H    0.160933
    21  C   -0.169984
    22  C   -0.218873
    23  C   -0.168890
    24  C    0.158066
    25  C   -0.170819
    26  C   -0.218539
    27  H    0.226034
    28  H    0.223681
    29  H    0.277636
    30  H    0.275792
    31  H    0.223736
    32  N    0.489016
    33  O   -0.459356
    34  O   -0.461515
 Sum of Mulliken charges =  -0.00000

 Dipole moment (field-independent basis, Debye):
    X=             -1.9345    Y=             -4.5634    Z=              1.1342  Tot=              5.0846
 Quadrupole moment (field-independent basis, Debye-Ang):
   XX=           -104.5252   YY=            -92.2374   ZZ=            -91.7791
   XY=            -12.8479   XZ=              0.9552   YZ=              0.5739

 Normal termination of Gaussian 16 at Wed May  5 23:36:51 2021.
