 Gaussian 16, Revision A.03,
 Gaussian 16:  EM64L-G16RevA.03 25-Dec-2016

 -------------
 #p 6-31g* mp2
 -------------

 ------------------------------------------------------
 Input file generated by CHIRIPA (05-May-2021 14:53:15)
 ------------------------------------------------------
 Symbolic Z-matrix:
 Charge =  0 Multiplicity = 1

                         Standard orientation:
 ---------------------------------------------------------------------
 Center     Atomic      Atomic             Coordinates (Angstroms)
 Number     Number       Type             X           Y           Z
 ---------------------------------------------------------------------
      1          6           0       -3.216344    0.797785   -0.634181
      2          6           0       -3.402771    1.972021    0.327276
      3          6           0       -3.258474    3.329140   -0.362071
      4          1           0       -2.225053    0.869287   -1.102342
      5          1           0       -3.952096    0.877592   -1.446397
      6          1           0       -2.667791    1.889264    1.138184
      7          1           0       -4.393658    1.897609    0.793346
      8          1           0       -4.001202    3.437281   -1.159104
      9          1           0       -2.265529    3.428890   -0.812306
     10          1           0       -3.395478    4.154451    0.343585
     11          6           0       -3.357674   -0.565671    0.040165
     12          6           0       -3.171247   -1.739907   -0.921293
     13          6           0       -3.315544   -3.097026   -0.231945
     14          1           0       -2.621922   -0.645479    0.852380
     15          1           0       -4.348965   -0.637173    0.508326
     16          1           0       -2.180360   -1.665495   -1.387363
     17          1           0       -3.906227   -1.657151   -1.732201
     18          1           0       -4.308489   -3.196776    0.218290
     19          1           0       -2.572816   -3.205168    0.565087
     20          1           0       -3.178540   -3.922337   -0.937602
     21          6           0        0.426601   -0.739331    1.398088
     22          6           0        0.832949    0.598886    1.374111
     23          6           0        2.017593    0.969777    0.730988
     24          6           0        2.774996   -0.027959    0.119308
     25          6           0        2.396818   -1.369684    0.125990
     26          6           0        1.208453   -1.717621    0.775049
     27          1           0       -0.495105   -1.018533    1.899987
     28          1           0        0.227747    1.360770    1.857132
     29          1           0        2.355713    1.998346    0.697243
     30          1           0        3.021141   -2.106711   -0.364347
     31          1           0        0.895345   -2.757677    0.792079
     32          7           0        4.031095    0.352537   -0.564679
     33          8           0        4.680615   -0.545430   -1.096108
     34          8           0        4.342320    1.541530   -0.556409
 ---------------------------------------------------------------------

 SCF Done:  E(RHF) =  -669.535447118     A.U. after   15 cycles
 E2 =    -0.2092602790D+01 EUMP2 =    -0.67162804990753D+03

 The electronic state is 1-A.
 Alpha  occ. eigenvalues --  -20.60810 -20.60805 -15.85864 -11.31252 -11.27824
 Alpha  occ. eigenvalues --  -11.27820 -11.27561 -11.26847 -11.26834 -11.22396
 Alpha  occ. eigenvalues --  -11.22366 -11.22262 -11.22069 -11.21956 -11.21683
 Alpha  occ. eigenvalues --   -1.59885  -1.39438  -1.19429  -1.09225  -1.08814
 Alpha  occ. eigenvalues --   -1.04832  -1.04300  -0.96745  -0.95651  -0.87757
 Alpha  occ. eigenvalues --   -0.86227  -0.82483  -0.80359  -0.79042  -0.77521
 Alpha  occ. eigenvalues --   -0.72082  -0.71209  -0.70569  -0.65880  -0.65079
 Alpha  occ. eigenvalues --   -0.64800  -0.62193  -0.61688  -0.60110  -0.58356
 Alpha  occ. eigenvalues --   -0.56098  -0.55310  -0.53423  -0.53183  -0.53128
 Alpha  occ. eigenvalues --   -0.52920  -0.50685  -0.48846  -0.48835  -0.48669
 Alpha  occ. eigenvalues --   -0.47396  -0.46580  -0.46477  -0.44839  -0.44551
 Alpha  occ. eigenvalues --   -0.37387  -0.36434
 Alpha virt. eigenvalues --    0.04980   0.11122   0.16350   0.18715   0.22274
 Alpha virt. eigenvalues --    0.23246   0.25259   0.26292   0.26588   0.27413
 Alpha virt. eigenvalues --    0.29446   0.30499   0.31015   0.31109   0.31598

 Mulliken charges:
               1
     1  C   -0.300152
     2  C   -0.298928
     3  C   -0.476699
     4  H    0.154306
     5  H    0.152993
     6  H    0.142203
     7  H    0.154048
     8  H    0.158404
     9  H    0.156639
    10  H    0.161206
    11  C   -0.298344
    12  C   -0.302016
    13  C   -0.474670
    14  H    0.138788
    15  H    0.151775
    16  H    0.155355
    17  H    0.156011
    18  H    0.158173
    19  H    0.144923
    20  H    0.163711
    21  C   -0.170950
    22  C   -0.221146
    23  C   -0.171231
    24  C    0.158748
    25  C   -0.170898
    26  C   -0.220281
    27  H    0.228521
    28  H    0.225428
    29  H    0.276006
    30  H    0.275960
    31  H    0.224487
    32  N    0.488036
    33  O   -0.460188
    34  O   -0.460221
 Sum of Mulliken charges =  -0.00000

 Dipole moment (field-independent basis, Debye):
    X=             -4.5206    Y=             -1.3090    Z=              2.2595  Tot=              5.2206
 Quadrupole moment (field-independent basis, Debye-Ang):
   XX=           -118.3808   YY=            -91.0708   ZZ=            -94.7010
   XY=             -4.6342   XZ=              6.6389   YZ=              1.5399

 Normal termination of Gaussian 16 at Wed May  5 17:09:16 2021.
