 Gaussian 16, Revision A.03,
 Gaussian 16:  EM64L-G16RevA.03 25-Dec-2016

 -------------
 #p 6-31g* mp2
 -------------

 ------------------------------------------------------
 Input file generated by CHIRIPA (05-May-2021 14:51:11)
 ------------------------------------------------------
 Symbolic Z-matrix:
 Charge =  0 Multiplicity = 1

                         Standard orientation:
 ---------------------------------------------------------------------
 Center     Atomic      Atomic             Coordinates (Angstroms)
 Number     Number       Type             X           Y           Z
 ---------------------------------------------------------------------
      1          6           0        3.336416    0.446629   -0.045959
      2          6           0        2.925604    1.484923   -1.090547
      3          6           0        1.668977    2.259361   -0.691890
      4          1           0        2.505763   -0.255108    0.110651
      5          1           0        3.505028    0.950981    0.915598
      6          1           0        2.759160    0.978953   -2.050186
      7          1           0        3.757402    2.184156   -1.244829
      8          1           0        1.826818    2.789784    0.252747
      9          1           0        0.822905    1.577733   -0.557186
     10          1           0        1.393220    2.996192   -1.452743
     11          6           0        4.590999   -0.335732   -0.430227
     12          6           0        5.001811   -1.374026    0.614360
     13          6           0        6.258438   -2.148464    0.215703
     14          1           0        4.422387   -0.840084   -1.391785
     15          1           0        5.421652    0.366005   -0.586837
     16          1           0        4.170013   -2.073259    0.768642
     17          1           0        5.168254   -0.868056    1.573999
     18          1           0        7.104510   -1.466836    0.080999
     19          1           0        6.100597   -2.678887   -0.728934
     20          1           0        6.534195   -2.885295    0.976556
     21          6           0       -4.319324   -0.713711    0.084281
     22          6           0       -5.750562   -0.526255   -0.420104
     23          6           0       -6.448863   -1.852200   -0.723485
     24          1           0       -3.742433   -1.270057   -0.667132
     25          1           0       -4.335605   -1.336167    0.989642
     26          1           0       -5.731713    0.096809   -1.323459
     27          1           0       -6.324063    0.029876    0.332512
     28          1           0       -6.497171   -2.476470    0.174599
     29          1           0       -5.901455   -2.409156   -1.490781
     30          1           0       -7.470680   -1.694833   -1.082633
     31          6           0       -3.608090    0.602814    0.391906
     32          6           0       -2.176853    0.415358    0.896291
     33          6           0       -1.478552    1.741303    1.199671
     34          1           0       -3.591810    1.225270   -0.513455
     35          1           0       -4.184982    1.159160    1.143318
     36          1           0       -1.603352   -0.140773    0.143674
     37          1           0       -2.195702   -0.207707    1.799646
     38          1           0       -2.025960    2.298259    1.966969
     39          1           0       -1.430244    2.365573    0.301588
     40          1           0       -0.456735    1.583935    1.558820
 ---------------------------------------------------------------------

 SCF Done:  E(RHF) =  -470.732356136     A.U. after   11 cycles
 E2 =    -0.1582909100D+01 EUMP2 =    -0.47231526523585D+03

 The electronic state is 1-A.
 Alpha  occ. eigenvalues --  -11.21599 -11.21598 -11.21596 -11.21553 -11.21399
 Alpha  occ. eigenvalues --  -11.21396 -11.21339 -11.21337 -11.21071 -11.21067
 Alpha  occ. eigenvalues --  -11.20948 -11.20940  -1.08431  -1.08404  -1.03557
 Alpha  occ. eigenvalues --   -1.03462  -0.96052  -0.95862  -0.87110  -0.86839
 Alpha  occ. eigenvalues --   -0.79675  -0.79473  -0.78243  -0.78220  -0.65097
 Alpha  occ. eigenvalues --   -0.65009  -0.61064  -0.60782  -0.59437  -0.59252
 Alpha  occ. eigenvalues --   -0.57701  -0.57432  -0.55455  -0.55050  -0.52839
 Alpha  occ. eigenvalues --   -0.52650  -0.52380  -0.52160  -0.50053  -0.49713
 Alpha  occ. eigenvalues --   -0.47925  -0.47807  -0.46654  -0.46537  -0.45792
 Alpha  occ. eigenvalues --   -0.45749  -0.45693  -0.45686  -0.43760  -0.43737
 Alpha virt. eigenvalues --    0.21670   0.23064   0.23550   0.24991   0.26363
 Alpha virt. eigenvalues --    0.26703   0.27108   0.27386   0.27799   0.29185
 Alpha virt. eigenvalues --    0.30309   0.31125   0.31535   0.31858   0.32266

 Mulliken charges:
               1
     1  C   -0.298535
     2  C   -0.300048
     3  C   -0.479522
     4  H    0.149296
     5  H    0.149245
     6  H    0.151281
     7  H    0.151460
     8  H    0.155049
     9  H    0.163646
    10  H    0.158798
    11  C   -0.298118
    12  C   -0.299662
    13  C   -0.475699
    14  H    0.149463
    15  H    0.149728
    16  H    0.151936
    17  H    0.151892
    18  H    0.155180
    19  H    0.155156
    20  H    0.160234
    21  C   -0.298236
    22  C   -0.299649
    23  C   -0.475694
    24  H    0.149376
    25  H    0.149505
    26  H    0.151936
    27  H    0.151988
    28  H    0.155172
    29  H    0.155103
    30  H    0.160258
    31  C   -0.298156
    32  C   -0.302160
    33  C   -0.479209
    34  H    0.149663
    35  H    0.149912
    36  H    0.151188
    37  H    0.152118
    38  H    0.154948
    39  H    0.157733
    40  H    0.163422
 Sum of Mulliken charges =  -0.00000

 Dipole moment (field-independent basis, Debye):
    X=             -0.0119    Y=              0.0168    Z=              0.0092  Tot=              0.0225
 Quadrupole moment (field-independent basis, Debye-Ang):
   XX=            -85.6853   YY=            -85.4766   ZZ=            -83.7602
   XY=              0.4098   XZ=             -0.0477   YZ=             -0.0058

 Normal termination of Gaussian 16 at Wed May  5 16:43:38 2021.
