 Gaussian 16, Revision A.03,
 Gaussian 16:  EM64L-G16RevA.03 25-Dec-2016

 -------------
 #p 6-31g* mp2
 -------------

 ------------------------------------------------------
 Input file generated by CHIRIPA (05-May-2021 14:57:23)
 ------------------------------------------------------
 Symbolic Z-matrix:
 Charge =  0 Multiplicity = 1

                         Standard orientation:
 ---------------------------------------------------------------------
 Center     Atomic      Atomic             Coordinates (Angstroms)
 Number     Number       Type             X           Y           Z
 ---------------------------------------------------------------------
      1          6           0        1.799502    0.904389   -0.959288
      2          6           0        2.638833    1.688894   -0.161417
      3          6           0        3.833631    1.165211    0.341337
      4          6           0        4.159562   -0.152744    0.025026
      5          6           0        3.344272   -0.959516   -0.767256
      6          6           0        2.154276   -0.414986   -1.259133
      7          1           0        0.873219    1.319296   -1.345615
      8          1           0        2.365858    2.713855    0.073071
      9          1           0        4.501903    1.750356    0.961366
     10          1           0        3.643224   -1.977906   -0.983884
     11          1           0        1.504379   -1.026568   -1.878525
     12          7           0        5.421900   -0.718179    0.551511
     13          8           0        5.686389   -1.882121    0.258386
     14          8           0        6.122930    0.013282    1.247327
     15          6           0       -5.365603   -1.996494    0.434498
     16          6           0       -5.394400   -0.949588    1.361687
     17          6           0       -4.615048    0.194359    1.165362
     18          6           0       -3.814805    0.258325    0.025709
     19          6           0       -3.764460   -0.768041   -0.916272
     20          6           0       -4.552158   -1.902545   -0.699523
     21          1           0       -5.974264   -2.881472    0.594941
     22          1           0       -6.025187   -1.019809    2.243289
     23          1           0       -4.618237    1.019568    1.867102
     24          1           0       -3.125708   -0.669157   -1.785545
     25          1           0       -4.527791   -2.714042   -1.421273
     26          7           0       -2.985322    1.464372   -0.192942
     27          8           0       -2.288709    1.496340   -1.205042
     28          8           0       -3.047492    2.354867    0.651919
 ---------------------------------------------------------------------

 SCF Done:  E(RHF) =  -868.340157960     A.U. after   16 cycles
 E2 =    -0.2598163078D+01 EUMP2 =    -0.87093832103830D+03

 The electronic state is 1-A.
 Alpha  occ. eigenvalues --  -20.61834 -20.61773 -20.60279 -20.60271 -15.86831
 Alpha  occ. eigenvalues --  -15.85328 -11.31935 -11.30526 -11.28501 -11.28446
 Alpha  occ. eigenvalues --  -11.28147 -11.27432 -11.27399 -11.27131 -11.27078
 Alpha  occ. eigenvalues --  -11.26586 -11.26048 -11.25949  -1.60863  -1.59359
 Alpha  occ. eigenvalues --   -1.40426  -1.38917  -1.20079  -1.18675  -1.09518
 Alpha  occ. eigenvalues --   -1.08057  -1.05444  -1.04069  -0.96399  -0.94922
 Alpha  occ. eigenvalues --   -0.86853  -0.85448  -0.83245  -0.81778  -0.78325
 Alpha  occ. eigenvalues --   -0.76888  -0.73067  -0.72164  -0.71548  -0.71181
 Alpha  occ. eigenvalues --   -0.70682  -0.69649  -0.65735  -0.65441  -0.64307
 Alpha  occ. eigenvalues --   -0.64054  -0.62799  -0.61433  -0.55943  -0.54394
 Alpha  occ. eigenvalues --   -0.53780  -0.53532  -0.52397  -0.52144  -0.49832
 Alpha  occ. eigenvalues --   -0.49788  -0.48314  -0.48289  -0.45883  -0.44361
 Alpha  occ. eigenvalues --   -0.38033  -0.37035  -0.36585  -0.35699
 Alpha virt. eigenvalues --    0.04167   0.05664   0.10624   0.11973   0.15698
 Alpha virt. eigenvalues --    0.17217   0.20763   0.22326   0.26696   0.27551
 Alpha virt. eigenvalues --    0.28043   0.29322   0.30468   0.31786   0.32071

 Mulliken charges:
               1
     1  C   -0.177856
     2  C   -0.220460
     3  C   -0.171668
     4  C    0.157009
     5  C   -0.171974
     6  C   -0.220934
     7  H    0.247998
     8  H    0.227088
     9  H    0.273733
    10  H    0.271949
    11  H    0.219098
    12  N    0.488298
    13  O   -0.463269
    14  O   -0.461881
    15  C   -0.169650
    16  C   -0.218256
    17  C   -0.170054
    18  C    0.158327
    19  C   -0.170956
    20  C   -0.218201
    21  H    0.228401
    22  H    0.226166
    23  H    0.276946
    24  H    0.272072
    25  H    0.224981
    26  N    0.490076
    27  O   -0.471053
    28  O   -0.455930
 Sum of Mulliken charges =  -0.00000

 Dipole moment (field-independent basis, Debye):
    X=             -7.8647    Y=             -2.1718    Z=             -1.0051  Tot=              8.2208
 Quadrupole moment (field-independent basis, Debye-Ang):
   XX=           -120.0783   YY=           -103.5272   ZZ=           -101.0879
   XY=             25.5867   XZ=            -12.5898   YZ=              4.6231

 Normal termination of Gaussian 16 at Thu May  6 03:23:52 2021.
