 Gaussian 16, Revision A.03,
 Gaussian 16:  EM64L-G16RevA.03 25-Dec-2016

 -------------
 #p 6-31g* mp2
 -------------

 ------------------------------------------------------
 Input file generated by CHIRIPA (05-May-2021 14:55:20)
 ------------------------------------------------------
 Symbolic Z-matrix:
 Charge =  0 Multiplicity = 1

                         Standard orientation:
 ---------------------------------------------------------------------
 Center     Atomic      Atomic             Coordinates (Angstroms)
 Number     Number       Type             X           Y           Z
 ---------------------------------------------------------------------
      1          6           0        3.425796   -1.735912    0.726762
      2          6           0        4.039138   -0.908633   -0.219781
      3          6           0        3.492845    0.339869   -0.531798
      4          6           0        2.327061    0.731209    0.124778
      5          6           0        1.692578   -0.070442    1.072446
      6          6           0        2.256535   -1.314918    1.368722
      7          1           0        3.857030   -2.704215    0.963030
      8          1           0        4.947277   -1.232983   -0.719906
      9          1           0        3.947030    1.000250   -1.260516
     10          1           0        0.788098    0.280278    1.554453
     11          1           0        1.778041   -1.955304    2.104246
     12          7           0        1.739376    2.050812   -0.197209
     13          8           0        0.711644    2.372458    0.395201
     14          8           0        2.317606    2.738483   -1.035895
     15          6           0       -3.655181   -0.168766   -0.425581
     16          6           0       -4.456643    0.355457    0.766406
     17          6           0       -5.558403    1.332249    0.354340
     18          1           0       -3.211916    0.680551   -0.963282
     19          1           0       -4.339190   -0.662052   -1.129992
     20          1           0       -3.771131    0.846393    1.469023
     21          1           0       -4.897894   -0.495219    1.301443
     22          1           0       -6.265003    0.850041   -0.328883
     23          1           0       -5.131838    2.199276   -0.160351
     24          1           0       -6.118797    1.694540    1.221845
     25          6           0       -2.550053   -1.146365   -0.029702
     26          6           0       -1.748590   -1.670588   -1.221689
     27          6           0       -0.646830   -2.647380   -0.809623
     28          1           0       -1.866043   -0.653079    0.674709
     29          1           0       -2.993317   -1.995682    0.507999
     30          1           0       -1.307340   -0.819911   -1.756725
     31          1           0       -2.434102   -2.161524   -1.924307
     32          1           0       -1.073395   -3.514407   -0.294933
     33          1           0        0.059770   -2.165172   -0.126401
     34          1           0       -0.086436   -3.009670   -1.677128
 ---------------------------------------------------------------------

 SCF Done:  E(RHF) =  -669.534726407     A.U. after   15 cycles
 E2 =    -0.2093288867D+01 EUMP2 =    -0.67162801527384D+03

 The electronic state is 1-A.
 Alpha  occ. eigenvalues --  -20.60874 -20.60865 -15.85925 -11.31294 -11.27856
 Alpha  occ. eigenvalues --  -11.27846 -11.27579 -11.26866 -11.26851 -11.21543
 Alpha  occ. eigenvalues --  -11.21350 -11.21323 -11.21108 -11.21061 -11.20741
 Alpha  occ. eigenvalues --   -1.59946  -1.39500  -1.19471  -1.08856  -1.08274
 Alpha  occ. eigenvalues --   -1.04885  -1.03373  -0.95839  -0.95690  -0.86864
 Alpha  occ. eigenvalues --   -0.86261  -0.82529  -0.79455  -0.78096  -0.77569
 Alpha  occ. eigenvalues --   -0.72142  -0.71270  -0.70562  -0.65122  -0.64924
 Alpha  occ. eigenvalues --   -0.64845  -0.62223  -0.60783  -0.59215  -0.57465
 Alpha  occ. eigenvalues --   -0.55357  -0.55229  -0.53233  -0.52962  -0.52522
 Alpha  occ. eigenvalues --   -0.52202  -0.49745  -0.48901  -0.48897  -0.47771
 Alpha  occ. eigenvalues --   -0.46479  -0.45641  -0.45534  -0.44899  -0.43634
 Alpha  occ. eigenvalues --   -0.37432  -0.36365
 Alpha virt. eigenvalues --    0.04929   0.11096   0.16373   0.20613   0.22991
 Alpha virt. eigenvalues --    0.24453   0.25547   0.27266   0.27486   0.28365
 Alpha virt. eigenvalues --    0.29194   0.30916   0.31677   0.31856   0.32165

 Mulliken charges:
               1
     1  C   -0.169414
     2  C   -0.218204
     3  C   -0.170842
     4  C    0.159978
     5  C   -0.173081
     6  C   -0.219761
     7  H    0.226530
     8  H    0.224014
     9  H    0.275943
    10  H    0.277901
    11  H    0.225799
    12  N    0.487956
    13  O   -0.461125
    14  O   -0.459787
    15  C   -0.299141
    16  C   -0.299972
    17  C   -0.476194
    18  H    0.157378
    19  H    0.148307
    20  H    0.154436
    21  H    0.148808
    22  H    0.153659
    23  H    0.159250
    24  H    0.159493
    25  C   -0.297932
    26  C   -0.299377
    27  C   -0.483423
    28  H    0.145326
    29  H    0.147032
    30  H    0.155620
    31  H    0.152017
    32  H    0.150757
    33  H    0.159135
    34  H    0.158913
 Sum of Mulliken charges =  -0.00000

 Dipole moment (field-independent basis, Debye):
    X=              2.1809    Y=             -4.5237    Z=              1.1135  Tot=              5.1439
 Quadrupole moment (field-independent basis, Debye-Ang):
   XX=            -82.7918   YY=           -102.3097   ZZ=            -92.7895
   XY=             -8.1181   XZ=              0.2267   YZ=             -0.3661

 Normal termination of Gaussian 16 at Thu May  6 02:56:55 2021.
