 Gaussian 16, Revision A.03,
 Gaussian 16:  EM64L-G16RevA.03 25-Dec-2016

 -------------
 #p 6-31g* mp2
 -------------

 ------------------------------------------------------
 Input file generated by CHIRIPA (05-May-2021 14:55:25)
 ------------------------------------------------------
 Symbolic Z-matrix:
 Charge =  0 Multiplicity = 1

                         Standard orientation:
 ---------------------------------------------------------------------
 Center     Atomic      Atomic             Coordinates (Angstroms)
 Number     Number       Type             X           Y           Z
 ---------------------------------------------------------------------
      1          6           0        2.902911    2.486346   -0.106497
      2          6           0        1.647141    1.934684   -0.380780
      3          6           0        1.493216    0.551649   -0.515203
      4          6           0        2.621488   -0.253810   -0.368475
      5          6           0        3.885843    0.265751   -0.095065
      6          6           0        4.016291    1.651591    0.035235
      7          1           0        3.013364    3.561811   -0.003675
      8          1           0        0.780719    2.580540   -0.491361
      9          1           0        0.532689    0.098033   -0.727425
     10          1           0        4.731035   -0.403633    0.009791
     11          1           0        4.992759    2.077238    0.248259
     12          7           0        2.470962   -1.719452   -0.508600
     13          8           0        3.480590   -2.407482   -0.374793
     14          8           0        1.346202   -2.152441   -0.749584
     15          6           0       -3.570236    0.340454   -0.224605
     16          6           0       -4.841093   -0.234764   -0.850731
     17          6           0       -5.194107    0.425095   -2.184058
     18          1           0       -3.698440    1.421623   -0.077699
     19          1           0       -2.735159    0.217455   -0.928105
     20          1           0       -5.673237   -0.111962   -0.145696
     21          1           0       -4.709921   -1.314722   -0.995986
     22          1           0       -4.383013    0.290803   -2.907033
     23          1           0       -5.351802    1.500396   -2.051911
     24          1           0       -6.105855   -0.001190   -2.614007
     25          6           0       -3.204283   -0.309082    1.108778
     26          6           0       -1.933426    0.266135    1.734904
     27          6           0       -1.580412   -0.393724    3.068232
     28          1           0       -4.039360   -0.186083    1.812278
     29          1           0       -3.076079   -1.390251    0.961873
     30          1           0       -2.064598    1.346093    1.880160
     31          1           0       -1.101283    0.143334    1.029870
     32          1           0       -1.422718   -1.469025    2.936085
     33          1           0       -2.391506   -0.259431    3.791206
     34          1           0       -0.668664    0.032562    3.498180
 ---------------------------------------------------------------------

 SCF Done:  E(RHF) =  -669.535454673     A.U. after   15 cycles
 E2 =    -0.2091864094D+01 EUMP2 =    -0.67162731876711D+03

 The electronic state is 1-A.
 Alpha  occ. eigenvalues --  -20.60801 -20.60794 -15.85853 -11.31206 -11.27773
 Alpha  occ. eigenvalues --  -11.27759 -11.27509 -11.26791 -11.26774 -11.21821
 Alpha  occ. eigenvalues --  -11.21691 -11.21603 -11.21450 -11.21162 -11.21084
 Alpha  occ. eigenvalues --   -1.59874  -1.39429  -1.19379  -1.08774  -1.08571
 Alpha  occ. eigenvalues --   -1.04782  -1.03638  -0.96072  -0.95613  -0.87090
 Alpha  occ. eigenvalues --   -0.86179  -0.82445  -0.79728  -0.78422  -0.77485
 Alpha  occ. eigenvalues --   -0.72073  -0.71196  -0.70498  -0.65229  -0.65028
 Alpha  occ. eigenvalues --   -0.64758  -0.62160  -0.61003  -0.59448  -0.57698
 Alpha  occ. eigenvalues --   -0.55351  -0.55279  -0.53112  -0.52890  -0.52755
 Alpha  occ. eigenvalues --   -0.52498  -0.50001  -0.48830  -0.48828  -0.48032
 Alpha  occ. eigenvalues --   -0.46746  -0.45941  -0.45853  -0.44833  -0.43903
 Alpha  occ. eigenvalues --   -0.37357  -0.36357
 Alpha virt. eigenvalues --    0.05001   0.11215   0.16505   0.20082   0.22864
 Alpha virt. eigenvalues --    0.24237   0.24909   0.26741   0.27847   0.27936
 Alpha virt. eigenvalues --    0.29829   0.30807   0.31425   0.31833   0.31954

 Mulliken charges:
               1
     1  C   -0.170961
     2  C   -0.218769
     3  C   -0.172381
     4  C    0.158295
     5  C   -0.171006
     6  C   -0.218329
     7  H    0.225729
     8  H    0.224892
     9  H    0.278058
    10  H    0.275623
    11  H    0.223538
    12  N    0.488058
    13  O   -0.460084
    14  O   -0.461377
    15  C   -0.298611
    16  C   -0.300007
    17  C   -0.476096
    18  H    0.146424
    19  H    0.145454
    20  H    0.152447
    21  H    0.156153
    22  H    0.155569
    23  H    0.153352
    24  H    0.161648
    25  C   -0.298731
    26  C   -0.302997
    27  C   -0.476103
    28  H    0.150080
    29  H    0.157116
    30  H    0.147214
    31  H    0.149102
    32  H    0.162408
    33  H    0.154950
    34  H    0.159342
 Sum of Mulliken charges =  -0.00000

 Dipole moment (field-independent basis, Debye):
    X=              0.5017    Y=              5.0636    Z=              0.5280  Tot=              5.1157
 Quadrupole moment (field-independent basis, Debye-Ang):
   XX=            -86.6654   YY=            -97.5193   ZZ=            -96.4831
   XY=             13.0985   XZ=              1.4243   YZ=             -1.5699

 Normal termination of Gaussian 16 at Thu May  6 12:42:52 2021.
