 Gaussian 16, Revision A.03,
 Gaussian 16:  EM64L-G16RevA.03 25-Dec-2016

 -------------
 #p 6-31g* mp2
 -------------

 ------------------------------------------------------
 Input file generated by CHIRIPA (05-May-2021 14:57:22)
 ------------------------------------------------------
 Symbolic Z-matrix:
 Charge =  0 Multiplicity = 1

                         Standard orientation:
 ---------------------------------------------------------------------
 Center     Atomic      Atomic             Coordinates (Angstroms)
 Number     Number       Type             X           Y           Z
 ---------------------------------------------------------------------
      1          6           0       -4.815104   -1.450079   -1.388085
      2          6           0       -4.007908   -1.921045   -0.347342
      3          6           0       -3.292218   -1.028189    0.455867
      4          6           0       -3.407417    0.335206    0.189084
      5          6           0       -4.203312    0.835316   -0.840348
      6          6           0       -4.910062   -0.075825   -1.630839
      7          1           0       -5.367597   -2.150773   -2.007097
      8          1           0       -3.932258   -2.987771   -0.156511
      9          1           0       -2.659960   -1.365552    1.268181
     10          1           0       -4.258658    1.904342   -1.006291
     11          1           0       -5.536170    0.292789   -2.438402
     12          7           0       -2.654480    1.290111    1.032674
     13          8           0       -2.772912    2.486485    0.777133
     14          8           0       -1.960153    0.824111    1.933446
     15          6           0        1.326391   -0.985674    0.872314
     16          6           0        1.377672    0.180251    0.101269
     17          6           0        2.593942    0.637200   -0.414904
     18          6           0        3.744693   -0.099727   -0.139221
     19          6           0        3.726060   -1.265058    0.625595
     20          6           0        2.498682   -1.703343    1.131558
     21          1           0        0.377249   -1.333394    1.269324
     22          1           0        0.468850    0.739627   -0.101672
     23          1           0        2.662282    1.536562   -1.014816
     24          1           0        4.648811   -1.801334    0.810949
     25          1           0        2.461859   -2.609157    1.730047
     26          7           0        5.038183    0.374145   -0.680267
     27          8           0        6.037819   -0.293104   -0.423082
     28          8           0        5.027892    1.403842   -1.351278
 ---------------------------------------------------------------------

 SCF Done:  E(RHF) =  -868.338728508     A.U. after   16 cycles
 E2 =    -0.2599795999D+01 EUMP2 =    -0.87093852450642D+03

 The electronic state is 1-A.
 Alpha  occ. eigenvalues --  -20.62012 -20.61972 -20.60331 -20.60323 -15.87011
 Alpha  occ. eigenvalues --  -15.85380 -11.32209 -11.30646 -11.28806 -11.28691
 Alpha  occ. eigenvalues --  -11.28389 -11.27713 -11.27652 -11.27234 -11.27164
 Alpha  occ. eigenvalues --  -11.26892 -11.26237 -11.26112  -1.61065  -1.59407
 Alpha  occ. eigenvalues --   -1.40621  -1.38964  -1.20347  -1.18802  -1.09765
 Alpha  occ. eigenvalues --   -1.08206  -1.05717  -1.04191  -0.96632  -0.95062
 Alpha  occ. eigenvalues --   -0.87122  -0.85588  -0.83463  -0.81900  -0.78555
 Alpha  occ. eigenvalues --   -0.76970  -0.73218  -0.72409  -0.71599  -0.71435
 Alpha  occ. eigenvalues --   -0.70729  -0.69892  -0.65991  -0.65701  -0.64450
 Alpha  occ. eigenvalues --   -0.64182  -0.63074  -0.61543  -0.56190  -0.54685
 Alpha  occ. eigenvalues --   -0.54053  -0.53791  -0.52523  -0.52282  -0.50001
 Alpha  occ. eigenvalues --   -0.49954  -0.48361  -0.48350  -0.46037  -0.44392
 Alpha  occ. eigenvalues --   -0.38298  -0.37311  -0.36754  -0.35791
 Alpha virt. eigenvalues --    0.03926   0.05564   0.10297   0.11871   0.15482
 Alpha virt. eigenvalues --    0.17092   0.19752   0.21814   0.25369   0.26909
 Alpha virt. eigenvalues --    0.27586   0.28768   0.30478   0.30731   0.32790

 Mulliken charges:
               1
     1  C   -0.169620
     2  C   -0.217323
     3  C   -0.174688
     4  C    0.155800
     5  C   -0.170519
     6  C   -0.217725
     7  H    0.229467
     8  H    0.225605
     9  H    0.270938
    10  H    0.278057
    11  H    0.227420
    12  N    0.485723
    13  O   -0.453770
    14  O   -0.465460
    15  C   -0.168538
    16  C   -0.214715
    17  C   -0.172193
    18  C    0.158024
    19  C   -0.171694
    20  C   -0.219601
    21  H    0.225767
    22  H    0.225601
    23  H    0.275245
    24  H    0.273415
    25  H    0.220100
    26  N    0.488150
    27  O   -0.462379
    28  O   -0.461089
 Sum of Mulliken charges =  -0.00000

 Dipole moment (field-independent basis, Debye):
    X=             -7.6714    Y=             -4.9365    Z=             -1.1701  Tot=              9.1972
 Quadrupole moment (field-independent basis, Debye-Ang):
   XX=           -119.5900   YY=           -101.1708   ZZ=           -105.2901
   XY=              1.3935   XZ=             20.4968   YZ=             -5.6860

 Normal termination of Gaussian 16 at Wed May  5 19:19:52 2021.
