 Gaussian 16, Revision A.03,
 Gaussian 16:  EM64L-G16RevA.03 25-Dec-2016

 -------------
 #p 6-31g* mp2
 -------------

 ------------------------------------------------------
 Input file generated by CHIRIPA (05-May-2021 14:57:27)
 ------------------------------------------------------
 Symbolic Z-matrix:
 Charge =  0 Multiplicity = 1

                         Standard orientation:
 ---------------------------------------------------------------------
 Center     Atomic      Atomic             Coordinates (Angstroms)
 Number     Number       Type             X           Y           Z
 ---------------------------------------------------------------------
      1          6           0       -4.713540    1.348530   -0.686245
      2          6           0       -3.377810    1.616284   -1.003510
      3          6           0       -2.373843    0.698043   -0.681903
      4          6           0       -2.742850   -0.483243   -0.040274
      5          6           0       -4.064796   -0.778764    0.288991
      6          6           0       -5.052172    0.153967   -0.042143
      7          1           0       -5.487001    2.067469   -0.939778
      8          1           0       -3.111900    2.543175   -1.503718
      9          1           0       -1.331936    0.879960   -0.915901
     10          1           0       -4.299054   -1.711396    0.787727
     11          1           0       -6.088696   -0.056633    0.205467
     12          7           0       -1.688776   -1.463013    0.305240
     13          8           0       -2.039888   -2.496416    0.870427
     14          8           0       -0.531441   -1.179002    0.004324
     15          6           0        1.976887    2.345624    1.274889
     16          6           0        1.925517    1.090769    1.890700
     17          6           0        2.443091   -0.037491    1.247510
     18          6           0        3.007419    0.126106   -0.016633
     19          6           0        3.073427    1.362965   -0.656253
     20          6           0        2.549669    2.477485    0.005616
     21          1           0        1.572421    3.216747    1.781790
     22          1           0        1.481274    0.985385    2.876392
     23          1           0        2.416404   -1.020767    1.701245
     24          1           0        3.522456    1.436615   -1.639292
     25          1           0        2.590934    3.450783   -0.475041
     26          7           0        3.558625   -1.061060   -0.707438
     27          8           0        4.050576   -0.890419   -1.820768
     28          8           0        3.488273   -2.139721   -0.122480
 ---------------------------------------------------------------------

 SCF Done:  E(RHF) =  -868.337557738     A.U. after   16 cycles
 E2 =    -0.2600568065D+01 EUMP2 =    -0.87093812580252D+03

 The electronic state is 1-A.
 Alpha  occ. eigenvalues --  -20.60998 -20.60989 -20.59856 -20.59796 -15.86038
 Alpha  occ. eigenvalues --  -15.84888 -11.31425 -11.30323 -11.27995 -11.27992
 Alpha  occ. eigenvalues --  -11.27753 -11.27058 -11.27029 -11.27007 -11.26880
 Alpha  occ. eigenvalues --  -11.26863 -11.26127 -11.25976  -1.60066  -1.58894
 Alpha  occ. eigenvalues --   -1.39619  -1.38447  -1.19604  -1.18564  -1.08997
 Alpha  occ. eigenvalues --   -1.07968  -1.05009  -1.03998  -0.95827  -0.94776
 Alpha  occ. eigenvalues --   -0.86405  -0.85405  -0.82660  -0.81616  -0.77701
 Alpha  occ. eigenvalues --   -0.76614  -0.72276  -0.71395  -0.71124  -0.70708
 Alpha  occ. eigenvalues --   -0.70188  -0.69737  -0.65257  -0.65012  -0.64245
 Alpha  occ. eigenvalues --   -0.64045  -0.62351  -0.61347  -0.55510  -0.54580
 Alpha  occ. eigenvalues --   -0.53343  -0.53101  -0.52308  -0.52120  -0.49020
 Alpha  occ. eigenvalues --   -0.49004  -0.47895  -0.47852  -0.45022  -0.43838
 Alpha  occ. eigenvalues --   -0.37594  -0.36640  -0.36572  -0.35543
 Alpha virt. eigenvalues --    0.04793   0.05980   0.11035   0.12075   0.16303
 Alpha virt. eigenvalues --    0.17381   0.21171   0.22016   0.27066   0.27929
 Alpha virt. eigenvalues --    0.28057   0.28956   0.30698   0.31503   0.32248

 Mulliken charges:
               1
     1  C   -0.170809
     2  C   -0.219140
     3  C   -0.171902
     4  C    0.157532
     5  C   -0.170949
     6  C   -0.218709
     7  H    0.225838
     8  H    0.222392
     9  H    0.277051
    10  H    0.276364
    11  H    0.224126
    12  N    0.489174
    13  O   -0.458753
    14  O   -0.461949
    15  C   -0.174285
    16  C   -0.220798
    17  C   -0.149099
    18  C    0.160708
    19  C   -0.173063
    20  C   -0.223543
    21  H    0.220022
    22  H    0.221055
    23  H    0.281147
    24  H    0.272453
    25  H    0.217334
    26  N    0.489128
    27  O   -0.466716
    28  O   -0.454610
 Sum of Mulliken charges =  -0.00000

 Dipole moment (field-independent basis, Debye):
    X=             -5.7801    Y=              7.2630    Z=              1.3028  Tot=              9.3733
 Quadrupole moment (field-independent basis, Debye-Ang):
   XX=            -94.7424   YY=           -105.0508   ZZ=           -102.1472
   XY=              7.1108   XZ=              8.5052   YZ=             -3.5146

 Normal termination of Gaussian 16 at Thu May  6 13:12:46 2021.
