 Gaussian 16, Revision A.03,
 Gaussian 16:  EM64L-G16RevA.03 25-Dec-2016

 -------------
 #p 6-31g* mp2
 -------------

 ------------------------------------------------------
 Input file generated by CHIRIPA (05-May-2021 14:51:08)
 ------------------------------------------------------
 Symbolic Z-matrix:
 Charge =  0 Multiplicity = 1

                         Standard orientation:
 ---------------------------------------------------------------------
 Center     Atomic      Atomic             Coordinates (Angstroms)
 Number     Number       Type             X           Y           Z
 ---------------------------------------------------------------------
      1          6           0        3.318128   -0.179537    0.327207
      2          6           0        2.474170    1.091707    0.228931
      3          6           0        1.023781    0.873233    0.660713
      4          1           0        2.863138   -0.963034   -0.294132
      5          1           0        3.294220   -0.548077    1.362099
      6          1           0        2.500789    1.458510   -0.805169
      7          1           0        2.931328    1.872327    0.850425
      8          1           0        0.978597    0.529522    1.699184
      9          1           0        0.545612    0.113354    0.034183
     10          1           0        0.438492    1.794749    0.582584
     11          6           0        4.770482    0.022879   -0.101072
     12          6           0        5.614440   -1.248365   -0.002795
     13          6           0        7.064828   -1.029891   -0.434577
     14          1           0        4.794390    0.391419   -1.135964
     15          1           0        5.225472    0.806376    0.520267
     16          1           0        5.157282   -2.028985   -0.624290
     17          1           0        5.587820   -1.615168    1.031305
     18          1           0        7.542997   -0.270012    0.191953
     19          1           0        7.110013   -0.686180   -1.473049
     20          1           0        7.650117   -1.951407   -0.356448
     21          6           0       -3.974648    0.836752   -0.054977
     22          6           0       -2.562191    1.340576   -0.353491
     23          6           0       -2.438724    2.859810   -0.233164
     24          1           0       -4.682240    1.319209   -0.743087
     25          1           0       -4.261517    1.149746    0.958499
     26          1           0       -2.277540    1.025539   -1.365589
     27          1           0       -1.857854    0.856719    0.335282
     28          1           0       -2.696628    3.188325    0.778846
     29          1           0       -3.118699    3.358104   -0.931689
     30          1           0       -1.420923    3.198366   -0.450701
     31          6           0       -4.113961   -0.680094   -0.171157
     32          6           0       -5.526419   -1.183919    0.127356
     33          6           0       -5.649885   -2.703152    0.007028
     34          1           0       -3.827092   -0.993087   -1.184635
     35          1           0       -3.406370   -1.162551    0.516951
     36          1           0       -6.230755   -0.700061   -0.561417
     37          1           0       -5.811069   -0.868882    1.139453
     38          1           0       -4.969911   -3.201446    0.705555
     39          1           0       -5.391981   -3.031666   -1.004982
     40          1           0       -6.667686   -3.041707    0.224566
 ---------------------------------------------------------------------

 SCF Done:  E(RHF) =  -470.732306067     A.U. after   11 cycles
 E2 =    -0.1583215147D+01 EUMP2 =    -0.47231552121433D+03

 The electronic state is 1-A.
 Alpha  occ. eigenvalues --  -11.21599 -11.21585 -11.21568 -11.21442 -11.21400
 Alpha  occ. eigenvalues --  -11.21347 -11.21341 -11.21279 -11.21070 -11.21047
 Alpha  occ. eigenvalues --  -11.21037 -11.21020  -1.08430  -1.08365  -1.03565
 Alpha  occ. eigenvalues --   -1.03441  -0.96035  -0.95886  -0.87008  -0.86954
 Alpha  occ. eigenvalues --   -0.79706  -0.79445  -0.78265  -0.78146  -0.65063
 Alpha  occ. eigenvalues --   -0.65000  -0.60975  -0.60864  -0.59627  -0.59086
 Alpha  occ. eigenvalues --   -0.57720  -0.57398  -0.55275  -0.55215  -0.52809
 Alpha  occ. eigenvalues --   -0.52519  -0.52498  -0.52214  -0.49966  -0.49843
 Alpha  occ. eigenvalues --   -0.48024  -0.47740  -0.46684  -0.46508  -0.45851
 Alpha  occ. eigenvalues --   -0.45722  -0.45672  -0.45557  -0.43730  -0.43718
 Alpha virt. eigenvalues --    0.22102   0.22996   0.23483   0.24990   0.26249
 Alpha virt. eigenvalues --    0.26639   0.26950   0.27041   0.27814   0.29049
 Alpha virt. eigenvalues --    0.30639   0.31155   0.31358   0.31707   0.32347

 Mulliken charges:
               1
     1  C   -0.298600
     2  C   -0.300039
     3  C   -0.481624
     4  H    0.149712
     5  H    0.149370
     6  H    0.151799
     7  H    0.151642
     8  H    0.154140
     9  H    0.157051
    10  H    0.166565
    11  C   -0.298252
    12  C   -0.299610
    13  C   -0.475696
    14  H    0.149501
    15  H    0.149627
    16  H    0.151937
    17  H    0.151882
    18  H    0.155168
    19  H    0.155179
    20  H    0.160241
    21  C   -0.297615
    22  C   -0.305630
    23  C   -0.478108
    24  H    0.148899
    25  H    0.149087
    26  H    0.150493
    27  H    0.162968
    28  H    0.154991
    29  H    0.155345
    30  H    0.160309
    31  C   -0.298288
    32  C   -0.299538
    33  C   -0.475679
    34  H    0.149107
    35  H    0.149621
    36  H    0.151874
    37  H    0.151875
    38  H    0.155130
    39  H    0.155035
    40  H    0.160135
 Sum of Mulliken charges =  -0.00000

 Dipole moment (field-independent basis, Debye):
    X=              0.0174    Y=             -0.0032    Z=              0.0123  Tot=              0.0216
 Quadrupole moment (field-independent basis, Debye-Ang):
   XX=            -86.1670   YY=            -85.9775   ZZ=            -82.9499
   XY=             -0.2125   XZ=              0.7316   YZ=              0.1073

 Normal termination of Gaussian 16 at Thu May  6 02:07:11 2021.
