 Gaussian 16, Revision A.03,
 Gaussian 16:  EM64L-G16RevA.03 25-Dec-2016

 -------------
 #p 6-31g* mp2
 -------------

 ------------------------------------------------------
 Input file generated by CHIRIPA (05-May-2021 14:51:10)
 ------------------------------------------------------
 Symbolic Z-matrix:
 Charge =  0 Multiplicity = 1

                         Standard orientation:
 ---------------------------------------------------------------------
 Center     Atomic      Atomic             Coordinates (Angstroms)
 Number     Number       Type             X           Y           Z
 ---------------------------------------------------------------------
      1          6           0        2.914424    0.012565    0.066122
      2          6           0        4.136339   -0.097412   -0.846465
      3          6           0        4.807228    1.252674   -1.101354
      4          1           0        2.189608    0.704619   -0.384043
      5          1           0        3.219181    0.458115    1.023202
      6          1           0        3.829632   -0.543898   -1.801032
      7          1           0        4.858248   -0.789433   -0.394169
      8          1           0        5.140816    1.700936   -0.159876
      9          1           0        4.106356    1.947866   -1.574732
     10          1           0        5.678360    1.150849   -1.756046
     11          6           0        2.232901   -1.328877    0.330295
     12          6           0        1.010986   -1.218899    1.242881
     13          6           0        0.340097   -2.568986    1.497770
     14          1           0        1.928144   -1.774427   -0.626786
     15          1           0        2.957717   -2.020931    0.780459
     16          1           0        0.289078   -0.526879    0.790585
     17          1           0        1.317694   -0.772414    2.197448
     18          1           0        1.040970   -3.264178    1.971148
     19          1           0        0.006509   -3.017248    0.556292
     20          1           0       -0.531035   -2.467161    2.152462
     21          6           0       -3.124485    0.229368   -0.508317
     22          6           0       -2.744923   -1.246343   -0.635568
     23          6           0       -3.857068   -2.091265   -1.257691
     24          1           0       -4.035953    0.315928    0.098872
     25          1           0       -3.373064    0.623950   -1.503260
     26          1           0       -2.495798   -1.637664    0.359128
     27          1           0       -1.834145   -1.329386   -1.242365
     28          1           0       -4.101208   -1.728118   -2.261244
     29          1           0       -4.766619   -2.038147   -0.650652
     30          1           0       -3.564543   -3.142759   -1.339240
     31          6           0       -2.022840    1.086944    0.111901
     32          6           0       -2.402402    2.562655    0.239153
     33          6           0       -1.290258    3.407577    0.861274
     34          1           0       -1.774261    0.692362    1.106844
     35          1           0       -1.111373    1.000384   -0.495288
     36          1           0       -3.313180    2.645698    0.845949
     37          1           0       -2.651528    2.953975   -0.755544
     38          1           0       -0.380706    3.354459    0.254235
     39          1           0       -1.046118    3.044429    1.864828
     40          1           0       -1.582782    4.459070    0.942824
 ---------------------------------------------------------------------

 SCF Done:  E(RHF) =  -470.732141282     A.U. after   11 cycles
 E2 =    -0.1584911250D+01 EUMP2 =    -0.47231705253190D+03

 The electronic state is 1-A.
 Alpha  occ. eigenvalues --  -11.21647 -11.21613 -11.21578 -11.21462 -11.21401
 Alpha  occ. eigenvalues --  -11.21380 -11.21350 -11.21275 -11.21098 -11.21094
 Alpha  occ. eigenvalues --  -11.21057 -11.20971  -1.08514  -1.08342  -1.03573
 Alpha  occ. eigenvalues --   -1.03452  -0.96025  -0.95921  -0.87056  -0.86919
 Alpha  occ. eigenvalues --   -0.79701  -0.79486  -0.78469  -0.78034  -0.65126
 Alpha  occ. eigenvalues --   -0.64995  -0.60976  -0.60867  -0.59392  -0.59289
 Alpha  occ. eigenvalues --   -0.57690  -0.57493  -0.55309  -0.55217  -0.52714
 Alpha  occ. eigenvalues --   -0.52610  -0.52496  -0.52320  -0.49975  -0.49858
 Alpha  occ. eigenvalues --   -0.48046  -0.47822  -0.46711  -0.46619  -0.46154
 Alpha  occ. eigenvalues --   -0.45771  -0.45666  -0.45044  -0.43823  -0.43710
 Alpha virt. eigenvalues --    0.20874   0.22661   0.23402   0.24384   0.25006
 Alpha virt. eigenvalues --    0.26326   0.27130   0.27707   0.28640   0.29933
 Alpha virt. eigenvalues --    0.30375   0.31374   0.31452   0.31897   0.32343

 Mulliken charges:
               1
     1  C   -0.298669
     2  C   -0.299578
     3  C   -0.475591
     4  H    0.148837
     5  H    0.149794
     6  H    0.151597
     7  H    0.152086
     8  H    0.155311
     9  H    0.154774
    10  H    0.160157
    11  C   -0.297632
    12  C   -0.311540
    13  C   -0.475806
    14  H    0.148436
    15  H    0.149120
    16  H    0.167143
    17  H    0.150061
    18  H    0.154296
    19  H    0.156707
    20  H    0.158063
    21  C   -0.297650
    22  C   -0.304267
    23  C   -0.475714
    24  H    0.149741
    25  H    0.149345
    26  H    0.158436
    27  H    0.151110
    28  H    0.155019
    29  H    0.155248
    30  H    0.160459
    31  C   -0.304021
    32  C   -0.298492
    33  C   -0.476062
    34  H    0.153415
    35  H    0.150474
    36  H    0.152113
    37  H    0.151877
    38  H    0.155172
    39  H    0.155732
    40  H    0.160500
 Sum of Mulliken charges =  -0.00000

 Dipole moment (field-independent basis, Debye):
    X=             -0.0676    Y=              0.0323    Z=              0.0038  Tot=              0.0750
 Quadrupole moment (field-independent basis, Debye-Ang):
   XX=            -85.1648   YY=            -86.1703   ZZ=            -83.5819
   XY=             -1.0259   XZ=             -0.0731   YZ=             -0.2759

 Normal termination of Gaussian 16 at Thu May  6 06:59:58 2021.
