 Gaussian 16, Revision A.03,
 Gaussian 16:  EM64L-G16RevA.03 25-Dec-2016

 -------------
 #p 6-31g* mp2
 -------------

 ------------------------------------------------------
 Input file generated by CHIRIPA (05-May-2021 14:55:20)
 ------------------------------------------------------
 Symbolic Z-matrix:
 Charge =  0 Multiplicity = 1

                         Standard orientation:
 ---------------------------------------------------------------------
 Center     Atomic      Atomic             Coordinates (Angstroms)
 Number     Number       Type             X           Y           Z
 ---------------------------------------------------------------------
      1          6           0        0.510052   -0.816799    1.528489
      2          6           0        0.791714   -1.494067    0.337483
      3          6           0        1.942723   -1.191607   -0.396168
      4          6           0        2.794002   -0.201819    0.092640
      5          6           0        2.540863    0.490592    1.275762
      6          6           0        1.383985    0.171627    1.993009
      7          1           0       -0.386359   -1.058167    2.092035
      8          1           0        0.114804   -2.262153   -0.025673
      9          1           0        2.185030   -1.700368   -1.321299
     10          1           0        3.234587    1.251389    1.612439
     11          1           0        1.167785    0.699233    2.917635
     12          7           0        4.015631    0.127118   -0.675360
     13          8           0        4.749612    1.003233   -0.223330
     14          8           0        4.216030   -0.497405   -1.714806
     15          6           0       -3.723317   -0.269335   -0.029263
     16          6           0       -3.264520   -1.603863   -0.617926
     17          6           0       -4.083767   -2.788823   -0.105583
     18          1           0       -3.656533   -0.316775    1.066289
     19          1           0       -4.783962   -0.115025   -0.271368
     20          1           0       -2.204689   -1.754960   -0.375967
     21          1           0       -3.332221   -1.553173   -1.712213
     22          1           0       -5.141322   -2.664804   -0.360138
     23          1           0       -4.007383   -2.867737    0.983700
     24          1           0       -3.738894   -3.732731   -0.539129
     25          6           0       -2.913900    0.924776   -0.531929
     26          6           0       -3.372697    2.259305    0.056733
     27          6           0       -2.553450    3.444266   -0.455610
     28          1           0       -1.853255    0.770467   -0.289826
     29          1           0       -2.980683    0.972217   -1.627482
     30          1           0       -3.304996    2.208616    1.151020
     31          1           0       -4.432528    2.410402   -0.185227
     32          1           0       -2.629834    3.523180   -1.544894
     33          1           0       -1.495896    3.320246   -0.201055
     34          1           0       -2.898322    4.388174   -0.022065
 ---------------------------------------------------------------------

 SCF Done:  E(RHF) =  -669.535417138     A.U. after   15 cycles
 E2 =    -0.2092530148D+01 EUMP2 =    -0.67162794728590D+03

 The electronic state is 1-A.
 Alpha  occ. eigenvalues --  -20.60811 -20.60806 -15.85865 -11.31262 -11.27831
 Alpha  occ. eigenvalues --  -11.27822 -11.27599 -11.26860 -11.26843 -11.22519
 Alpha  occ. eigenvalues --  -11.22149 -11.22093 -11.21919 -11.21894 -11.21428
 Alpha  occ. eigenvalues --   -1.59885  -1.39438  -1.19441  -1.09116  -1.08829
 Alpha  occ. eigenvalues --   -1.04846  -1.04193  -0.96615  -0.95660  -0.87630
 Alpha  occ. eigenvalues --   -0.86248  -0.82487  -0.80282  -0.78898  -0.77526
 Alpha  occ. eigenvalues --   -0.72083  -0.71208  -0.70550  -0.65815  -0.65089
 Alpha  occ. eigenvalues --   -0.64828  -0.62231  -0.61559  -0.59997  -0.58224
 Alpha  occ. eigenvalues --   -0.55914  -0.55340  -0.53329  -0.53173  -0.53044
 Alpha  occ. eigenvalues --   -0.52923  -0.50556  -0.48858  -0.48836  -0.48562
 Alpha  occ. eigenvalues --   -0.47325  -0.46431  -0.46347  -0.44836  -0.44433
 Alpha  occ. eigenvalues --   -0.37395  -0.36431
 Alpha virt. eigenvalues --    0.04991   0.11072   0.16434   0.19485   0.22783
 Alpha virt. eigenvalues --    0.23758   0.25533   0.25858   0.27208   0.28037
 Alpha virt. eigenvalues --    0.29027   0.30179   0.31045   0.31421   0.31845

 Mulliken charges:
               1
     1  C   -0.171504
     2  C   -0.219525
     3  C   -0.171361
     4  C    0.158754
     5  C   -0.170881
     6  C   -0.219359
     7  H    0.226696
     8  H    0.227456
     9  H    0.276291
    10  H    0.276007
    11  H    0.223899
    12  N    0.488032
    13  O   -0.460167
    14  O   -0.460022
    15  C   -0.297591
    16  C   -0.304445
    17  C   -0.475799
    18  H    0.144257
    19  H    0.153140
    20  H    0.143676
    21  H    0.156737
    22  H    0.159759
    23  H    0.152578
    24  H    0.160698
    25  C   -0.303431
    26  C   -0.299326
    27  C   -0.476266
    28  H    0.153126
    29  H    0.152054
    30  H    0.148563
    31  H    0.153128
    32  H    0.157364
    33  H    0.156311
    34  H    0.161148
 Sum of Mulliken charges =  -0.00000

 Dipole moment (field-independent basis, Debye):
    X=             -4.3324    Y=             -1.1074    Z=              2.6347  Tot=              5.1901
 Quadrupole moment (field-independent basis, Debye-Ang):
   XX=           -118.6784   YY=            -93.1448   ZZ=            -91.6983
   XY=             -1.9960   XZ=              9.1017   YZ=              2.2454

 Normal termination of Gaussian 16 at Thu May  6 07:42:12 2021.
