 Gaussian 16, Revision A.03,
 Gaussian 16:  EM64L-G16RevA.03 25-Dec-2016

 -------------
 #p 6-31g* mp2
 -------------

 ------------------------------------------------------
 Input file generated by CHIRIPA (05-May-2021 14:51:11)
 ------------------------------------------------------
 Symbolic Z-matrix:
 Charge =  0 Multiplicity = 1

                         Standard orientation:
 ---------------------------------------------------------------------
 Center     Atomic      Atomic             Coordinates (Angstroms)
 Number     Number       Type             X           Y           Z
 ---------------------------------------------------------------------
      1          6           0        3.639161    0.979039   -0.324967
      2          6           0        3.198106    2.236245    0.425291
      3          6           0        3.542205    3.523479   -0.324655
      4          1           0        4.722881    1.025010   -0.499273
      5          1           0        3.163555    0.965756   -1.315430
      6          1           0        3.673317    2.246453    1.414577
      7          1           0        2.115341    2.187186    0.598001
      8          1           0        3.055844    3.539713   -1.305364
      9          1           0        4.622673    3.599317   -0.484148
     10          1           0        3.218031    4.409859    0.229514
     11          6           0        3.302096   -0.315883    0.412118
     12          6           0        3.743152   -1.573089   -0.338140
     13          6           0        3.399053   -2.860323    0.411806
     14          1           0        3.777703   -0.302600    1.402581
     15          1           0        2.218376   -0.361854    0.586424
     16          1           0        4.825917   -1.524029   -0.510850
     17          1           0        3.267941   -1.583297   -1.327426
     18          1           0        2.318585   -2.936161    0.571299
     19          1           0        3.885414   -2.876557    1.392515
     20          1           0        3.723226   -3.746703   -0.142363
     21          6           0       -3.834645    0.299690    0.185388
     22          6           0       -5.315168    0.318099   -0.196317
     23          6           0       -6.029780    1.587338    0.268608
     24          1           0       -3.742473    0.395538    1.275921
     25          1           0       -3.340291    1.179824   -0.248634
     26          1           0       -5.806293   -0.562541    0.237142
     27          1           0       -5.403832    0.222003   -1.286050
     28          1           0       -5.566217    2.474700   -0.174447
     29          1           0       -5.970964    1.685698    1.357401
     30          1           0       -7.086911    1.579554   -0.014717
     31          6           0       -3.106613   -0.962846   -0.272539
     32          6           0       -1.626090   -0.981255    0.109165
     33          6           0       -0.911478   -2.250494   -0.355760
     34          1           0       -3.600967   -1.842980    0.161482
     35          1           0       -3.198785   -1.058694   -1.363073
     36          1           0       -1.537425   -0.885159    1.198900
     37          1           0       -1.134965   -0.100616   -0.324293
     38          1           0       -0.970294   -2.348855   -1.444551
     39          1           0       -1.375041   -3.137857    0.087296
     40          1           0        0.145653   -2.242711   -0.072434
 ---------------------------------------------------------------------

 SCF Done:  E(RHF) =  -470.733283746     A.U. after   11 cycles
 E2 =    -0.1582833626D+01 EUMP2 =    -0.47231611737182D+03

 The electronic state is 1-A.
 Alpha  occ. eigenvalues --  -11.21669 -11.21627 -11.21596 -11.21594 -11.21446
 Alpha  occ. eigenvalues --  -11.21403 -11.21385 -11.21343 -11.21127 -11.21090
 Alpha  occ. eigenvalues --  -11.21071 -11.21051  -1.08474  -1.08426  -1.03583
 Alpha  occ. eigenvalues --   -1.03519  -0.96034  -0.95967  -0.87056  -0.86979
 Alpha  occ. eigenvalues --   -0.79649  -0.79575  -0.78285  -0.78239  -0.65109
 Alpha  occ. eigenvalues --   -0.65066  -0.60987  -0.60966  -0.59442  -0.59281
 Alpha  occ. eigenvalues --   -0.57666  -0.57553  -0.55313  -0.55273  -0.52760
 Alpha  occ. eigenvalues --   -0.52666  -0.52466  -0.52350  -0.49967  -0.49908
 Alpha  occ. eigenvalues --   -0.48012  -0.47845  -0.46672  -0.46607  -0.45831
 Alpha  occ. eigenvalues --   -0.45780  -0.45749  -0.45688  -0.43806  -0.43770
 Alpha virt. eigenvalues --    0.20366   0.23079   0.23594   0.24869   0.26159
 Alpha virt. eigenvalues --    0.26648   0.27105   0.27337   0.27994   0.29008
 Alpha virt. eigenvalues --    0.30252   0.31384   0.31730   0.31810   0.32046

 Mulliken charges:
               1
     1  C   -0.298095
     2  C   -0.299808
     3  C   -0.475692
     4  H    0.149691
     5  H    0.149440
     6  H    0.151957
     7  H    0.152189
     8  H    0.155022
     9  H    0.155189
    10  H    0.160275
    11  C   -0.301402
    12  C   -0.299529
    13  C   -0.481368
    14  H    0.149614
    15  H    0.151965
    16  H    0.152106
    17  H    0.152308
    18  H    0.159886
    19  H    0.155272
    20  H    0.160664
    21  C   -0.298288
    22  C   -0.299682
    23  C   -0.475736
    24  H    0.149801
    25  H    0.149464
    26  H    0.152026
    27  H    0.151978
    28  H    0.155211
    29  H    0.155252
    30  H    0.160353
    31  C   -0.298597
    32  C   -0.299257
    33  C   -0.485139
    34  H    0.149840
    35  H    0.149771
    36  H    0.152305
    37  H    0.151379
    38  H    0.155571
    39  H    0.155859
    40  H    0.168206
 Sum of Mulliken charges =  -0.00000

 Dipole moment (field-independent basis, Debye):
    X=             -0.0148    Y=             -0.0060    Z=              0.0028  Tot=              0.0162
 Quadrupole moment (field-independent basis, Debye-Ang):
   XX=            -84.3278   YY=            -86.3456   ZZ=            -84.0075
   XY=              0.5304   XZ=              0.4720   YZ=             -0.1967

 Normal termination of Gaussian 16 at Wed May  5 23:05:19 2021.
