 Gaussian 16, Revision A.03,
 Gaussian 16:  EM64L-G16RevA.03 25-Dec-2016

 -------------
 #p 6-31g* mp2
 -------------

 ------------------------------------------------------
 Input file generated by CHIRIPA (05-May-2021 14:51:13)
 ------------------------------------------------------
 Symbolic Z-matrix:
 Charge =  0 Multiplicity = 1

                         Standard orientation:
 ---------------------------------------------------------------------
 Center     Atomic      Atomic             Coordinates (Angstroms)
 Number     Number       Type             X           Y           Z
 ---------------------------------------------------------------------
      1          6           0        2.301554   -0.498150    0.846235
      2          6           0        1.326000    0.454543    1.538085
      3          6           0        0.254526   -0.279656    2.344738
      4          1           0        1.739563   -1.171467    0.184605
      5          1           0        2.782117   -1.133196    1.603315
      6          1           0        0.848443    1.088546    0.780065
      7          1           0        1.890400    1.125797    2.197999
      8          1           0        0.714157   -0.899002    3.121751
      9          1           0       -0.333721   -0.936464    1.695761
     10          1           0       -0.432072    0.420417    2.830887
     11          6           0        3.378599    0.220905    0.035887
     12          6           0        4.354153   -0.731787   -0.655963
     13          6           0        5.425628    0.002412   -1.462616
     14          1           0        2.898036    0.855952   -0.721193
     15          1           0        3.940590    0.894223    0.697517
     16          1           0        3.789753   -1.403041   -1.315878
     17          1           0        4.831711   -1.365791    0.102057
     18          1           0        6.013874    0.659219   -0.813639
     19          1           0        4.965996    0.621758   -2.239630
     20          1           0        6.112226   -0.697661   -1.948765
     21          6           0       -2.676225   -0.565878   -0.686547
     22          6           0       -3.596244   -1.639884   -0.105114
     23          6           0       -3.255927   -3.043977   -0.605614
     24          1           0       -2.740448   -0.591443   -1.782981
     25          1           0       -1.635375   -0.805789   -0.428731
     26          1           0       -4.635171   -1.397275   -0.362773
     27          1           0       -3.529969   -1.611633    0.990068
     28          1           0       -2.229123   -3.310926   -0.335403
     29          1           0       -3.340605   -3.095351   -1.695931
     30          1           0       -3.925868   -3.796138   -0.177486
     31          6           0       -3.003928    0.843123   -0.195575
     32          6           0       -2.083909    1.917128   -0.777008
     33          6           0       -2.424227    3.321222   -0.276508
     34          1           0       -4.044777    1.083034   -0.453391
     35          1           0       -2.939705    0.868687    0.900859
     36          1           0       -2.150184    1.888876   -1.872191
     37          1           0       -1.044983    1.674520   -0.519349
     38          1           0       -2.339548    3.372596    0.813810
     39          1           0       -3.451030    3.588171   -0.546719
     40          1           0       -1.754286    4.073382   -0.704636
 ---------------------------------------------------------------------

 SCF Done:  E(RHF) =  -470.732937276     A.U. after   11 cycles
 E2 =    -0.1584249101D+01 EUMP2 =    -0.47231718637694D+03

 The electronic state is 1-A.
 Alpha  occ. eigenvalues --  -11.21665 -11.21624 -11.21606 -11.21598 -11.21455
 Alpha  occ. eigenvalues --  -11.21406 -11.21391 -11.21343 -11.21159 -11.21086
 Alpha  occ. eigenvalues --  -11.21085 -11.21078  -1.08501  -1.08419  -1.03590
 Alpha  occ. eigenvalues --   -1.03533  -0.96045  -0.95974  -0.87055  -0.86998
 Alpha  occ. eigenvalues --   -0.79705  -0.79550  -0.78306  -0.78243  -0.65380
 Alpha  occ. eigenvalues --   -0.64862  -0.61060  -0.60864  -0.59406  -0.59341
 Alpha  occ. eigenvalues --   -0.57661  -0.57576  -0.55449  -0.55150  -0.52727
 Alpha  occ. eigenvalues --   -0.52679  -0.52462  -0.52414  -0.50093  -0.49828
 Alpha  occ. eigenvalues --   -0.48041  -0.47922  -0.46941  -0.46386  -0.46005
 Alpha  occ. eigenvalues --   -0.45763  -0.45715  -0.45455  -0.43828  -0.43789
 Alpha virt. eigenvalues --    0.19145   0.22964   0.23304   0.24707   0.25709
 Alpha virt. eigenvalues --    0.26363   0.27163   0.27913   0.28347   0.29747
 Alpha virt. eigenvalues --    0.30182   0.31329   0.31782   0.32073   0.32452

 Mulliken charges:
               1
     1  C   -0.298380
     2  C   -0.307542
     3  C   -0.479782
     4  H    0.149388
     5  H    0.149893
     6  H    0.158681
     7  H    0.152777
     8  H    0.155842
     9  H    0.158681
    10  H    0.160227
    11  C   -0.298393
    12  C   -0.299747
    13  C   -0.475771
    14  H    0.149670
    15  H    0.149834
    16  H    0.152178
    17  H    0.151961
    18  H    0.155188
    19  H    0.155336
    20  H    0.160366
    21  C   -0.301909
    22  C   -0.300589
    23  C   -0.475648
    24  H    0.149702
    25  H    0.151951
    26  H    0.152170
    27  H    0.153029
    28  H    0.154569
    29  H    0.155167
    30  H    0.160532
    31  C   -0.298461
    32  C   -0.307573
    33  C   -0.475298
    34  H    0.149540
    35  H    0.151459
    36  H    0.151832
    37  H    0.158535
    38  H    0.155150
    39  H    0.155328
    40  H    0.160109
 Sum of Mulliken charges =  -0.00000

 Dipole moment (field-independent basis, Debye):
    X=              0.0116    Y=              0.0018    Z=              0.0129  Tot=              0.0174
 Quadrupole moment (field-independent basis, Debye-Ang):
   XX=            -84.6406   YY=            -86.0942   ZZ=            -83.9393
   XY=             -0.2419   XZ=              1.5443   YZ=             -0.1282

 Normal termination of Gaussian 16 at Thu May  6 03:57:10 2021.
