 Gaussian 16, Revision A.03,
 Gaussian 16:  EM64L-G16RevA.03 25-Dec-2016

 -------------
 #p 6-31g* mp2
 -------------

 ------------------------------------------------------
 Input file generated by CHIRIPA (05-May-2021 14:57:26)
 ------------------------------------------------------
 Symbolic Z-matrix:
 Charge =  0 Multiplicity = 1

                         Standard orientation:
 ---------------------------------------------------------------------
 Center     Atomic      Atomic             Coordinates (Angstroms)
 Number     Number       Type             X           Y           Z
 ---------------------------------------------------------------------
      1          6           0        4.509169    1.233330    0.506086
      2          6           0        3.248375    1.685343    0.102845
      3          6           0        2.239887    0.775083   -0.227197
      4          6           0        2.528011   -0.586201   -0.142460
      5          6           0        3.774136   -1.067640    0.255885
      6          6           0        4.767570   -0.139299    0.581186
      7          1           0        5.286739    1.947464    0.760629
      8          1           0        3.044860    2.750762    0.043604
      9          1           0        1.254968    1.097587   -0.542384
     10          1           0        3.947117   -2.135842    0.305279
     11          1           0        5.745791   -0.493214    0.894033
     12          7           0        1.468338   -1.559422   -0.489351
     13          8           0        1.747413   -2.753532   -0.406543
     14          8           0        0.378757   -1.109696   -0.837485
     15          6           0       -3.843488   -1.751838    0.653014
     16          6           0       -3.414614   -0.898948    1.675348
     17          6           0       -2.781383    0.310115    1.372471
     18          6           0       -2.592366    0.636328    0.030402
     19          6           0       -3.008337   -0.192271   -1.010598
     20          6           0       -3.639340   -1.396404   -0.684338
     21          1           0       -4.334531   -2.689154    0.897379
     22          1           0       -3.571827   -1.172401    2.714844
     23          1           0       -2.439368    0.989061    2.144141
     24          1           0       -2.837605    0.107525   -2.037433
     25          1           0       -3.971361   -2.056814   -1.480371
     26          7           0       -1.923173    1.913700   -0.302617
     27          8           0       -1.768480    2.178126   -1.492905
     28          8           0       -1.566022    2.626289    0.632956
 ---------------------------------------------------------------------

 SCF Done:  E(RHF) =  -868.340141487     A.U. after   16 cycles
 E2 =    -0.2600152229D+01 EUMP2 =    -0.87094029371603D+03

 The electronic state is 1-A.
 Alpha  occ. eigenvalues --  -20.60683 -20.60676 -20.60488 -20.60450 -15.85713
 Alpha  occ. eigenvalues --  -15.85487 -11.30822 -11.30331 -11.27422 -11.27267
 Alpha  occ. eigenvalues --  -11.27090 -11.26961 -11.26849 -11.26619 -11.26398
 Alpha  occ. eigenvalues --  -11.26241 -11.25894 -11.25784  -1.59752  -1.59559
 Alpha  occ. eigenvalues --   -1.39315  -1.39117  -1.18980  -1.18487  -1.08433
 Alpha  occ. eigenvalues --   -1.08003  -1.04327  -1.03851  -0.95307  -0.94920
 Alpha  occ. eigenvalues --   -0.85750  -0.85294  -0.82140  -0.81792  -0.77214
 Alpha  occ. eigenvalues --   -0.76874  -0.71991  -0.71733  -0.71070  -0.70826
 Alpha  occ. eigenvalues --   -0.70082  -0.69677  -0.64633  -0.64322  -0.64189
 Alpha  occ. eigenvalues --   -0.63912  -0.61659  -0.61244  -0.54871  -0.54435
 Alpha  occ. eigenvalues --   -0.52699  -0.52415  -0.52128  -0.51993  -0.48718
 Alpha  occ. eigenvalues --   -0.48676  -0.48505  -0.48450  -0.44771  -0.44633
 Alpha  occ. eigenvalues --   -0.36978  -0.36414  -0.35919  -0.35375
 Alpha virt. eigenvalues --    0.05278   0.05649   0.11722   0.12262   0.16812
 Alpha virt. eigenvalues --    0.17243   0.21829   0.22230   0.27721   0.28118
 Alpha virt. eigenvalues --    0.28480   0.29140   0.31243   0.31753   0.32715

 Mulliken charges:
               1
     1  C   -0.170764
     2  C   -0.220221
     3  C   -0.171508
     4  C    0.156321
     5  C   -0.171726
     6  C   -0.219307
     7  H    0.225160
     8  H    0.230946
     9  H    0.284198
    10  H    0.272942
    11  H    0.221526
    12  N    0.491176
    13  O   -0.463086
    14  O   -0.466738
    15  C   -0.167476
    16  C   -0.218424
    17  C   -0.171991
    18  C    0.164697
    19  C   -0.154432
    20  C   -0.214165
    21  H    0.223546
    22  H    0.219443
    23  H    0.269924
    24  H    0.274156
    25  H    0.222430
    26  N    0.485265
    27  O   -0.462602
    28  O   -0.469291
 Sum of Mulliken charges =  -0.00000

 Dipole moment (field-independent basis, Debye):
    X=              1.3457    Y=             -1.1236    Z=              2.2373  Tot=              2.8423
 Quadrupole moment (field-independent basis, Debye-Ang):
   XX=            -73.0919   YY=           -112.7027   ZZ=           -101.1662
   XY=             15.2584   XZ=              1.1196   YZ=             -0.3111

 Normal termination of Gaussian 16 at Wed May  5 18:01:27 2021.
