 Gaussian 16, Revision A.03,
 Gaussian 16:  EM64L-G16RevA.03 25-Dec-2016

 -------------
 #p 6-31g* mp2
 -------------

 ------------------------------------------------------
 Input file generated by CHIRIPA (05-May-2021 14:53:17)
 ------------------------------------------------------
 Symbolic Z-matrix:
 Charge =  0 Multiplicity = 1

                         Standard orientation:
 ---------------------------------------------------------------------
 Center     Atomic      Atomic             Coordinates (Angstroms)
 Number     Number       Type             X           Y           Z
 ---------------------------------------------------------------------
      1          6           0       -3.570697    0.324951   -0.323357
      2          6           0       -3.549626   -1.099655    0.231654
      3          6           0       -4.703829   -1.955089   -0.291646
      4          1           0       -4.527242    0.798752   -0.063586
      5          1           0       -3.529910    0.284153   -1.420657
      6          1           0       -3.589045   -1.056141    1.327632
      7          1           0       -2.592944   -1.570054   -0.029303
      8          1           0       -4.664994   -2.028236   -1.383315
      9          1           0       -5.666756   -1.511402   -0.018670
     10          1           0       -4.669451   -2.969508    0.117783
     11          6           0       -2.423031    1.192384    0.190600
     12          6           0       -2.444102    2.616990   -0.364411
     13          6           0       -1.289899    3.472424    0.158889
     14          1           0       -2.463819    1.233182    1.287900
     15          1           0       -1.466487    0.718583   -0.069170
     16          1           0       -3.400785    3.087390   -0.103454
     17          1           0       -2.404683    2.573476   -1.460389
     18          1           0       -0.326973    3.028738   -0.114087
     19          1           0       -1.328734    3.545571    1.250559
     20          1           0       -1.324278    4.486843   -0.250540
     21          6           0        0.316794   -2.052461    0.421211
     22          6           0        0.863937   -1.331535    1.487710
     23          6           0        1.985542   -0.519577    1.294641
     24          6           0        2.537022   -0.451586    0.016150
     25          6           0        2.014897   -1.157707   -1.066470
     26          6           0        0.893004   -1.963404   -0.850234
     27          1           0       -0.554607   -2.680777    0.580190
     28          1           0        0.418536   -1.398780    2.476215
     29          1           0        2.429424    0.049266    2.102604
     30          1           0        2.480932   -1.070463   -2.040440
     31          1           0        0.470213   -2.522161   -1.680345
     32          7           0        3.724567    0.404683   -0.200507
     33          8           0        4.191817    0.447520   -1.336499
     34          8           0        4.165630    1.016776    0.769773
 ---------------------------------------------------------------------

 SCF Done:  E(RHF) =  -669.535227517     A.U. after   15 cycles
 E2 =    -0.2092933840D+01 EUMP2 =    -0.67162816135731D+03

 The electronic state is 1-A.
 Alpha  occ. eigenvalues --  -20.60806 -20.60801 -15.85861 -11.31248 -11.27824
 Alpha  occ. eigenvalues --  -11.27810 -11.27543 -11.26847 -11.26818 -11.22416
 Alpha  occ. eigenvalues --  -11.21921 -11.21822 -11.21816 -11.21688 -11.21163
 Alpha  occ. eigenvalues --   -1.59882  -1.39434  -1.19428  -1.08930  -1.08799
 Alpha  occ. eigenvalues --   -1.04827  -1.04002  -0.96418  -0.95649  -0.87437
 Alpha  occ. eigenvalues --   -0.86221  -0.82480  -0.80113  -0.78696  -0.77516
 Alpha  occ. eigenvalues --   -0.72077  -0.71207  -0.70548  -0.65550  -0.65074
 Alpha  occ. eigenvalues --   -0.64822  -0.62169  -0.61406  -0.59833  -0.58037
 Alpha  occ. eigenvalues --   -0.55709  -0.55335  -0.53248  -0.53078  -0.52914
 Alpha  occ. eigenvalues --   -0.52823  -0.50360  -0.48841  -0.48831  -0.48397
 Alpha  occ. eigenvalues --   -0.47151  -0.46224  -0.46116  -0.44835  -0.44235
 Alpha  occ. eigenvalues --   -0.37339  -0.36428
 Alpha virt. eigenvalues --    0.04979   0.11194   0.16360   0.20624   0.22679
 Alpha virt. eigenvalues --    0.23873   0.25904   0.26487   0.27347   0.27517
 Alpha virt. eigenvalues --    0.28689   0.30543   0.31042   0.31472   0.32244

 Mulliken charges:
               1
     1  C   -0.297383
     2  C   -0.303329
     3  C   -0.475622
     4  H    0.151596
     5  H    0.150099
     6  H    0.150401
     7  H    0.144734
     8  H    0.156133
     9  H    0.159003
    10  H    0.157714
    11  C   -0.302974
    12  C   -0.299997
    13  C   -0.475794
    14  H    0.146395
    15  H    0.156061
    16  H    0.151744
    17  H    0.152422
    18  H    0.157694
    19  H    0.154112
    20  H    0.162341
    21  C   -0.168686
    22  C   -0.218051
    23  C   -0.170996
    24  C    0.158185
    25  C   -0.171125
    26  C   -0.220784
    27  H    0.228364
    28  H    0.224409
    29  H    0.276070
    30  H    0.275828
    31  H    0.223797
    32  N    0.488018
    33  O   -0.460378
    34  O   -0.460003
 Sum of Mulliken charges =  -0.00000

 Dipole moment (field-independent basis, Debye):
    X=             -4.1632    Y=             -2.9545    Z=              0.7610  Tot=              5.1615
 Quadrupole moment (field-independent basis, Debye-Ang):
   XX=           -117.0308   YY=            -92.7746   ZZ=            -89.5473
   XY=             -6.6718   XZ=              1.2403   YZ=              1.0275

 Normal termination of Gaussian 16 at Wed May  5 15:42:59 2021.
