 Gaussian 16, Revision A.03,
 Gaussian 16:  EM64L-G16RevA.03 25-Dec-2016

 -------------
 #p 6-31g* mp2
 -------------

 ------------------------------------------------------
 Input file generated by CHIRIPA (05-May-2021 14:55:19)
 ------------------------------------------------------
 Symbolic Z-matrix:
 Charge =  0 Multiplicity = 1

                         Standard orientation:
 ---------------------------------------------------------------------
 Center     Atomic      Atomic             Coordinates (Angstroms)
 Number     Number       Type             X           Y           Z
 ---------------------------------------------------------------------
      1          6           0       -1.803964    1.645727   -0.413537
      2          6           0       -3.155512    2.005412   -0.435100
      3          6           0       -4.149874    1.041645   -0.242887
      4          6           0       -3.755235   -0.278416   -0.030778
      5          6           0       -2.417046   -0.668045   -0.003754
      6          6           0       -1.439686    0.312498   -0.198312
      7          1           0       -1.038124    2.400921   -0.563764
      8          1           0       -3.441347    3.040050   -0.602031
      9          1           0       -5.203603    1.292511   -0.254691
     10          1           0       -2.163007   -1.707483    0.164917
     11          1           0       -0.390832    0.030271   -0.181054
     12          7           0       -4.798921   -1.307592    0.173951
     13          8           0       -4.425160   -2.463763    0.358908
     14          8           0       -5.970962   -0.938603    0.145584
     15          6           0        5.225268   -0.208531    0.316000
     16          6           0        5.677040   -1.334843   -0.614219
     17          6           0        6.956214   -2.020988   -0.133891
     18          1           0        6.031079    0.533301    0.401430
     19          1           0        5.067461   -0.616111    1.324153
     20          1           0        5.832614   -0.925530   -1.620636
     21          1           0        4.869987   -2.073984   -0.697596
     22          1           0        6.810149   -2.455870    0.860162
     23          1           0        7.778245   -1.300890   -0.068121
     24          1           0        7.261173   -2.822837   -0.813522
     25          6           0        3.947781    0.487046   -0.150830
     26          6           0        3.496009    1.613358    0.779388
     27          6           0        2.216836    2.299503    0.299061
     28          1           0        4.105588    0.894626   -1.158983
     29          1           0        3.141971   -0.254786   -0.236261
     30          1           0        4.303062    2.352499    0.862766
     31          1           0        3.340435    1.204045    1.785806
     32          1           0        1.394805    1.579405    0.233291
     33          1           0        2.362901    2.734384   -0.694994
     34          1           0        1.911878    3.101352    0.978691
 ---------------------------------------------------------------------

 SCF Done:  E(RHF) =  -669.535306238     A.U. after   15 cycles
 E2 =    -0.2091356869D+01 EUMP2 =    -0.67162666310638D+03

 The electronic state is 1-A.
 Alpha  occ. eigenvalues --  -20.60722 -20.60717 -15.85776 -11.31127 -11.27705
 Alpha  occ. eigenvalues --  -11.27700 -11.27400 -11.26702 -11.26691 -11.22566
 Alpha  occ. eigenvalues --  -11.22375 -11.22243 -11.22131 -11.22012 -11.21487
 Alpha  occ. eigenvalues --   -1.59798  -1.39352  -1.19300  -1.09201  -1.08693
 Alpha  occ. eigenvalues --   -1.04709  -1.04318  -0.96798  -0.95528  -0.87824
 Alpha  occ. eigenvalues --   -0.86106  -0.82365  -0.80402  -0.78974  -0.77422
 Alpha  occ. eigenvalues --   -0.71995  -0.71122  -0.70397  -0.65848  -0.64954
 Alpha  occ. eigenvalues --   -0.64743  -0.62126  -0.61654  -0.60173  -0.58372
 Alpha  occ. eigenvalues --   -0.56095  -0.55194  -0.53476  -0.53245  -0.53027
 Alpha  occ. eigenvalues --   -0.52782  -0.50731  -0.48772  -0.48750  -0.48681
 Alpha  occ. eigenvalues --   -0.47410  -0.46527  -0.46417  -0.44761  -0.44556
 Alpha  occ. eigenvalues --   -0.37268  -0.36313
 Alpha virt. eigenvalues --    0.05122   0.11312   0.16618   0.19602   0.22311
 Alpha virt. eigenvalues --    0.23658   0.25053   0.25912   0.26629   0.27854
 Alpha virt. eigenvalues --    0.29040   0.29542   0.30850   0.31413   0.31620

 Mulliken charges:
               1
     1  C   -0.173097
     2  C   -0.219088
     3  C   -0.170882
     4  C    0.158357
     5  C   -0.170952
     6  C   -0.222924
     7  H    0.230885
     8  H    0.223329
     9  H    0.275373
    10  H    0.275347
    11  H    0.226013
    12  N    0.488033
    13  O   -0.460674
    14  O   -0.460559
    15  C   -0.299003
    16  C   -0.300181
    17  C   -0.476189
    18  H    0.151506
    19  H    0.151040
    20  H    0.152609
    21  H    0.152052
    22  H    0.156169
    23  H    0.155936
    24  H    0.162050
    25  C   -0.298273
    26  C   -0.300295
    27  C   -0.482760
    28  H    0.151086
    29  H    0.144820
    30  H    0.156267
    31  H    0.155150
    32  H    0.147593
    33  H    0.157252
    34  H    0.164007
 Sum of Mulliken charges =  -0.00000

 Dipole moment (field-independent basis, Debye):
    X=              3.9328    Y=              3.6642    Z=             -0.6956  Tot=              5.4201
 Quadrupole moment (field-independent basis, Debye-Ang):
   XX=           -119.6830   YY=            -94.3798   ZZ=            -95.2823
   XY=            -16.6636   XZ=              2.6294   YZ=             -0.5197

 Normal termination of Gaussian 16 at Thu May  6 06:05:45 2021.
