 Gaussian 16, Revision A.03,
 Gaussian 16:  EM64L-G16RevA.03 25-Dec-2016

 -------------
 #p 6-31g* mp2
 -------------

 ------------------------------------------------------
 Input file generated by CHIRIPA (05-May-2021 14:51:11)
 ------------------------------------------------------
 Symbolic Z-matrix:
 Charge =  0 Multiplicity = 1

                         Standard orientation:
 ---------------------------------------------------------------------
 Center     Atomic      Atomic             Coordinates (Angstroms)
 Number     Number       Type             X           Y           Z
 ---------------------------------------------------------------------
      1          6           0       -3.142728    0.698777   -0.060145
      2          6           0       -2.883711    1.727367   -1.161461
      3          6           0       -2.242290    3.010674   -0.632787
      4          1           0       -3.791360    1.146152    0.705411
      5          1           0       -2.193071    0.457253    0.437060
      6          1           0       -3.833359    1.965845   -1.657357
      7          1           0       -2.235775    1.277428   -1.924580
      8          1           0       -1.281385    2.792768   -0.155524
      9          1           0       -2.888046    3.485096    0.113218
     10          1           0       -2.065919    3.732050   -1.436759
     11          6           0       -3.783682   -0.589565   -0.573058
     12          6           0       -4.042699   -1.618156    0.528258
     13          6           0       -4.684120   -2.901463   -0.000417
     14          1           0       -4.733338   -0.348041   -1.070264
     15          1           0       -3.135049   -1.036941   -1.338614
     16          1           0       -4.690634   -1.168217    1.291377
     17          1           0       -3.093050   -1.856633    1.024153
     18          1           0       -4.038363   -3.375884   -0.746422
     19          1           0       -5.645024   -2.683556   -0.477680
     20          1           0       -4.860490   -3.622838    0.803556
     21          6           0        2.789683   -0.182100    0.653567
     22          6           0        2.105614    1.094508    1.143777
     23          6           0        0.759233    0.823108    1.815636
     24          1           0        2.124377   -0.699615   -0.051055
     25          1           0        2.933914   -0.862366    1.504350
     26          1           0        1.963968    1.772737    0.292568
     27          1           0        2.772706    1.609141    1.847167
     28          1           0        0.886578    0.166253    2.682194
     29          1           0        0.073244    0.330778    1.118762
     30          1           0        0.287664    1.749377    2.158431
     31          6           0        4.136727    0.072890   -0.020363
     32          6           0        4.820796   -1.203720   -0.510574
     33          6           0        6.167177   -0.932320   -1.182432
     34          1           0        3.992496    0.753155   -0.871146
     35          1           0        4.802033    0.590403    0.684259
     36          1           0        4.153704   -1.718353   -1.213964
     37          1           0        4.962442   -1.881948    0.340636
     38          1           0        6.853165   -0.439990   -0.485559
     39          1           0        6.039831   -0.275464   -2.048991
     40          1           0        6.638746   -1.858589   -1.525228
 ---------------------------------------------------------------------

 SCF Done:  E(RHF) =  -470.733162914     A.U. after   11 cycles
 E2 =    -0.1583016136D+01 EUMP2 =    -0.47231617905032D+03

 The electronic state is 1-A.
 Alpha  occ. eigenvalues --  -11.21664 -11.21633 -11.21576 -11.21575 -11.21453
 Alpha  occ. eigenvalues --  -11.21391 -11.21363 -11.21289 -11.21136 -11.21095
 Alpha  occ. eigenvalues --  -11.21052 -11.21032  -1.08480  -1.08397  -1.03586
 Alpha  occ. eigenvalues --   -1.03496  -0.96033  -0.95949  -0.87053  -0.86965
 Alpha  occ. eigenvalues --   -0.79664  -0.79548  -0.78303  -0.78195  -0.65174
 Alpha  occ. eigenvalues --   -0.64988  -0.61074  -0.60814  -0.59412  -0.59301
 Alpha  occ. eigenvalues --   -0.57687  -0.57521  -0.55348  -0.55225  -0.52730
 Alpha  occ. eigenvalues --   -0.52645  -0.52520  -0.52314  -0.50054  -0.49852
 Alpha  occ. eigenvalues --   -0.47975  -0.47871  -0.46773  -0.46550  -0.45905
 Alpha  occ. eigenvalues --   -0.45772  -0.45732  -0.45455  -0.43825  -0.43751
 Alpha virt. eigenvalues --    0.20699   0.23061   0.23566   0.25069   0.25619
 Alpha virt. eigenvalues --    0.26699   0.27031   0.27183   0.28044   0.29271
 Alpha virt. eigenvalues --    0.31037   0.31583   0.31633   0.31784   0.32212

 Mulliken charges:
               1
     1  C   -0.306927
     2  C   -0.298877
     3  C   -0.479187
     4  H    0.149644
     5  H    0.158288
     6  H    0.151860
     7  H    0.150905
     8  H    0.159063
     9  H    0.155080
    10  H    0.159774
    11  C   -0.297731
    12  C   -0.299676
    13  C   -0.475657
    14  H    0.149431
    15  H    0.148884
    16  H    0.152070
    17  H    0.151957
    18  H    0.155000
    19  H    0.155132
    20  H    0.160229
    21  C   -0.298455
    22  C   -0.300586
    23  C   -0.481841
    24  H    0.149365
    25  H    0.149759
    26  H    0.152467
    27  H    0.152506
    28  H    0.155748
    29  H    0.159314
    30  H    0.161978
    31  C   -0.298361
    32  C   -0.299693
    33  C   -0.475742
    34  H    0.149679
    35  H    0.149850
    36  H    0.151883
    37  H    0.151994
    38  H    0.155266
    39  H    0.155255
    40  H    0.160351
 Sum of Mulliken charges =  -0.00000

 Dipole moment (field-independent basis, Debye):
    X=              0.0355    Y=              0.0014    Z=              0.0322  Tot=              0.0479
 Quadrupole moment (field-independent basis, Debye-Ang):
   XX=            -84.9096   YY=            -85.6458   ZZ=            -84.2389
   XY=             -0.9029   XZ=              0.6390   YZ=             -0.1950

 Normal termination of Gaussian 16 at Wed May  5 21:30:03 2021.
