 Gaussian 16, Revision A.03,
 Gaussian 16:  EM64L-G16RevA.03 25-Dec-2016

 -------------
 #p 6-31g* mp2
 -------------

 ------------------------------------------------------
 Input file generated by CHIRIPA (05-May-2021 14:57:26)
 ------------------------------------------------------
 Symbolic Z-matrix:
 Charge =  0 Multiplicity = 1

                         Standard orientation:
 ---------------------------------------------------------------------
 Center     Atomic      Atomic             Coordinates (Angstroms)
 Number     Number       Type             X           Y           Z
 ---------------------------------------------------------------------
      1          6           0        4.711518   -0.377714   -1.345403
      2          6           0        4.993030   -0.090603   -0.005687
      3          6           0        3.957103    0.060606    0.920886
      4          6           0        2.645379   -0.082600    0.471261
      5          6           0        2.332749   -0.368510   -0.856824
      6          6           0        3.384615   -0.515509   -1.765954
      7          1           0        5.522442   -0.493542   -2.058412
      8          1           0        6.022567    0.016958    0.323750
      9          1           0        4.146671    0.283007    1.963968
     10          1           0        1.296416   -0.469964   -1.155382
     11          1           0        3.163015   -0.738470   -2.805775
     12          7           0        1.540252    0.075250    1.442949
     13          8           0        0.393099   -0.055784    1.021635
     14          8           0        1.842134    0.327017    2.607474
     15          6           0       -3.665552   -2.217181    0.193162
     16          6           0       -2.690331   -2.022470   -0.790480
     17          6           0       -2.218628   -0.738246   -1.078253
     18          6           0       -2.746499    0.333464   -0.359866
     19          6           0       -3.718784    0.171794    0.625941
     20          6           0       -4.175767   -1.121359    0.896992
     21          1           0       -4.026264   -3.218265    0.410215
     22          1           0       -2.292284   -2.871642   -1.338670
     23          1           0       -1.464215   -0.558984   -1.834655
     24          1           0       -4.096541    1.037865    1.155695
     25          1           0       -4.933197   -1.269584    1.661436
     26          7           0       -2.254920    1.697742   -0.655667
     27          8           0       -2.736046    2.625395   -0.008662
     28          8           0       -1.397804    1.813577   -1.528920
 ---------------------------------------------------------------------

 SCF Done:  E(RHF) =  -868.338104605     A.U. after   16 cycles
 E2 =    -0.2601332651D+01 EUMP2 =    -0.87093943725575D+03

 The electronic state is 1-A.
 Alpha  occ. eigenvalues --  -20.60701 -20.60674 -20.59982 -20.59944 -15.85736
 Alpha  occ. eigenvalues --  -15.85012 -11.31034 -11.30265 -11.27620 -11.27606
 Alpha  occ. eigenvalues --  -11.27354 -11.26975 -11.26839 -11.26661 -11.26618
 Alpha  occ. eigenvalues --  -11.26608 -11.25970 -11.25888  -1.59751  -1.59007
 Alpha  occ. eigenvalues --   -1.39314  -1.38582  -1.19207  -1.18450  -1.08617
 Alpha  occ. eigenvalues --   -1.07875  -1.04610  -1.03904  -0.95468  -0.94742
 Alpha  occ. eigenvalues --   -0.86012  -0.85318  -0.82315  -0.81617  -0.77373
 Alpha  occ. eigenvalues --   -0.76655  -0.72028  -0.71274  -0.71066  -0.70345
 Alpha  occ. eigenvalues --   -0.70198  -0.69666  -0.64874  -0.64631  -0.64166
 Alpha  occ. eigenvalues --   -0.63973  -0.61981  -0.61295  -0.55126  -0.54456
 Alpha  occ. eigenvalues --   -0.52928  -0.52720  -0.52133  -0.52051  -0.48728
 Alpha  occ. eigenvalues --   -0.48708  -0.48019  -0.47998  -0.44756  -0.43998
 Alpha  occ. eigenvalues --   -0.37184  -0.36374  -0.36199  -0.35450
 Alpha virt. eigenvalues --    0.05153   0.05953   0.11457   0.12132   0.16681
 Alpha virt. eigenvalues --    0.17449   0.20657   0.22283   0.25667   0.27840
 Alpha virt. eigenvalues --    0.28393   0.29565   0.30719   0.31627   0.32335

 Mulliken charges:
               1
     1  C   -0.170200
     2  C   -0.218866
     3  C   -0.170045
     4  C    0.157554
     5  C   -0.166221
     6  C   -0.219477
     7  H    0.225240
     8  H    0.223051
     9  H    0.275368
    10  H    0.275086
    11  H    0.222718
    12  N    0.493604
    13  O   -0.468687
    14  O   -0.459329
    15  C   -0.169786
    16  C   -0.217931
    17  C   -0.159462
    18  C    0.174358
    19  C   -0.167184
    20  C   -0.217390
    21  H    0.221910
    22  H    0.216401
    23  H    0.262441
    24  H    0.274405
    25  H    0.220844
    26  N    0.492206
    27  O   -0.460522
    28  O   -0.470087
 Sum of Mulliken charges =  -0.00000

 Dipole moment (field-independent basis, Debye):
    X=              2.2418    Y=             -5.2368    Z=             -2.1872  Tot=              6.1019
 Quadrupole moment (field-independent basis, Debye-Ang):
   XX=            -71.4982   YY=           -108.8785   ZZ=           -104.7358
   XY=             10.1546   XZ=             -9.7624   YZ=              4.3809

 Normal termination of Gaussian 16 at Fri May  7 08:07:41 2021.
