 Gaussian 16, Revision A.03,
 Gaussian 16:  EM64L-G16RevA.03 25-Dec-2016

 -------------
 #p 6-31g* mp2
 -------------

 ------------------------------------------------------
 Input file generated by CHIRIPA (05-May-2021 14:53:16)
 ------------------------------------------------------
 Symbolic Z-matrix:
 Charge =  0 Multiplicity = 1

                         Standard orientation:
 ---------------------------------------------------------------------
 Center     Atomic      Atomic             Coordinates (Angstroms)
 Number     Number       Type             X           Y           Z
 ---------------------------------------------------------------------
      1          6           0        4.035938    0.143509   -0.386781
      2          6           0        5.354601    0.913730   -0.310164
      3          6           0        5.869612    1.342274   -1.684539
      4          1           0        4.172670   -0.742783   -1.021396
      5          1           0        3.281773    0.769921   -0.883005
      6          1           0        6.105676    0.286575    0.187008
      7          1           0        5.214765    1.798189    0.324498
      8          1           0        5.141176    1.988843   -2.184468
      9          1           0        6.037148    0.468641   -2.322739
     10          1           0        6.813189    1.891289   -1.606399
     11          6           0        3.508312   -0.291707    0.979208
     12          6           0        2.189648   -1.061929    0.902591
     13          6           0        1.674637   -1.490472    2.276967
     14          1           0        4.262477   -0.918119    1.475432
     15          1           0        3.371580    0.594585    1.613823
     16          1           0        2.329484   -1.946387    0.267930
     17          1           0        1.438574   -0.434774    0.405420
     18          1           0        1.507102   -0.616840    2.915167
     19          1           0        2.403074   -2.137042    2.776896
     20          1           0        0.731061   -2.039487    2.198826
     21          6           0       -4.024414    2.188561    0.584234
     22          6           0       -2.660495    1.966436    0.800821
     23          6           0       -2.052949    0.789520    0.353269
     24          6           0       -2.842809   -0.148095   -0.310271
     25          6           0       -4.204042    0.044194   -0.541268
     26          6           0       -4.790484    1.228423   -0.084940
     27          1           0       -4.488173    3.105658    0.935311
     28          1           0       -2.063095    2.710336    1.320216
     29          1           0       -0.999103    0.591954    0.507526
     30          1           0       -4.773632   -0.715873   -1.062121
     31          1           0       -5.849935    1.398243   -0.254551
     32          7           0       -2.210799   -1.397916   -0.788719
     33          8           0       -2.928559   -2.208328   -1.370688
     34          8           0       -1.009636   -1.543445   -0.572700
 ---------------------------------------------------------------------

 SCF Done:  E(RHF) =  -669.535642454     A.U. after   15 cycles
 E2 =    -0.2091866616D+01 EUMP2 =    -0.67162750907065D+03

 The electronic state is 1-A.
 Alpha  occ. eigenvalues --  -20.60879 -20.60871 -15.85914 -11.31256 -11.27823
 Alpha  occ. eigenvalues --  -11.27819 -11.27564 -11.26835 -11.26826 -11.21321
 Alpha  occ. eigenvalues --  -11.20987 -11.20896 -11.20833 -11.20792 -11.20439
 Alpha  occ. eigenvalues --   -1.59946  -1.39500  -1.19428  -1.08829  -1.07972
 Alpha  occ. eigenvalues --   -1.04828  -1.03046  -0.95678  -0.95517  -0.86551
 Alpha  occ. eigenvalues --   -0.86228  -0.82505  -0.79112  -0.77818  -0.77476
 Alpha  occ. eigenvalues --   -0.72137  -0.71260  -0.70539  -0.65087  -0.64856
 Alpha  occ. eigenvalues --   -0.64605  -0.62190  -0.60458  -0.58872  -0.57083
 Alpha  occ. eigenvalues --   -0.55333  -0.54854  -0.53158  -0.52920  -0.52203
 Alpha  occ. eigenvalues --   -0.51943  -0.49515  -0.48911  -0.48894  -0.47402
 Alpha  occ. eigenvalues --   -0.46148  -0.45286  -0.45220  -0.44893  -0.43302
 Alpha  occ. eigenvalues --   -0.37408  -0.36429
 Alpha virt. eigenvalues --    0.04965   0.11221   0.16456   0.20506   0.23026
 Alpha virt. eigenvalues --    0.24134   0.26380   0.27466   0.27613   0.28356
 Alpha virt. eigenvalues --    0.29093   0.30567   0.31548   0.32005   0.32505

 Mulliken charges:
               1
     1  C   -0.297063
     2  C   -0.299030
     3  C   -0.475305
     4  H    0.152680
     5  H    0.147197
     6  H    0.151807
     7  H    0.149140
     8  H    0.154036
     9  H    0.156264
    10  H    0.158813
    11  C   -0.298693
    12  C   -0.300128
    13  C   -0.479268
    14  H    0.148361
    15  H    0.142825
    16  H    0.160746
    17  H    0.157180
    18  H    0.144373
    19  H    0.153298
    20  H    0.170367
    21  C   -0.170214
    22  C   -0.221209
    23  C   -0.172605
    24  C    0.155412
    25  C   -0.170097
    26  C   -0.218931
    27  H    0.225883
    28  H    0.224111
    29  H    0.283743
    30  H    0.275769
    31  H    0.223685
    32  N    0.491563
    33  O   -0.459570
    34  O   -0.465140
 Sum of Mulliken charges =  -0.00000

 Dipole moment (field-independent basis, Debye):
    X=             -2.3896    Y=              4.2549    Z=              1.5724  Tot=              5.1270
 Quadrupole moment (field-independent basis, Debye-Ang):
   XX=            -78.7598   YY=            -95.3734   ZZ=            -97.1272
   XY=            -11.9317   XZ=             -2.1697   YZ=             -0.4466

 Normal termination of Gaussian 16 at Wed May  5 18:43:18 2021.
