 Gaussian 16, Revision A.03,
 Gaussian 16:  EM64L-G16RevA.03 25-Dec-2016

 -------------
 #p 6-31g* mp2
 -------------

 ------------------------------------------------------
 Input file generated by CHIRIPA (05-May-2021 14:53:14)
 ------------------------------------------------------
 Symbolic Z-matrix:
 Charge =  0 Multiplicity = 1

                         Standard orientation:
 ---------------------------------------------------------------------
 Center     Atomic      Atomic             Coordinates (Angstroms)
 Number     Number       Type             X           Y           Z
 ---------------------------------------------------------------------
      1          6           0       -2.981167    0.339183    0.957585
      2          6           0       -1.759409   -0.370647    1.541909
      3          6           0       -0.956967    0.519057    2.491806
      4          1           0       -2.652900    1.242982    0.426236
      5          1           0       -3.627927    0.677125    1.779104
      6          1           0       -1.115834   -0.708366    0.719490
      7          1           0       -2.090605   -1.272965    2.071766
      8          1           0       -1.578924    0.845455    3.331589
      9          1           0       -0.598614    1.413261    1.971630
     10          1           0       -0.088132   -0.008241    2.897939
     11          6           0       -3.793525   -0.537371    0.006031
     12          6           0       -5.015283    0.172459   -0.578292
     13          6           0       -5.817726   -0.717246   -1.528190
     14          1           0       -3.146766   -0.875314   -0.815487
     15          1           0       -4.121793   -1.441171    0.537380
     16          1           0       -4.684087    1.074776   -1.108149
     17          1           0       -5.658858    0.510178    0.244127
     18          1           0       -6.176078   -1.611450   -1.008013
     19          1           0       -5.195768   -1.043644   -2.367972
     20          1           0       -6.686560   -0.189948   -1.934322
     21          6           0        3.759698   -2.162225   -0.044129
     22          6           0        2.402176   -2.097555   -0.374995
     23          6           0        1.774904   -0.862119   -0.561474
     24          6           0        2.538731    0.293937   -0.408537
     25          6           0        3.892965    0.262302   -0.079388
     26          6           0        4.499456   -0.984167    0.102360
     27          1           0        4.238907   -3.126227    0.098894
     28          1           0        1.825193   -3.010815   -0.489407
     29          1           0        0.725455   -0.783115   -0.818061
     30          1           0        4.442023    1.189908    0.027854
     31          1           0        5.553883   -1.031357    0.359268
     32          7           0        1.885666    1.607679   -0.603449
     33          8           0        2.580641    2.611626   -0.462963
     34          8           0        0.691184    1.608566   -0.893017
 ---------------------------------------------------------------------

 SCF Done:  E(RHF) =  -669.535986198     A.U. after   15 cycles
 E2 =    -0.2092415251D+01 EUMP2 =    -0.67162840144894D+03

 The electronic state is 1-A.
 Alpha  occ. eigenvalues --  -20.60927 -20.60922 -15.85956 -11.31260 -11.27820
 Alpha  occ. eigenvalues --  -11.27811 -11.27556 -11.26829 -11.26818 -11.21339
 Alpha  occ. eigenvalues --  -11.21264 -11.21078 -11.20868 -11.20827 -11.20592
 Alpha  occ. eigenvalues --   -1.59983  -1.39540  -1.19427  -1.08833  -1.08060
 Alpha  occ. eigenvalues --   -1.04824  -1.03185  -0.95687  -0.95610  -0.86637
 Alpha  occ. eigenvalues --   -0.86226  -0.82515  -0.79274  -0.77897  -0.77563
 Alpha  occ. eigenvalues --   -0.72182  -0.71296  -0.70547  -0.65088  -0.64894
 Alpha  occ. eigenvalues --   -0.64618  -0.62202  -0.60543  -0.59002  -0.57248
 Alpha  occ. eigenvalues --   -0.55334  -0.54878  -0.53149  -0.52926  -0.52337
 Alpha  occ. eigenvalues --   -0.52044  -0.49538  -0.48942  -0.48932  -0.47586
 Alpha  occ. eigenvalues --   -0.46288  -0.45453  -0.45321  -0.44899  -0.43435
 Alpha  occ. eigenvalues --   -0.37401  -0.36409
 Alpha virt. eigenvalues --    0.04923   0.11164   0.16428   0.20616   0.23114
 Alpha virt. eigenvalues --    0.24463   0.25762   0.27416   0.27850   0.28277
 Alpha virt. eigenvalues --    0.29204   0.30884   0.31579   0.32026   0.32217

 Mulliken charges:
               1
     1  C   -0.301154
     2  C   -0.296699
     3  C   -0.481819
     4  H    0.164582
     5  H    0.147921
     6  H    0.143180
     7  H    0.147073
     8  H    0.154044
     9  H    0.169848
    10  H    0.154350
    11  C   -0.297224
    12  C   -0.300091
    13  C   -0.475514
    14  H    0.145918
    15  H    0.146124
    16  H    0.156264
    17  H    0.151473
    18  H    0.153270
    19  H    0.154329
    20  H    0.160178
    21  C   -0.170600
    22  C   -0.219872
    23  C   -0.171036
    24  C    0.158109
    25  C   -0.170743
    26  C   -0.218456
    27  H    0.225944
    28  H    0.224172
    29  H    0.279532
    30  H    0.275718
    31  H    0.223724
    32  N    0.488426
    33  O   -0.458802
    34  O   -0.462170
 Sum of Mulliken charges =  -0.00000

 Dipole moment (field-independent basis, Debye):
    X=              2.4050    Y=             -4.4476    Z=              0.6313  Tot=              5.0955
 Quadrupole moment (field-independent basis, Debye-Ang):
   XX=            -79.6353   YY=            -96.9783   ZZ=            -96.1454
   XY=             -9.6153   XZ=              0.9662   YZ=              2.1329

 Normal termination of Gaussian 16 at Thu May  6 05:50:16 2021.
