 Gaussian 16, Revision A.03,
 Gaussian 16:  EM64L-G16RevA.03 25-Dec-2016

 -------------
 #p 6-31g* mp2
 -------------

 ------------------------------------------------------
 Input file generated by CHIRIPA (05-May-2021 14:57:20)
 ------------------------------------------------------
 Symbolic Z-matrix:
 Charge =  0 Multiplicity = 1

                         Standard orientation:
 ---------------------------------------------------------------------
 Center     Atomic      Atomic             Coordinates (Angstroms)
 Number     Number       Type             X           Y           Z
 ---------------------------------------------------------------------
      1          6           0        3.671707    2.131868    0.704796
      2          6           0        2.982072    1.917869   -0.493173
      3          6           0        2.651912    0.621903   -0.900619
      4          6           0        3.028572   -0.441755   -0.082053
      5          6           0        3.716223   -0.260922    1.116999
      6          6           0        4.035940    1.043707    1.504648
      7          1           0        3.924127    3.141970    1.013621
      8          1           0        2.697931    2.761053   -1.116351
      9          1           0        2.118506    0.427663   -1.823206
     10          1           0        3.986053   -1.121430    1.717111
     11          1           0        4.571570    1.206907    2.435514
     12          7           0        2.684574   -1.818322   -0.502919
     13          8           0        3.027737   -2.738536    0.236055
     14          8           0        2.078299   -1.950996   -1.563799
     15          6           0       -1.943730    2.387729   -0.571732
     16          6           0       -1.243152    1.180909   -0.668148
     17          6           0       -1.865580   -0.029019   -0.346892
     18          6           0       -3.195626    0.004817    0.069189
     19          6           0       -3.920310    1.190926    0.175348
     20          6           0       -3.277722    2.388884   -0.151033
     21          1           0       -1.452383    3.322981   -0.823282
     22          1           0       -0.207069    1.176989   -0.994584
     23          1           0       -1.346758   -0.977661   -0.412624
     24          1           0       -4.952196    1.162978    0.503749
     25          1           0       -3.824268    3.324610   -0.075221
     26          7           0       -3.865234   -1.269744    0.412002
     27          8           0       -5.037794   -1.213039    0.776041
     28          8           0       -3.204834   -2.301314    0.310167
 ---------------------------------------------------------------------

 SCF Done:  E(RHF) =  -868.336590217     A.U. after   16 cycles
 E2 =    -0.2601183268D+01 EUMP2 =    -0.87093777348484D+03

 The electronic state is 1-A.
 Alpha  occ. eigenvalues --  -20.61444 -20.61407 -20.60513 -20.60485 -15.86482
 Alpha  occ. eigenvalues --  -15.85558 -11.32016 -11.31032 -11.28666 -11.28513
 Alpha  occ. eigenvalues --  -11.28305 -11.27704 -11.27649 -11.27558 -11.27549
 Alpha  occ. eigenvalues --  -11.27477 -11.26713 -11.26663  -1.60498  -1.59578
 Alpha  occ. eigenvalues --   -1.40048  -1.39125  -1.20193  -1.19235  -1.09538
 Alpha  occ. eigenvalues --   -1.08631  -1.05632  -1.04648  -0.96354  -0.95435
 Alpha  occ. eigenvalues --   -0.87005  -0.86060  -0.83187  -0.82261  -0.78229
 Alpha  occ. eigenvalues --   -0.77269  -0.72684  -0.71833  -0.71772  -0.71280
 Alpha  occ. eigenvalues --   -0.70905  -0.70374  -0.65841  -0.65624  -0.64892
 Alpha  occ. eigenvalues --   -0.64702  -0.62980  -0.61962  -0.56073  -0.55222
 Alpha  occ. eigenvalues --   -0.53966  -0.53711  -0.52983  -0.52683  -0.49460
 Alpha  occ. eigenvalues --   -0.49437  -0.48551  -0.48517  -0.45413  -0.44506
 Alpha  occ. eigenvalues --   -0.38144  -0.37312  -0.37175  -0.36238
 Alpha virt. eigenvalues --    0.04264   0.05257   0.10346   0.11384   0.15693
 Alpha virt. eigenvalues --    0.16698   0.19832   0.21935   0.25547   0.27021
 Alpha virt. eigenvalues --    0.28171   0.28888   0.30184   0.30956   0.32415

 Mulliken charges:
               1
     1  C   -0.169997
     2  C   -0.218860
     3  C   -0.181322
     4  C    0.160271
     5  C   -0.169428
     6  C   -0.216882
     7  H    0.227888
     8  H    0.221558
     9  H    0.273218
    10  H    0.279702
    11  H    0.227365
    12  N    0.487475
    13  O   -0.453473
    14  O   -0.462042
    15  C   -0.173104
    16  C   -0.219425
    17  C   -0.174306
    18  C    0.158551
    19  C   -0.171093
    20  C   -0.218630
    21  H    0.219939
    22  H    0.220755
    23  H    0.284762
    24  H    0.275385
    25  H    0.221880
    26  N    0.487605
    27  O   -0.462205
    28  O   -0.455587
 Sum of Mulliken charges =  -0.00000

 Dipole moment (field-independent basis, Debye):
    X=              3.8490    Y=              9.0943    Z=              0.4688  Tot=              9.8864
 Quadrupole moment (field-independent basis, Debye-Ang):
   XX=           -107.9804   YY=           -108.1113   ZZ=           -102.6230
   XY=             -3.2863   XZ=             10.1043   YZ=             -1.6828

 Normal termination of Gaussian 16 at Thu May  6 09:36:35 2021.
