 Gaussian 16, Revision A.03,
 Gaussian 16:  EM64L-G16RevA.03 25-Dec-2016

 -------------
 #p 6-31g* mp2
 -------------

 ------------------------------------------------------
 Input file generated by CHIRIPA (05-May-2021 14:55:18)
 ------------------------------------------------------
 Symbolic Z-matrix:
 Charge =  0 Multiplicity = 1

                         Standard orientation:
 ---------------------------------------------------------------------
 Center     Atomic      Atomic             Coordinates (Angstroms)
 Number     Number       Type             X           Y           Z
 ---------------------------------------------------------------------
      1          6           0       -0.941188   -1.482773    1.196318
      2          6           0       -2.256751   -1.626138    1.649375
      3          6           0       -3.313593   -1.018590    0.964890
      4          6           0       -3.017448   -0.271458   -0.174137
      5          6           0       -1.717314   -0.110065   -0.650471
      6          6           0       -0.676135   -0.726528    0.049863
      7          1           0       -0.126291   -1.958194    1.734199
      8          1           0       -2.465560   -2.212862    2.539430
      9          1           0       -4.341407   -1.113205    1.293621
     10          1           0       -1.540414    0.480984   -1.540856
     11          1           0        0.344569   -0.613473   -0.304294
     12          7           0       -4.127988    0.376445   -0.907159
     13          8           0       -3.840700    1.029457   -1.907998
     14          8           0       -5.264690    0.218991   -0.466984
     15          6           0        3.159837    0.683458    0.637888
     16          6           0        2.430980    2.004493    0.389654
     17          6           0        1.497985    2.389765    1.538078
     18          1           0        2.419267   -0.112965    0.793486
     19          1           0        3.736570    0.760447    1.570007
     20          1           0        1.856894    1.925506   -0.542441
     21          1           0        3.173372    2.797828    0.234438
     22          1           0        2.059771    2.496016    2.471731
     23          1           0        0.735814    1.618737    1.690437
     24          1           0        0.987213    3.337208    1.339775
     25          6           0        4.096272    0.284837   -0.501374
     26          6           0        4.825128   -1.036199   -0.253141
     27          6           0        5.758124   -1.421470   -1.401564
     28          1           0        3.519539    0.207847   -1.433494
     29          1           0        4.836842    1.081261   -0.656973
     30          1           0        4.082737   -1.829533   -0.097924
     31          1           0        5.399214   -0.957211    0.678955
     32          1           0        6.520294   -0.650442   -1.553924
     33          1           0        5.196338   -1.527721   -2.335217
     34          1           0        6.268896   -2.368913   -1.203261
 ---------------------------------------------------------------------

 SCF Done:  E(RHF) =  -669.535320578     A.U. after   15 cycles
 E2 =    -0.2092571008D+01 EUMP2 =    -0.67162789158621D+03

 The electronic state is 1-A.
 Alpha  occ. eigenvalues --  -20.60788 -20.60783 -15.85842 -11.31228 -11.27801
 Alpha  occ. eigenvalues --  -11.27796 -11.27554 -11.26815 -11.26800 -11.22394
 Alpha  occ. eigenvalues --  -11.22377 -11.22335 -11.22205 -11.21684 -11.21579
 Alpha  occ. eigenvalues --   -1.59863  -1.39416  -1.19407  -1.09274  -1.08797
 Alpha  occ. eigenvalues --   -1.04816  -1.04244  -0.96683  -0.95628  -0.87694
 Alpha  occ. eigenvalues --   -0.86214  -0.82458  -0.80313  -0.79099  -0.77504
 Alpha  occ. eigenvalues --   -0.72061  -0.71186  -0.70511  -0.66072  -0.65058
 Alpha  occ. eigenvalues --   -0.64728  -0.62219  -0.61561  -0.60047  -0.58296
 Alpha  occ. eigenvalues --   -0.55996  -0.55306  -0.53328  -0.53200  -0.53045
 Alpha  occ. eigenvalues --   -0.52888  -0.50618  -0.48825  -0.48814  -0.48610
 Alpha  occ. eigenvalues --   -0.47366  -0.46612  -0.46570  -0.44817  -0.44535
 Alpha  occ. eigenvalues --   -0.37374  -0.36392
 Alpha virt. eigenvalues --    0.05028   0.11122   0.16481   0.18784   0.22839
 Alpha virt. eigenvalues --    0.23826   0.25228   0.25657   0.27096   0.28301
 Alpha virt. eigenvalues --    0.29367   0.30867   0.31027   0.31255   0.31779

 Mulliken charges:
               1
     1  C   -0.173498
     2  C   -0.218278
     3  C   -0.170797
     4  C    0.158827
     5  C   -0.171966
     6  C   -0.221535
     7  H    0.226393
     8  H    0.223820
     9  H    0.275891
    10  H    0.275916
    11  H    0.231290
    12  N    0.488039
    13  O   -0.460228
    14  O   -0.460255
    15  C   -0.300840
    16  C   -0.300480
    17  C   -0.480073
    18  H    0.137336
    19  H    0.154306
    20  H    0.147658
    21  H    0.156856
    22  H    0.155569
    23  H    0.157425
    24  H    0.164817
    25  C   -0.299426
    26  C   -0.299117
    27  C   -0.476113
    28  H    0.147542
    29  H    0.154457
    30  H    0.147112
    31  H    0.153889
    32  H    0.157451
    33  H    0.155975
    34  H    0.162037
 Sum of Mulliken charges =  -0.00000

 Dipole moment (field-independent basis, Debye):
    X=              4.0189    Y=             -2.2194    Z=              2.5933  Tot=              5.2728
 Quadrupole moment (field-independent basis, Debye-Ang):
   XX=           -115.6658   YY=            -93.1718   ZZ=            -94.2115
   XY=              8.1545   XZ=            -10.2325   YZ=             -1.8015

 Normal termination of Gaussian 16 at Thu May  6 06:04:21 2021.
