 Gaussian 16, Revision A.03,
 Gaussian 16:  EM64L-G16RevA.03 25-Dec-2016

 -------------
 #p 6-31g* mp2
 -------------

 ------------------------------------------------------
 Input file generated by CHIRIPA (05-May-2021 14:57:24)
 ------------------------------------------------------
 Symbolic Z-matrix:
 Charge =  0 Multiplicity = 1

                         Standard orientation:
 ---------------------------------------------------------------------
 Center     Atomic      Atomic             Coordinates (Angstroms)
 Number     Number       Type             X           Y           Z
 ---------------------------------------------------------------------
      1          6           0       -1.245123   -1.452766    0.474446
      2          6           0       -2.418696   -1.934049    1.064033
      3          6           0       -3.639051   -1.287268    0.847341
      4          6           0       -3.649430   -0.156750    0.031797
      5          6           0       -2.497192    0.347071   -0.569701
      6          6           0       -1.288041   -0.315747   -0.339105
      7          1           0       -0.301474   -1.961430    0.648178
      8          1           0       -2.388361   -2.816859    1.696309
      9          1           0       -4.562612   -1.638414    1.291358
     10          1           0       -2.558989    1.229363   -1.195129
     11          1           0       -0.378203    0.060272   -0.798289
     12          7           0       -4.935435    0.536456   -0.204965
     13          8           0       -4.917937    1.530532   -0.927560
     14          8           0       -5.936554    0.072590    0.336539
     15          6           0        2.677415    2.605846    0.509454
     16          6           0        3.700261    1.999338    1.245969
     17          6           0        4.129448    0.706043    0.933342
     18          6           0        3.510962    0.045275   -0.126917
     19          6           0        2.489409    0.622687   -0.879456
     20          6           0        2.076313    1.916800   -0.549042
     21          1           0        2.350262    3.610826    0.759219
     22          1           0        4.168897    2.532078    2.068534
     23          1           0        4.919125    0.212798    1.487001
     24          1           0        2.041344    0.066533   -1.693918
     25          1           0        1.281730    2.385337   -1.122762
     26          7           0        3.956805   -1.324311   -0.467296
     27          8           0        3.395796   -1.885265   -1.406039
     28          8           0        4.858824   -1.810906    0.211102
 ---------------------------------------------------------------------

 SCF Done:  E(RHF) =  -868.337175857     A.U. after   16 cycles
 E2 =    -0.2600835035D+01 EUMP2 =    -0.87093801089254D+03

 The electronic state is 1-A.
 Alpha  occ. eigenvalues --  -20.61713 -20.61691 -20.60937 -20.60925 -15.86759
 Alpha  occ. eigenvalues --  -15.85988 -11.32189 -11.31332 -11.28813 -11.28686
 Alpha  occ. eigenvalues --  -11.28407 -11.27954 -11.27875 -11.27801 -11.27678
 Alpha  occ. eigenvalues --  -11.27571 -11.26915 -11.26847  -1.60784  -1.60010
 Alpha  occ. eigenvalues --   -1.40334  -1.39565  -1.20351  -1.19498  -1.09707
 Alpha  occ. eigenvalues --   -1.08879  -1.05777  -1.04912  -0.96543  -0.95721
 Alpha  occ. eigenvalues --   -0.87140  -0.86308  -0.83386  -0.82568  -0.78452
 Alpha  occ. eigenvalues --   -0.77631  -0.72965  -0.72207  -0.72121  -0.71415
 Alpha  occ. eigenvalues --   -0.71334  -0.70567  -0.66006  -0.65745  -0.65146
 Alpha  occ. eigenvalues --   -0.64963  -0.63135  -0.62231  -0.56186  -0.55351
 Alpha  occ. eigenvalues --   -0.54116  -0.53842  -0.53219  -0.52954  -0.49734
 Alpha  occ. eigenvalues --   -0.49721  -0.48966  -0.48958  -0.45725  -0.44976
 Alpha  occ. eigenvalues --   -0.38284  -0.37504  -0.37307  -0.36501
 Alpha virt. eigenvalues --    0.04046   0.04920   0.10222   0.11139   0.15430
 Alpha virt. eigenvalues --    0.16438   0.19410   0.21962   0.25202   0.27013
 Alpha virt. eigenvalues --    0.28003   0.28941   0.30175   0.31166   0.31983

 Mulliken charges:
               1
     1  C   -0.172247
     2  C   -0.218665
     3  C   -0.170883
     4  C    0.158877
     5  C   -0.173905
     6  C   -0.218189
     7  H    0.231563
     8  H    0.225598
     9  H    0.276151
    10  H    0.271419
    11  H    0.219198
    12  N    0.488159
    13  O   -0.462149
    14  O   -0.459503
    15  C   -0.169727
    16  C   -0.217453
    17  C   -0.170671
    18  C    0.157501
    19  C   -0.180958
    20  C   -0.217277
    21  H    0.230782
    22  H    0.227773
    23  H    0.278390
    24  H    0.273531
    25  H    0.223798
    26  N    0.487077
    27  O   -0.461464
    28  O   -0.456726
 Sum of Mulliken charges =  -0.00000

 Dipole moment (field-independent basis, Debye):
    X=              3.2283    Y=              2.4051    Z=              2.2444  Tot=              4.6091
 Quadrupole moment (field-independent basis, Debye-Ang):
   XX=           -145.6857   YY=           -101.7691   ZZ=           -101.5309
   XY=             27.7575   XZ=              3.0974   YZ=             -2.7578

 Normal termination of Gaussian 16 at Fri May  7 09:32:46 2021.
