 Gaussian 16, Revision A.03,
 Gaussian 16:  EM64L-G16RevA.03 25-Dec-2016

 -------------
 #p 6-31g* mp2
 -------------

 ------------------------------------------------------
 Input file generated by CHIRIPA (05-May-2021 14:53:12)
 ------------------------------------------------------
 Symbolic Z-matrix:
 Charge =  0 Multiplicity = 1

                         Standard orientation:
 ---------------------------------------------------------------------
 Center     Atomic      Atomic             Coordinates (Angstroms)
 Number     Number       Type             X           Y           Z
 ---------------------------------------------------------------------
      1          6           0       -3.621685   -0.680233   -0.102634
      2          6           0       -3.000178   -1.464787   -1.258570
      3          6           0       -3.191374   -2.975258   -1.118149
      4          1           0       -3.178910   -1.020941    0.843312
      5          1           0       -4.694467   -0.911339   -0.046742
      6          1           0       -1.929160   -1.231207   -1.313131
      7          1           0       -3.444346   -1.122038   -2.201890
      8          1           0       -4.256259   -3.227455   -1.086232
      9          1           0       -2.732463   -3.337245   -0.192423
     10          1           0       -2.739447   -3.516657   -1.955112
     11          6           0       -3.438800    0.831181   -0.228771
     12          6           0       -4.060307    1.615736    0.927165
     13          6           0       -3.869111    3.126206    0.786744
     14          1           0       -2.366018    1.062288   -0.284663
     15          1           0       -3.881575    1.171889   -1.174716
     16          1           0       -3.616138    1.272986    1.870485
     17          1           0       -5.131325    1.382155    0.981726
     18          1           0       -4.328021    3.488193   -0.138981
     19          1           0       -2.804226    3.378403    0.754828
     20          1           0       -4.321038    3.667606    1.623707
     21          6           0        1.269414   -1.699145    1.337692
     22          6           0        0.706036   -0.708158    0.527095
     23          6           0        1.521165    0.205953   -0.147082
     24          6           0        2.901913    0.099603    0.012647
     25          6           0        3.493257   -0.876544    0.813111
     26          6           0        2.658778   -1.780034    1.477865
     27          1           0        0.628687   -2.405123    1.857749
     28          1           0       -0.372638   -0.642957    0.416378
     29          1           0        1.111517    0.983025   -0.780933
     30          1           0        4.571951   -0.916435    0.903918
     31          1           0        3.099083   -2.548611    2.106724
     32          7           0        3.775096    1.061708   -0.696086
     33          8           0        4.988650    0.946818   -0.538851
     34          8           0        3.229409    1.912480   -1.395408
 ---------------------------------------------------------------------

 SCF Done:  E(RHF) =  -669.535251602     A.U. after   15 cycles
 E2 =    -0.2092115741D+01 EUMP2 =    -0.67162736734268D+03

 The electronic state is 1-A.
 Alpha  occ. eigenvalues --  -20.60761 -20.60756 -15.85815 -11.31188 -11.27763
 Alpha  occ. eigenvalues --  -11.27758 -11.27504 -11.26775 -11.26737 -11.22545
 Alpha  occ. eigenvalues --  -11.22367 -11.22297 -11.22240 -11.21921 -11.21551
 Alpha  occ. eigenvalues --   -1.59836  -1.39389  -1.19363  -1.09323  -1.08754
 Alpha  occ. eigenvalues --   -1.04770  -1.04307  -0.96751  -0.95589  -0.87761
 Alpha  occ. eigenvalues --   -0.86167  -0.82426  -0.80377  -0.79124  -0.77470
 Alpha  occ. eigenvalues --   -0.72033  -0.71160  -0.70473  -0.66145  -0.65015
 Alpha  occ. eigenvalues --   -0.64672  -0.62160  -0.61639  -0.60113  -0.58351
 Alpha  occ. eigenvalues --   -0.56057  -0.55265  -0.53409  -0.53165  -0.53085
 Alpha  occ. eigenvalues --   -0.52859  -0.50697  -0.48801  -0.48787  -0.48666
 Alpha  occ. eigenvalues --   -0.47435  -0.46625  -0.46598  -0.44793  -0.44589
 Alpha  occ. eigenvalues --   -0.37341  -0.36364
 Alpha virt. eigenvalues --    0.05060   0.11229   0.16490   0.18308   0.23082
 Alpha virt. eigenvalues --    0.23500   0.24839   0.25874   0.27021   0.28515
 Alpha virt. eigenvalues --    0.29585   0.30749   0.31164   0.31288   0.31814

 Mulliken charges:
               1
     1  C   -0.301519
     2  C   -0.304450
     3  C   -0.474546
     4  H    0.142950
     5  H    0.155613
     6  H    0.146820
     7  H    0.158297
     8  H    0.158823
     9  H    0.149656
    10  H    0.164530
    11  C   -0.299362
    12  C   -0.299926
    13  C   -0.476441
    14  H    0.141775
    15  H    0.155265
    16  H    0.150877
    17  H    0.154374
    18  H    0.157343
    19  H    0.156541
    20  H    0.162745
    21  C   -0.172477
    22  C   -0.226497
    23  C   -0.173729
    24  C    0.158904
    25  C   -0.170902
    26  C   -0.218396
    27  H    0.225679
    28  H    0.236087
    29  H    0.275548
    30  H    0.275687
    31  H    0.223450
    32  N    0.488091
    33  O   -0.460511
    34  O   -0.460299
 Sum of Mulliken charges =  -0.00000

 Dipole moment (field-independent basis, Debye):
    X=             -3.2801    Y=             -3.3565    Z=              2.4404  Tot=              5.2897
 Quadrupole moment (field-independent basis, Debye-Ang):
   XX=           -107.7628   YY=            -95.9372   ZZ=            -94.2118
   XY=            -12.5452   XZ=              9.8344   YZ=             -0.7935

 Normal termination of Gaussian 16 at Thu May  6 11:57:53 2021.
