 Gaussian 16, Revision A.03,
 Gaussian 16:  EM64L-G16RevA.03 25-Dec-2016

 -------------
 #p 6-31g* mp2
 -------------

 ------------------------------------------------------
 Input file generated by CHIRIPA (05-May-2021 14:53:15)
 ------------------------------------------------------
 Symbolic Z-matrix:
 Charge =  0 Multiplicity = 1

                         Standard orientation:
 ---------------------------------------------------------------------
 Center     Atomic      Atomic             Coordinates (Angstroms)
 Number     Number       Type             X           Y           Z
 ---------------------------------------------------------------------
      1          6           0        3.055748    0.827028    0.082757
      2          6           0        2.190313    1.684029   -0.841666
      3          6           0        1.033440    2.362502   -0.107422
      4          1           0        2.426039    0.064678    0.561540
      5          1           0        3.452370    1.457297    0.890746
      6          1           0        1.796565    1.052622   -1.648451
      7          1           0        2.822193    2.444307   -1.318450
      8          1           0        1.410896    3.015349    0.686252
      9          1           0        0.379441    1.615757    0.354376
     10          1           0        0.427771    2.970025   -0.787084
     11          6           0        4.216438    0.142231   -0.636673
     12          6           0        5.081873   -0.714770    0.287749
     13          6           0        6.238746   -1.393243   -0.446494
     14          1           0        3.819816   -0.488039   -1.444663
     15          1           0        4.846147    0.904581   -1.115456
     16          1           0        4.449993   -1.475048    0.764533
     17          1           0        5.475621   -0.083363    1.094535
     18          1           0        6.892745   -0.646498   -0.908292
     19          1           0        5.861290   -2.046090   -1.240168
     20          1           0        6.844415   -2.000766    0.233167
     21          6           0       -0.789343   -0.714603    1.646401
     22          6           0       -1.096006   -1.631727    0.635777
     23          6           0       -2.230030   -1.455574   -0.162664
     24          6           0       -3.039015   -0.346135    0.078123
     25          6           0       -2.760157    0.585129    1.077262
     26          6           0       -1.620931    0.388953    1.863535
     27          1           0        0.093615   -0.859221    2.261923
     28          1           0       -0.451991   -2.489682    0.464885
     29          1           0       -2.490977   -2.150130   -0.951914
     30          1           0       -3.421193    1.430694    1.223784
     31          1           0       -1.385240    1.102822    2.647681
     32          7           0       -4.242309   -0.149050   -0.760709
     33          8           0       -4.938943    0.836545   -0.528457
     34          8           0       -4.466033   -0.983902   -1.634555
 ---------------------------------------------------------------------

 SCF Done:  E(RHF) =  -669.534669712     A.U. after   15 cycles
 E2 =    -0.2093172852D+01 EUMP2 =    -0.67162784256411D+03

 The electronic state is 1-A.
 Alpha  occ. eigenvalues --  -20.60830 -20.60824 -15.85883 -11.31289 -11.27857
 Alpha  occ. eigenvalues --  -11.27837 -11.27591 -11.26890 -11.26848 -11.22159
 Alpha  occ. eigenvalues --  -11.22000 -11.21940 -11.21879 -11.21531 -11.21242
 Alpha  occ. eigenvalues --   -1.59904  -1.39456  -1.19472  -1.08945  -1.08851
 Alpha  occ. eigenvalues --   -1.04875  -1.03961  -0.96412  -0.95683  -0.87435
 Alpha  occ. eigenvalues --   -0.86265  -0.82508  -0.80040  -0.78768  -0.77547
 Alpha  occ. eigenvalues --   -0.72101  -0.71226  -0.70566  -0.65573  -0.65117
 Alpha  occ. eigenvalues --   -0.64864  -0.62209  -0.61380  -0.59782  -0.58044
 Alpha  occ. eigenvalues --   -0.55788  -0.55359  -0.53382  -0.53071  -0.52956
 Alpha  occ. eigenvalues --   -0.52689  -0.50318  -0.48863  -0.48854  -0.48342
 Alpha  occ. eigenvalues --   -0.47068  -0.46303  -0.46229  -0.44852  -0.44239
 Alpha  occ. eigenvalues --   -0.37375  -0.36429
 Alpha virt. eigenvalues --    0.04946   0.11115   0.16332   0.20605   0.22619
 Alpha virt. eigenvalues --    0.24027   0.25579   0.26685   0.26979   0.27989
 Alpha virt. eigenvalues --    0.28933   0.30614   0.31254   0.31571   0.31790

 Mulliken charges:
               1
     1  C   -0.297819
     2  C   -0.298157
     3  C   -0.486884
     4  H    0.140386
     5  H    0.149109
     6  H    0.153409
     7  H    0.153269
     8  H    0.150352
     9  H    0.164858
    10  H    0.162726
    11  C   -0.298511
    12  C   -0.299036
    13  C   -0.475864
    14  H    0.149972
    15  H    0.152316
    16  H    0.147090
    17  H    0.152407
    18  H    0.157000
    19  H    0.155594
    20  H    0.160839
    21  C   -0.171992
    22  C   -0.217998
    23  C   -0.170956
    24  C    0.159170
    25  C   -0.169065
    26  C   -0.220376
    27  H    0.227937
    28  H    0.223945
    29  H    0.276040
    30  H    0.276411
    31  H    0.225870
    32  N    0.488029
    33  O   -0.459886
    34  O   -0.460186
 Sum of Mulliken charges =  -0.00000

 Dipole moment (field-independent basis, Debye):
    X=              4.1779    Y=             -0.7087    Z=              2.9310  Tot=              5.1525
 Quadrupole moment (field-independent basis, Debye-Ang):
   XX=           -121.1431   YY=            -90.8113   ZZ=            -93.5826
   XY=              0.5145   XZ=             -9.1121   YZ=              1.2931

 Normal termination of Gaussian 16 at Thu May  6 15:30:38 2021.
