 Gaussian 16, Revision A.03,
 Gaussian 16:  EM64L-G16RevA.03 25-Dec-2016

 -------------
 #p 6-31g* mp2
 -------------

 ------------------------------------------------------
 Input file generated by CHIRIPA (05-May-2021 14:57:24)
 ------------------------------------------------------
 Symbolic Z-matrix:
 Charge =  0 Multiplicity = 1

                         Standard orientation:
 ---------------------------------------------------------------------
 Center     Atomic      Atomic             Coordinates (Angstroms)
 Number     Number       Type             X           Y           Z
 ---------------------------------------------------------------------
      1          6           0        2.371610    1.146699    0.827422
      2          6           0        2.422012   -0.213647    0.505804
      3          6           0        3.621626   -0.801962    0.094268
      4          6           0        4.756798    0.003281    0.015164
      5          6           0        4.738598    1.361431    0.328832
      6          6           0        3.528025    1.928519    0.738067
      7          1           0        1.435464    1.595471    1.146219
      8          1           0        1.525497   -0.823251    0.574281
      9          1           0        3.688896   -1.852623   -0.160689
     10          1           0        5.648849    1.943486    0.250901
     11          1           0        3.491843    2.985241    0.987213
     12          7           0        6.032576   -0.608305   -0.419293
     13          8           0        7.018683    0.122753   -0.480819
     14          8           0        6.022267   -1.807142   -0.690066
     15          6           0       -2.036862   -0.361367   -0.051100
     16          6           0       -2.619124    0.733964   -0.697430
     17          6           0       -4.008566    0.886671   -0.723500
     18          6           0       -4.789160   -0.079204   -0.090216
     19          6           0       -4.238863   -1.181521    0.561982
     20          6           0       -2.847162   -1.313934    0.575439
     21          1           0       -0.956632   -0.472110   -0.035748
     22          1           0       -1.992306    1.475296   -1.184845
     23          1           0       -4.485650    1.724923   -1.216592
     24          1           0       -4.889754   -1.904136    1.039044
     25          1           0       -2.397728   -2.165601    1.078149
     26          7           0       -6.261296    0.071717   -0.111138
     27          8           0       -6.927009   -0.793051    0.454230
     28          8           0       -6.721568    1.051919   -0.692509
 ---------------------------------------------------------------------

 SCF Done:  E(RHF) =  -868.336416623     A.U. after   16 cycles
 E2 =    -0.2599686743D+01 EUMP2 =    -0.87093610336644D+03

 The electronic state is 1-A.
 Alpha  occ. eigenvalues --  -20.61388 -20.61381 -20.61299 -20.61293 -15.86449
 Alpha  occ. eigenvalues --  -15.86356 -11.31972 -11.31872 -11.28617 -11.28540
 Alpha  occ. eigenvalues --  -11.28444 -11.28436 -11.28410 -11.28355 -11.27765
 Alpha  occ. eigenvalues --  -11.27577 -11.27550 -11.27538  -1.60460  -1.60370
 Alpha  occ. eigenvalues --   -1.40009  -1.39919  -1.20182  -1.20069  -1.09562
 Alpha  occ. eigenvalues --   -1.09464  -1.05617  -1.05484  -0.96360  -0.96269
 Alpha  occ. eigenvalues --   -0.87024  -0.86891  -0.83192  -0.83087  -0.78203
 Alpha  occ. eigenvalues --   -0.78083  -0.72665  -0.72573  -0.71785  -0.71694
 Alpha  occ. eigenvalues --   -0.71363  -0.71212  -0.65846  -0.65732  -0.65683
 Alpha  occ. eigenvalues --   -0.65476  -0.62968  -0.62819  -0.56181  -0.56063
 Alpha  occ. eigenvalues --   -0.53925  -0.53816  -0.53711  -0.53586  -0.49438
 Alpha  occ. eigenvalues --   -0.49407  -0.49344  -0.49317  -0.45379  -0.45291
 Alpha  occ. eigenvalues --   -0.38188  -0.38102  -0.37214  -0.37075
 Alpha virt. eigenvalues --    0.04354   0.04436   0.10360   0.10562   0.15789
 Alpha virt. eigenvalues --    0.15852   0.17585   0.21961   0.24558   0.26248
 Alpha virt. eigenvalues --    0.27424   0.29094   0.29584   0.31000   0.32075

 Mulliken charges:
               1
     1  C   -0.172644
     2  C   -0.222645
     3  C   -0.169405
     4  C    0.159243
     5  C   -0.169440
     6  C   -0.218225
     7  H    0.224064
     8  H    0.216824
     9  H    0.277424
    10  H    0.278477
    11  H    0.226285
    12  N    0.487924
    13  O   -0.458020
    14  O   -0.458986
    15  C   -0.175624
    16  C   -0.220250
    17  C   -0.169922
    18  C    0.159396
    19  C   -0.169945
    20  C   -0.219055
    21  H    0.220704
    22  H    0.223925
    23  H    0.277631
    24  H    0.277999
    25  H    0.223594
    26  N    0.487849
    27  O   -0.458464
    28  O   -0.458715
 Sum of Mulliken charges =  -0.00000

 Dipole moment (field-independent basis, Debye):
    X=              0.7284    Y=              1.6856    Z=              1.5862  Tot=              2.4265
 Quadrupole moment (field-independent basis, Debye-Ang):
   XX=           -194.9760   YY=            -97.3068   ZZ=           -104.8252
   XY=             15.4516   XZ=              6.4041   YZ=             -2.0133

 Normal termination of Gaussian 16 at Thu May  6 03:26:55 2021.
