 Gaussian 16, Revision A.03,
 Gaussian 16:  EM64L-G16RevA.03 25-Dec-2016

 -------------
 #p 6-31g* mp2
 -------------

 ------------------------------------------------------
 Input file generated by CHIRIPA (05-May-2021 14:55:18)
 ------------------------------------------------------
 Symbolic Z-matrix:
 Charge =  0 Multiplicity = 1

                         Standard orientation:
 ---------------------------------------------------------------------
 Center     Atomic      Atomic             Coordinates (Angstroms)
 Number     Number       Type             X           Y           Z
 ---------------------------------------------------------------------
      1          6           0       -0.545977   -1.397062    0.351696
      2          6           0       -1.578698   -2.022681   -0.354426
      3          6           0       -2.818687   -1.394493   -0.503940
      4          6           0       -2.992116   -0.135186    0.068214
      5          6           0       -1.982698    0.513932    0.777447
      6          6           0       -0.750912   -0.132981    0.914387
      7          1           0        0.414091   -1.892327    0.462958
      8          1           0       -1.422387   -3.004371   -0.792486
      9          1           0       -3.635399   -1.856061   -1.045562
     10          1           0       -2.168488    1.492655    1.202889
     11          1           0        0.049309    0.355269    1.463299
     12          7           0       -4.300495    0.539760   -0.083414
     13          8           0       -4.427982    1.649104    0.430141
     14          8           0       -5.173741   -0.053342   -0.712944
     15          6           0        3.304381   -0.401794   -0.201597
     16          6           0        4.338900   -1.453575    0.200290
     17          6           0        3.824976   -2.883505    0.030070
     18          1           0        2.396386   -0.540783    0.401040
     19          1           0        3.012908   -0.565487   -1.248327
     20          1           0        4.629362   -1.287094    1.245533
     21          1           0        5.244609   -1.311944   -0.403241
     22          1           0        3.552995   -3.073476   -1.013261
     23          1           0        2.934253   -3.048485    0.644881
     24          1           0        4.580474   -3.619189    0.323075
     25          6           0        3.803405    1.032644   -0.037005
     26          6           0        2.768886    2.084424   -0.438892
     27          6           0        3.282810    3.514355   -0.268671
     28          1           0        4.094878    1.196337    1.009725
     29          1           0        4.711400    1.171633   -0.639642
     30          1           0        1.863177    1.942794    0.164638
     31          1           0        2.478424    1.917944   -1.484135
     32          1           0        4.173534    3.679334   -0.883483
     33          1           0        3.554791    3.704325    0.774658
     34          1           0        2.527312    4.250039   -0.561677
 ---------------------------------------------------------------------

 SCF Done:  E(RHF) =  -669.534839587     A.U. after   15 cycles
 E2 =    -0.2092799195D+01 EUMP2 =    -0.67162763878240D+03

 The electronic state is 1-A.
 Alpha  occ. eigenvalues --  -20.60722 -20.60717 -15.85777 -11.31130 -11.27713
 Alpha  occ. eigenvalues --  -11.27707 -11.27401 -11.26711 -11.26695 -11.22619
 Alpha  occ. eigenvalues --  -11.22504 -11.22383 -11.22250 -11.22226 -11.21663
 Alpha  occ. eigenvalues --   -1.59799  -1.39352  -1.19306  -1.09405  -1.08695
 Alpha  occ. eigenvalues --   -1.04712  -1.04438  -0.96897  -0.95538  -0.87909
 Alpha  occ. eigenvalues --   -0.86113  -0.82378  -0.80506  -0.79229  -0.77420
 Alpha  occ. eigenvalues --   -0.71995  -0.71122  -0.70432  -0.66083  -0.64956
 Alpha  occ. eigenvalues --   -0.64687  -0.62077  -0.61828  -0.60270  -0.58499
 Alpha  occ. eigenvalues --   -0.56205  -0.55222  -0.53553  -0.53328  -0.53029
 Alpha  occ. eigenvalues --   -0.52810  -0.50849  -0.48829  -0.48751  -0.48731
 Alpha  occ. eigenvalues --   -0.47543  -0.46731  -0.46643  -0.44761  -0.44698
 Alpha  occ. eigenvalues --   -0.37254  -0.36309
 Alpha virt. eigenvalues --    0.05109   0.11237   0.16542   0.18868   0.21913
 Alpha virt. eigenvalues --    0.23040   0.25073   0.25885   0.26305   0.28074
 Alpha virt. eigenvalues --    0.29378   0.30587   0.31027   0.31433   0.32019

 Mulliken charges:
               1
     1  C   -0.173832
     2  C   -0.220746
     3  C   -0.170451
     4  C    0.157938
     5  C   -0.171298
     6  C   -0.220412
     7  H    0.232794
     8  H    0.223664
     9  H    0.275394
    10  H    0.275288
    11  H    0.224154
    12  N    0.488098
    13  O   -0.460650
    14  O   -0.460612
    15  C   -0.301529
    16  C   -0.300330
    17  C   -0.478595
    18  H    0.139892
    19  H    0.153486
    20  H    0.153952
    21  H    0.156920
    22  H    0.157097
    23  H    0.147577
    24  H    0.166329
    25  C   -0.299254
    26  C   -0.300804
    27  C   -0.476613
    28  H    0.149942
    29  H    0.153766
    30  H    0.146310
    31  H    0.155981
    32  H    0.157451
    33  H    0.155298
    34  H    0.163796
 Sum of Mulliken charges =  -0.00000

 Dipole moment (field-independent basis, Debye):
    X=              4.8513    Y=             -2.3287    Z=              0.4284  Tot=              5.3983
 Quadrupole moment (field-independent basis, Debye-Ang):
   XX=           -121.3367   YY=            -92.1798   ZZ=            -93.0011
   XY=              7.8386   XZ=             -0.8680   YZ=              2.0626

 Normal termination of Gaussian 16 at Thu May  6 04:28:30 2021.
