 Gaussian 16, Revision A.03,
 Gaussian 16:  EM64L-G16RevA.03 25-Dec-2016

 -------------
 #p 6-31g* mp2
 -------------

 ------------------------------------------------------
 Input file generated by CHIRIPA (05-May-2021 14:51:08)
 ------------------------------------------------------
 Symbolic Z-matrix:
 Charge =  0 Multiplicity = 1

                         Standard orientation:
 ---------------------------------------------------------------------
 Center     Atomic      Atomic             Coordinates (Angstroms)
 Number     Number       Type             X           Y           Z
 ---------------------------------------------------------------------
      1          6           0        2.956006   -0.269512   -0.299223
      2          6           0        4.433560   -0.301116   -0.691423
      3          6           0        4.657984   -0.831179   -2.107919
      4          1           0        2.539067   -1.282425   -0.383562
      5          1           0        2.406616    0.355400   -1.016894
      6          1           0        4.980235   -0.924660    0.027573
      7          1           0        4.847079    0.711956   -0.605956
      8          1           0        4.137974   -0.205288   -2.840349
      9          1           0        4.271887   -1.851203   -2.203219
     10          1           0        5.721110   -0.845197   -2.367583
     11          6           0        2.715526    0.258032    1.114140
     12          6           0        1.237972    0.289636    1.506339
     13          6           0        1.013549    0.819699    2.922836
     14          1           0        3.264916   -0.366879    1.831811
     15          1           0        3.132465    1.270945    1.198479
     16          1           0        0.824454   -0.723435    1.420873
     17          1           0        0.691297    0.913180    0.787343
     18          1           0        1.399645    1.839723    3.018136
     19          1           0        1.533558    0.193809    3.655265
     20          1           0       -0.049578    0.833718    3.182500
     21          6           0       -2.511511    0.676115   -0.237493
     22          6           0       -2.888523    1.795537   -1.208441
     23          6           0       -2.232026    3.130471   -0.855230
     24          1           0       -2.800039    0.970131    0.780962
     25          1           0       -1.419059    0.558207   -0.231132
     26          1           0       -3.980036    1.910367   -1.214005
     27          1           0       -2.599238    1.498742   -2.224729
     28          1           0       -1.141148    3.038786   -0.868665
     29          1           0       -2.529791    3.452750    0.147802
     30          1           0       -2.515145    3.916574   -1.562159
     31          6           0       -3.160021   -0.664636   -0.577423
     32          6           0       -2.783009   -1.784058    0.393525
     33          6           0       -3.439506   -3.118991    0.040314
     34          1           0       -4.252474   -0.546727   -0.583784
     35          1           0       -2.871494   -0.958652   -1.595878
     36          1           0       -3.072295   -1.487262    1.409813
     37          1           0       -1.691496   -1.898887    0.399089
     38          1           0       -3.141741   -3.441270   -0.962718
     39          1           0       -4.530384   -3.027307    0.053749
     40          1           0       -3.156388   -3.905094    0.747242
 ---------------------------------------------------------------------

 SCF Done:  E(RHF) =  -470.733140908     A.U. after   11 cycles
 E2 =    -0.1583494246D+01 EUMP2 =    -0.47231663515354D+03

 The electronic state is 1-A.
 Alpha  occ. eigenvalues --  -11.21632 -11.21595 -11.21589 -11.21583 -11.21439
 Alpha  occ. eigenvalues --  -11.21372 -11.21362 -11.21285 -11.21099 -11.21095
 Alpha  occ. eigenvalues --  -11.21063 -11.21056  -1.08468  -1.08396  -1.03549
 Alpha  occ. eigenvalues --   -1.03518  -0.95998  -0.95963  -0.87013  -0.86984
 Alpha  occ. eigenvalues --   -0.79650  -0.79569  -0.78400  -0.78084  -0.65124
 Alpha  occ. eigenvalues --   -0.65011  -0.61017  -0.60853  -0.59374  -0.59328
 Alpha  occ. eigenvalues --   -0.57657  -0.57527  -0.55294  -0.55247  -0.52697
 Alpha  occ. eigenvalues --   -0.52659  -0.52421  -0.52394  -0.49980  -0.49883
 Alpha  occ. eigenvalues --   -0.48037  -0.47900  -0.46815  -0.46484  -0.46148
 Alpha  occ. eigenvalues --   -0.45734  -0.45723  -0.45189  -0.43797  -0.43762
 Alpha virt. eigenvalues --    0.21009   0.23170   0.23404   0.24150   0.25341
 Alpha virt. eigenvalues --    0.26296   0.26688   0.27779   0.28290   0.29593
 Alpha virt. eigenvalues --    0.29837   0.31546   0.31777   0.31898   0.32136

 Mulliken charges:
               1
     1  C   -0.298317
     2  C   -0.299589
     3  C   -0.475748
     4  H    0.149281
     5  H    0.148564
     6  H    0.152147
     7  H    0.152120
     8  H    0.155109
     9  H    0.155151
    10  H    0.160428
    11  C   -0.297651
    12  C   -0.306632
    13  C   -0.475534
    14  H    0.149599
    15  H    0.149724
    16  H    0.153587
    17  H    0.156801
    18  H    0.155068
    19  H    0.154969
    20  H    0.161131
    21  C   -0.306118
    22  C   -0.299307
    23  C   -0.476237
    24  H    0.148742
    25  H    0.159254
    26  H    0.151857
    27  H    0.151666
    28  H    0.154368
    29  H    0.155445
    30  H    0.160421
    31  C   -0.297664
    32  C   -0.301840
    33  C   -0.475671
    34  H    0.149272
    35  H    0.149419
    36  H    0.151633
    37  H    0.154166
    38  H    0.155145
    39  H    0.155233
    40  H    0.160008
 Sum of Mulliken charges =  -0.00000

 Dipole moment (field-independent basis, Debye):
    X=              0.0168    Y=              0.0018    Z=              0.0115  Tot=              0.0204
 Quadrupole moment (field-independent basis, Debye-Ang):
   XX=            -84.4680   YY=            -85.0498   ZZ=            -85.3280
   XY=             -0.5726   XZ=             -0.1850   YZ=             -0.6867

 Normal termination of Gaussian 16 at Wed May  5 19:41:58 2021.
