 Gaussian 16, Revision A.03,
 Gaussian 16:  EM64L-G16RevA.03 25-Dec-2016

 -------------
 #p 6-31g* mp2
 -------------

 ------------------------------------------------------
 Input file generated by CHIRIPA (05-May-2021 14:51:12)
 ------------------------------------------------------
 Symbolic Z-matrix:
 Charge =  0 Multiplicity = 1

                         Standard orientation:
 ---------------------------------------------------------------------
 Center     Atomic      Atomic             Coordinates (Angstroms)
 Number     Number       Type             X           Y           Z
 ---------------------------------------------------------------------
      1          6           0        3.188341   -0.616847    0.519183
      2          6           0        2.222251   -1.599647   -0.143205
      3          6           0        1.910313   -2.808061    0.740099
      4          1           0        4.121043   -1.141117    0.768490
      5          1           0        2.757822   -0.275295    1.470703
      6          1           0        2.653842   -1.938184   -1.093856
      7          1           0        1.291813   -1.072931   -0.391137
      8          1           0        1.456628   -2.488531    1.683853
      9          1           0        2.826396   -3.358701    0.977142
     10          1           0        1.217937   -3.497617    0.247162
     11          6           0        3.509878    0.596474   -0.351560
     12          6           0        4.475968    1.579274    0.310828
     13          6           0        4.787906    2.787688   -0.572476
     14          1           0        3.940397    0.254922   -1.303080
     15          1           0        2.577176    1.120744   -0.600867
     16          1           0        5.406406    1.052558    0.558761
     17          1           0        4.044377    1.917811    1.261480
     18          1           0        3.871823    3.338327   -0.809518
     19          1           0        5.241592    2.468158   -1.516230
     20          1           0        5.480283    3.477244   -0.079538
     21          6           0       -3.351279   -0.721331   -0.303606
     22          6           0       -1.987642   -1.399485   -0.167272
     23          6           0       -2.008041   -2.862563   -0.610872
     24          1           0       -4.090486   -1.275844    0.290559
     25          1           0       -3.681016   -0.783642   -1.349926
     26          1           0       -1.659945   -1.334696    0.878210
     27          1           0       -1.251556   -0.843181   -0.761677
     28          1           0       -2.310366   -2.942833   -1.660042
     29          1           0       -2.721076   -3.437141   -0.010837
     30          1           0       -1.023102   -3.327924   -0.505068
     31          6           0       -3.346940    0.741704    0.135983
     32          6           0       -4.710577    1.419858   -0.000352
     33          6           0       -4.690178    2.882936    0.443249
     34          1           0       -3.017204    0.804015    1.182303
     35          1           0       -2.607733    1.296218   -0.458183
     36          1           0       -5.446664    0.863555    0.594054
     37          1           0       -5.038274    1.355070   -1.045833
     38          1           0       -3.977143    3.457513   -0.156787
     39          1           0       -4.387853    2.963206    1.492418
     40          1           0       -5.675118    3.348297    0.337444
 ---------------------------------------------------------------------

 SCF Done:  E(RHF) =  -470.732909199     A.U. after   11 cycles
 E2 =    -0.1583361445D+01 EUMP2 =    -0.47231627064346D+03

 The electronic state is 1-A.
 Alpha  occ. eigenvalues --  -11.21623 -11.21619 -11.21595 -11.21556 -11.21429
 Alpha  occ. eigenvalues --  -11.21393 -11.21368 -11.21332 -11.21092 -11.21068
 Alpha  occ. eigenvalues --  -11.21062 -11.21044  -1.08460  -1.08408  -1.03585
 Alpha  occ. eigenvalues --   -1.03480  -0.96044  -0.95923  -0.87057  -0.86945
 Alpha  occ. eigenvalues --   -0.79674  -0.79526  -0.78302  -0.78194  -0.65098
 Alpha  occ. eigenvalues --   -0.65034  -0.60984  -0.60905  -0.59703  -0.59101
 Alpha  occ. eigenvalues --   -0.57817  -0.57316  -0.55278  -0.55242  -0.52951
 Alpha  occ. eigenvalues --   -0.52546  -0.52477  -0.52168  -0.49958  -0.49890
 Alpha  occ. eigenvalues --   -0.48122  -0.47741  -0.46781  -0.46502  -0.45923
 Alpha  occ. eigenvalues --   -0.45749  -0.45735  -0.45515  -0.43920  -0.43633
 Alpha virt. eigenvalues --    0.20898   0.23119   0.23352   0.25283   0.25559
 Alpha virt. eigenvalues --    0.26525   0.26821   0.27348   0.28150   0.29113
 Alpha virt. eigenvalues --    0.29640   0.30596   0.31403   0.31822   0.32549

 Mulliken charges:
               1
     1  C   -0.297921
     2  C   -0.305931
     3  C   -0.478780
     4  H    0.149531
     5  H    0.149525
     6  H    0.151431
     7  H    0.158970
     8  H    0.155302
     9  H    0.155183
    10  H    0.162889
    11  C   -0.298241
    12  C   -0.299643
    13  C   -0.475705
    14  H    0.149436
    15  H    0.149391
    16  H    0.151948
    17  H    0.151990
    18  H    0.155124
    19  H    0.155129
    20  H    0.160255
    21  C   -0.298135
    22  C   -0.301807
    23  C   -0.481679
    24  H    0.149817
    25  H    0.149650
    26  H    0.152194
    27  H    0.153853
    28  H    0.154964
    29  H    0.155225
    30  H    0.166334
    31  C   -0.298267
    32  C   -0.299642
    33  C   -0.475724
    34  H    0.149338
    35  H    0.149254
    36  H    0.152063
    37  H    0.152046
    38  H    0.155120
    39  H    0.155134
    40  H    0.160376
 Sum of Mulliken charges =  -0.00000

 Dipole moment (field-independent basis, Debye):
    X=             -0.0110    Y=             -0.0032    Z=              0.0019  Tot=              0.0116
 Quadrupole moment (field-independent basis, Debye-Ang):
   XX=            -84.2845   YY=            -86.4746   ZZ=            -84.0580
   XY=             -0.4740   XZ=             -0.3589   YZ=              0.1072

 Normal termination of Gaussian 16 at Wed May  5 16:47:56 2021.
