 Gaussian 16, Revision A.03,
 Gaussian 16:  EM64L-G16RevA.03 25-Dec-2016

 -------------
 #p 6-31g* mp2
 -------------

 ------------------------------------------------------
 Input file generated by CHIRIPA (05-May-2021 14:55:22)
 ------------------------------------------------------
 Symbolic Z-matrix:
 Charge =  0 Multiplicity = 1

                         Standard orientation:
 ---------------------------------------------------------------------
 Center     Atomic      Atomic             Coordinates (Angstroms)
 Number     Number       Type             X           Y           Z
 ---------------------------------------------------------------------
      1          6           0        4.500894   -0.757129   -1.421651
      2          6           0        3.210585   -1.276951   -1.567968
      3          6           0        2.205915   -0.951537   -0.651839
      4          6           0        2.527912   -0.099594    0.403529
      5          6           0        3.803957    0.434394    0.576319
      6          6           0        4.792947    0.095382   -0.351860
      7          1           0        5.275255   -1.015201   -2.138002
      8          1           0        2.980904   -1.939260   -2.397810
      9          1           0        1.198599   -1.339781   -0.741278
     10          1           0        4.002686    1.092116    1.413772
     11          1           0        5.794137    0.500569   -0.235731
     12          7           0        1.472613    0.252106    1.379772
     13          8           0        1.781814    1.004780    2.300920
     14          8           0        0.356251   -0.231566    1.205319
     15          6           0       -3.940855   -0.273242    0.043095
     16          6           0       -3.640992   -1.749281   -0.220295
     17          6           0       -4.614813   -2.686960    0.494006
     18          1           0       -3.905594   -0.085874    1.125035
     19          1           0       -4.967720   -0.051702   -0.279189
     20          1           0       -2.614527   -1.967646    0.101115
     21          1           0       -3.676783   -1.933115   -1.301748
     22          1           0       -5.642152   -2.497856    0.166267
     23          1           0       -4.573862   -2.532583    1.577100
     24          1           0       -4.382129   -3.737151    0.291968
     25          6           0       -2.975851    0.676590   -0.664233
     26          6           0       -3.275714    2.152629   -0.400843
     27          6           0       -2.301893    3.090309   -1.115144
     28          1           0       -1.948986    0.455051   -0.341949
     29          1           0       -3.011112    0.489223   -1.746173
     30          1           0       -3.239923    2.336463    0.680609
     31          1           0       -4.302178    2.370995   -0.722252
     32          1           0       -2.342844    2.935931   -2.198237
     33          1           0       -1.274554    2.901204   -0.787405
     34          1           0       -2.534577    4.140499   -0.913105
 ---------------------------------------------------------------------

 SCF Done:  E(RHF) =  -669.536486302     A.U. after   15 cycles
 E2 =    -0.2091301387D+01 EUMP2 =    -0.67162778768873D+03

 The electronic state is 1-A.
 Alpha  occ. eigenvalues --  -20.61033 -20.61018 -15.86054 -11.31325 -11.27884
 Alpha  occ. eigenvalues --  -11.27880 -11.27615 -11.26882 -11.26872 -11.20830
 Alpha  occ. eigenvalues --  -11.20715 -11.20470 -11.20433 -11.20362 -11.20300
 Alpha  occ. eigenvalues --   -1.60084  -1.39642  -1.19491  -1.08905  -1.07526
 Alpha  occ. eigenvalues --   -1.04880  -1.02733  -0.95755  -0.95185  -0.86283
 Alpha  occ. eigenvalues --   -0.86212  -0.82591  -0.78801  -0.77668  -0.77324
 Alpha  occ. eigenvalues --   -0.72282  -0.71393  -0.70600  -0.65152  -0.64883
 Alpha  occ. eigenvalues --   -0.64115  -0.62228  -0.60118  -0.58568  -0.56809
 Alpha  occ. eigenvalues --   -0.55388  -0.54457  -0.53214  -0.52971  -0.51928
 Alpha  occ. eigenvalues --   -0.51633  -0.49134  -0.49044  -0.49018  -0.47137
 Alpha  occ. eigenvalues --   -0.45826  -0.45236  -0.44894  -0.44525  -0.42952
 Alpha  occ. eigenvalues --   -0.37467  -0.36478
 Alpha virt. eigenvalues --    0.04839   0.11175   0.16313   0.21126   0.23668
 Alpha virt. eigenvalues --    0.25057   0.26300   0.27443   0.27873   0.28630
 Alpha virt. eigenvalues --    0.29123   0.31130   0.32059   0.32351   0.32565

 Mulliken charges:
               1
     1  C   -0.170427
     2  C   -0.218549
     3  C   -0.170667
     4  C    0.157835
     5  C   -0.170737
     6  C   -0.218569
     7  H    0.226181
     8  H    0.224209
     9  H    0.276250
    10  H    0.275849
    11  H    0.223949
    12  N    0.490702
    13  O   -0.458226
    14  O   -0.463550
    15  C   -0.296174
    16  C   -0.301662
    17  C   -0.475195
    18  H    0.154840
    19  H    0.144562
    20  H    0.158841
    21  H    0.145609
    22  H    0.152787
    23  H    0.157393
    24  H    0.156351
    25  C   -0.309531
    26  C   -0.298353
    27  C   -0.475311
    28  H    0.171954
    29  H    0.140528
    30  H    0.156860
    31  H    0.147345
    32  H    0.150212
    33  H    0.156740
    34  H    0.157955
 Sum of Mulliken charges =  -0.00000

 Dipole moment (field-independent basis, Debye):
    X=              4.0074    Y=             -1.2447    Z=             -3.2654  Tot=              5.3171
 Quadrupole moment (field-independent basis, Debye-Ang):
   XX=            -74.9064   YY=            -94.6209   ZZ=            -96.5089
   XY=             -2.0016   XZ=             -5.3236   YZ=              2.1332

 Normal termination of Gaussian 16 at Thu May  6 03:04:45 2021.
