 Gaussian 16, Revision A.03,
 Gaussian 16:  EM64L-G16RevA.03 25-Dec-2016

 -------------
 #p 6-31g* mp2
 -------------

 ------------------------------------------------------
 Input file generated by CHIRIPA (05-May-2021 14:53:14)
 ------------------------------------------------------
 Symbolic Z-matrix:
 Charge =  0 Multiplicity = 1

                         Standard orientation:
 ---------------------------------------------------------------------
 Center     Atomic      Atomic             Coordinates (Angstroms)
 Number     Number       Type             X           Y           Z
 ---------------------------------------------------------------------
      1          6           0        3.891304   -0.431839   -0.196431
      2          6           0        3.421271   -1.589051    0.685564
      3          6           0        3.930646   -2.946674    0.200601
      4          1           0        3.553946   -0.604621   -1.227586
      5          1           0        4.989741   -0.423803   -0.224132
      6          1           0        2.324068   -1.594059    0.712708
      7          1           0        3.759623   -1.413399    1.714778
      8          1           0        5.025230   -2.966213    0.190415
      9          1           0        3.581519   -3.147900   -0.817348
     10          1           0        3.582805   -3.759685    0.845489
     11          6           0        3.390202    0.931919    0.275574
     12          6           0        3.860236    2.089130   -0.606421
     13          6           0        3.350861    3.446754   -0.121457
     14          1           0        2.291766    0.923883    0.303275
     15          1           0        3.727560    1.104700    1.306730
     16          1           0        3.521883    1.913478   -1.635634
     17          1           0        4.957438    2.094139   -0.633565
     18          1           0        3.699988    3.647979    0.896491
     19          1           0        2.256276    3.466293   -0.111272
     20          1           0        3.698701    4.259765   -0.766345
     21          6           0       -1.113192   -2.006304   -0.330043
     22          6           0       -2.474069   -2.317399   -0.418107
     23          6           0       -3.441997   -1.322034   -0.254060
     24          6           0       -3.011699   -0.020267   -0.001997
     25          6           0       -1.663366    0.321140    0.091437
     26          6           0       -0.712890   -0.690348   -0.076000
     27          1           0       -0.368061   -2.785789   -0.458796
     28          1           0       -2.787859   -3.338523   -0.615304
     29          1           0       -4.502198   -1.535117   -0.317212
     30          1           0       -1.381231    1.348162    0.289033
     31          1           0        0.343287   -0.445839   -0.007082
     32          7           0       -4.027164    1.042016    0.173468
     33          8           0       -3.622180    2.181179    0.394675
     34          8           0       -5.208841    0.715355    0.086467
 ---------------------------------------------------------------------

 SCF Done:  E(RHF) =  -669.534975303     A.U. after   15 cycles
 E2 =    -0.2092264318D+01 EUMP2 =    -0.67162723962124D+03

 The electronic state is 1-A.
 Alpha  occ. eigenvalues --  -20.60742 -20.60736 -15.85794 -11.31160 -11.27729
 Alpha  occ. eigenvalues --  -11.27722 -11.27466 -11.26744 -11.26695 -11.22739
 Alpha  occ. eigenvalues --  -11.22414 -11.22352 -11.22291 -11.22071 -11.21604
 Alpha  occ. eigenvalues --   -1.59817  -1.39371  -1.19330  -1.09399  -1.08725
 Alpha  occ. eigenvalues --   -1.04736  -1.04405  -0.96840  -0.95561  -0.87851
 Alpha  occ. eigenvalues --   -0.86142  -0.82398  -0.80481  -0.79212  -0.77441
 Alpha  occ. eigenvalues --   -0.72014  -0.71140  -0.70442  -0.66181  -0.64984
 Alpha  occ. eigenvalues --   -0.64665  -0.62102  -0.61784  -0.60214  -0.58446
 Alpha  occ. eigenvalues --   -0.56142  -0.55227  -0.53513  -0.53254  -0.53062
 Alpha  occ. eigenvalues --   -0.52841  -0.50797  -0.48810  -0.48769  -0.48750
 Alpha  occ. eigenvalues --   -0.47533  -0.46693  -0.46630  -0.44776  -0.44677
 Alpha  occ. eigenvalues --   -0.37310  -0.36335
 Alpha virt. eigenvalues --    0.05093   0.11273   0.16587   0.18516   0.22675
 Alpha virt. eigenvalues --    0.23223   0.24833   0.26220   0.26687   0.27575
 Alpha virt. eigenvalues --    0.29768   0.30633   0.30957   0.31254   0.31837

 Mulliken charges:
               1
     1  C   -0.300190
     2  C   -0.303601
     3  C   -0.476735
     4  H    0.149436
     5  H    0.154948
     6  H    0.142492
     7  H    0.157925
     8  H    0.160366
     9  H    0.153554
    10  H    0.161607
    11  C   -0.302276
    12  C   -0.300357
    13  C   -0.476016
    14  H    0.141345
    15  H    0.154707
    16  H    0.153072
    17  H    0.154905
    18  H    0.157162
    19  H    0.154728
    20  H    0.163984
    21  C   -0.174056
    22  C   -0.218435
    23  C   -0.171254
    24  C    0.158907
    25  C   -0.173560
    26  C   -0.229216
    27  H    0.226514
    28  H    0.223320
    29  H    0.275537
    30  H    0.275081
    31  H    0.239081
    32  N    0.487996
    33  O   -0.460400
    34  O   -0.460570
 Sum of Mulliken charges =  -0.00000

 Dipole moment (field-independent basis, Debye):
    X=              3.8509    Y=             -3.6830    Z=             -0.6061  Tot=              5.3629
 Quadrupole moment (field-independent basis, Debye-Ang):
   XX=           -112.0576   YY=            -93.3588   ZZ=            -95.1998
   XY=             14.6494   XZ=              3.1211   YZ=              0.3650

 Normal termination of Gaussian 16 at Wed May  5 21:51:30 2021.
