 Gaussian 16, Revision A.03,
 Gaussian 16:  EM64L-G16RevA.03 25-Dec-2016

 -------------
 #p 6-31g* mp2
 -------------

 ------------------------------------------------------
 Input file generated by CHIRIPA (05-May-2021 14:53:15)
 ------------------------------------------------------
 Symbolic Z-matrix:
 Charge =  0 Multiplicity = 1

                         Standard orientation:
 ---------------------------------------------------------------------
 Center     Atomic      Atomic             Coordinates (Angstroms)
 Number     Number       Type             X           Y           Z
 ---------------------------------------------------------------------
      1          6           0        4.709783   -0.390642    0.304091
      2          6           0        5.556031    0.212593   -0.817496
      3          6           0        6.963989   -0.380320   -0.879981
      4          1           0        5.218867   -0.232196    1.264651
      5          1           0        4.644659   -1.478085    0.160490
      6          1           0        5.618389    1.298747   -0.672596
      7          1           0        5.044781    0.052862   -1.775475
      8          1           0        6.919691   -1.461220   -1.048189
      9          1           0        7.496558   -0.208255    0.060957
     10          1           0        7.551636    0.065085   -1.688774
     11          6           0        3.299602    0.191984    0.379354
     12          6           0        2.453354   -0.411250    1.500941
     13          6           0        1.045397    0.181662    1.563426
     14          1           0        3.364726    1.279428    0.522955
     15          1           0        2.790519    0.033539   -0.581205
     16          1           0        2.964604   -0.251519    2.458921
     17          1           0        2.390997   -1.497405    1.356041
     18          1           0        0.512828    0.009598    0.622488
     19          1           0        1.089695    1.262562    1.731634
     20          1           0        0.457750   -0.263742    2.372219
     21          6           0       -2.262136    2.445932   -0.344791
     22          6           0       -3.547350    2.186442    0.142456
     23          6           0       -4.037835    0.878123    0.190189
     24          6           0       -3.212439   -0.151361   -0.259447
     25          6           0       -1.927518    0.075091   -0.750353
     26          6           0       -1.457740    1.391287   -0.788858
     27          1           0       -1.889158    3.465324   -0.378288
     28          1           0       -4.174269    3.003523    0.487990
     29          1           0       -5.028896    0.648924    0.562591
     30          1           0       -1.325920   -0.760158   -1.087779
     31          1           0       -0.459216    1.589844   -1.167764
     32          7           0       -3.720733   -1.540589   -0.213799
     33          8           0       -2.973847   -2.430054   -0.615856
     34          8           0       -4.856395   -1.713694    0.223173
 ---------------------------------------------------------------------

 SCF Done:  E(RHF) =  -669.533722298     A.U. after   15 cycles
 E2 =    -0.2092835375D+01 EUMP2 =    -0.67162655767307D+03

 The electronic state is 1-A.
 Alpha  occ. eigenvalues --  -20.60756 -20.60751 -15.85809 -11.31171 -11.27730
 Alpha  occ. eigenvalues --  -11.27715 -11.27457 -11.26750 -11.26730 -11.21929
 Alpha  occ. eigenvalues --  -11.21926 -11.21856 -11.21708 -11.21406 -11.21318
 Alpha  occ. eigenvalues --   -1.59831  -1.39385  -1.19344  -1.08807  -1.08732
 Alpha  occ. eigenvalues --   -1.04771  -1.03863  -0.96331  -0.95573  -0.87352
 Alpha  occ. eigenvalues --   -0.86143  -0.82423  -0.79939  -0.78636  -0.77457
 Alpha  occ. eigenvalues --   -0.72029  -0.71153  -0.70455  -0.65446  -0.65000
 Alpha  occ. eigenvalues --   -0.64759  -0.62163  -0.61240  -0.59684  -0.57948
 Alpha  occ. eigenvalues --   -0.55666  -0.55238  -0.53355  -0.52969  -0.52839
 Alpha  occ. eigenvalues --   -0.52520  -0.50261  -0.48786  -0.48783  -0.48243
 Alpha  occ. eigenvalues --   -0.46972  -0.46173  -0.46093  -0.44790  -0.44128
 Alpha  occ. eigenvalues --   -0.37315  -0.36223
 Alpha virt. eigenvalues --    0.05059   0.11277   0.16479   0.20444   0.22707
 Alpha virt. eigenvalues --    0.23972   0.25832   0.26721   0.27500   0.28055
 Alpha virt. eigenvalues --    0.28936   0.30491   0.31324   0.31611   0.32026

 Mulliken charges:
               1
     1  C   -0.298412
     2  C   -0.299806
     3  C   -0.475957
     4  H    0.151125
     5  H    0.151939
     6  H    0.150922
     7  H    0.151144
     8  H    0.156533
     9  H    0.155824
    10  H    0.160705
    11  C   -0.297736
    12  C   -0.300758
    13  C   -0.475034
    14  H    0.147263
    15  H    0.143508
    16  H    0.153272
    17  H    0.155724
    18  H    0.151330
    19  H    0.150519
    20  H    0.165199
    21  C   -0.172434
    22  C   -0.218233
    23  C   -0.171859
    24  C    0.157689
    25  C   -0.170120
    26  C   -0.213208
    27  H    0.225451
    28  H    0.223300
    29  H    0.275404
    30  H    0.274755
    31  H    0.224935
    32  N    0.488117
    33  O   -0.460690
    34  O   -0.460411
 Sum of Mulliken charges =  -0.00000

 Dipole moment (field-independent basis, Debye):
    X=              1.8274    Y=              4.8707    Z=             -0.1049  Tot=              5.2033
 Quadrupole moment (field-independent basis, Debye-Ang):
   XX=           -103.4761   YY=            -95.8363   ZZ=            -94.2484
   XY=            -17.3993   XZ=             -1.4334   YZ=             -0.1689

 Normal termination of Gaussian 16 at Wed May  5 20:17:03 2021.
