 Gaussian 16, Revision A.03,
 Gaussian 16:  EM64L-G16RevA.03 25-Dec-2016

 -------------
 #p 6-31g* mp2
 -------------

 ------------------------------------------------------
 Input file generated by CHIRIPA (05-May-2021 14:55:19)
 ------------------------------------------------------
 Symbolic Z-matrix:
 Charge =  0 Multiplicity = 1

                         Standard orientation:
 ---------------------------------------------------------------------
 Center     Atomic      Atomic             Coordinates (Angstroms)
 Number     Number       Type             X           Y           Z
 ---------------------------------------------------------------------
      1          6           0       -1.600114    1.913611   -0.158773
      2          6           0       -1.391480    0.539996   -0.320564
      3          6           0       -2.463202   -0.354621   -0.245594
      4          6           0       -3.736015    0.161180   -0.006459
      5          6           0       -3.976000    1.524379    0.159023
      6          6           0       -2.889435    2.400560    0.080083
      7          1           0       -0.761809    2.601410   -0.218554
      8          1           0       -0.391265    0.158992   -0.506170
      9          1           0       -2.330024   -1.422762   -0.367066
     10          1           0       -4.984535    1.874322    0.342917
     11          1           0       -3.054433    3.466830    0.206129
     12          7           0       -4.878456   -0.776152    0.075010
     13          8           0       -5.990123   -0.296520    0.286639
     14          8           0       -4.640603   -1.972717   -0.074307
     15          6           0        3.989284   -0.814986    0.357227
     16          6           0        2.753038   -0.993987   -0.524610
     17          6           0        1.657914   -1.818259    0.152941
     18          1           0        4.385976   -1.803446    0.626535
     19          1           0        3.693096   -0.330198    1.297784
     20          1           0        3.051700   -1.477042   -1.463799
     21          1           0        2.359354   -0.004983   -0.792008
     22          1           0        1.331679   -1.336916    1.080562
     23          1           0        2.027959   -2.817338    0.404953
     24          1           0        0.783478   -1.933819   -0.495031
     25          6           0        5.092897    0.006887   -0.306318
     26          6           0        6.329145    0.185889    0.575519
     27          6           0        7.424268    1.010160   -0.102032
     28          1           0        5.389086   -0.477901   -1.246875
     29          1           0        4.696205    0.995347   -0.575626
     30          1           0        6.722827   -0.803115    0.842917
     31          1           0        6.030482    0.668943    1.514708
     32          1           0        7.054223    2.009239   -0.354043
     33          1           0        7.750503    0.528817   -1.029653
     34          1           0        8.298703    1.125720    0.545941
 ---------------------------------------------------------------------

 SCF Done:  E(RHF) =  -669.535171110     A.U. after   15 cycles
 E2 =    -0.2091504663D+01 EUMP2 =    -0.67162667577306D+03

 The electronic state is 1-A.
 Alpha  occ. eigenvalues --  -20.60707 -20.60701 -15.85758 -11.31115 -11.27681
 Alpha  occ. eigenvalues --  -11.27662 -11.27413 -11.26702 -11.26610 -11.22653
 Alpha  occ. eigenvalues --  -11.22185 -11.22174 -11.22150 -11.22038 -11.21542
 Alpha  occ. eigenvalues --   -1.59782  -1.39336  -1.19280  -1.09205  -1.08678
 Alpha  occ. eigenvalues --   -1.04688  -1.04319  -0.96772  -0.95517  -0.87789
 Alpha  occ. eigenvalues --   -0.86076  -0.82349  -0.80392  -0.78976  -0.77400
 Alpha  occ. eigenvalues --   -0.71977  -0.71105  -0.70398  -0.65868  -0.64932
 Alpha  occ. eigenvalues --   -0.64710  -0.62203  -0.61608  -0.60115  -0.58358
 Alpha  occ. eigenvalues --   -0.56049  -0.55176  -0.53512  -0.53210  -0.53010
 Alpha  occ. eigenvalues --   -0.52657  -0.50682  -0.48733  -0.48732  -0.48702
 Alpha  occ. eigenvalues --   -0.47430  -0.46524  -0.46426  -0.44744  -0.44567
 Alpha  occ. eigenvalues --   -0.37266  -0.36277
 Alpha virt. eigenvalues --    0.05130   0.11354   0.16608   0.19509   0.22526
 Alpha virt. eigenvalues --    0.23800   0.25605   0.25943   0.26560   0.27615
 Alpha virt. eigenvalues --    0.28890   0.30437   0.30724   0.31153   0.31783

 Mulliken charges:
               1
     1  C   -0.173062
     2  C   -0.226900
     3  C   -0.174574
     4  C    0.158968
     5  C   -0.171460
     6  C   -0.218392
     7  H    0.224928
     8  H    0.239175
     9  H    0.275487
    10  H    0.275278
    11  H    0.222937
    12  N    0.488126
    13  O   -0.460790
    14  O   -0.460467
    15  C   -0.298717
    16  C   -0.303051
    17  C   -0.484321
    18  H    0.153457
    19  H    0.150236
    20  H    0.157260
    21  H    0.144749
    22  H    0.158458
    23  H    0.165537
    24  H    0.153689
    25  C   -0.298557
    26  C   -0.300265
    27  C   -0.476038
    28  H    0.151348
    29  H    0.147935
    30  H    0.153657
    31  H    0.152290
    32  H    0.154830
    33  H    0.156203
    34  H    0.162045
 Sum of Mulliken charges =  -0.00000

 Dipole moment (field-independent basis, Debye):
    X=              4.2974    Y=              3.2137    Z=             -0.2456  Tot=              5.3717
 Quadrupole moment (field-independent basis, Debye-Ang):
   XX=           -123.0836   YY=            -90.3832   ZZ=            -95.4737
   XY=            -15.6268   XZ=              0.6763   YZ=              1.1801

 Normal termination of Gaussian 16 at Thu May  6 02:54:27 2021.
