 Gaussian 16, Revision A.03,
 Gaussian 16:  EM64L-G16RevA.03 25-Dec-2016

 -------------
 #p 6-31g* mp2
 -------------

 ------------------------------------------------------
 Input file generated by CHIRIPA (05-May-2021 14:55:24)
 ------------------------------------------------------
 Symbolic Z-matrix:
 Charge =  0 Multiplicity = 1

                         Standard orientation:
 ---------------------------------------------------------------------
 Center     Atomic      Atomic             Coordinates (Angstroms)
 Number     Number       Type             X           Y           Z
 ---------------------------------------------------------------------
      1          6           0       -4.924601    1.717789    0.425604
      2          6           0       -5.275887    0.482588   -0.128830
      3          6           0       -4.296504   -0.476270   -0.404414
      4          6           0       -2.969560   -0.165154   -0.111640
      5          6           0       -2.587988    1.056472    0.440922
      6          6           0       -3.584136    2.000290    0.708213
      7          1           0       -5.691921    2.456811    0.636464
      8          1           0       -6.316115    0.260451   -0.349343
      9          1           0       -4.540596   -1.440495   -0.833492
     10          1           0       -1.542662    1.249010    0.649821
     11          1           0       -3.308402    2.958728    1.138809
     12          7           0       -1.923857   -1.172293   -0.398999
     13          8           0       -0.761890   -0.873800   -0.131845
     14          8           0       -2.286003   -2.241111   -0.885943
     15          6           0        4.125380   -0.756771    0.042463
     16          6           0        2.994724   -1.558863    0.687635
     17          6           0        3.216641   -3.069116    0.599981
     18          1           0        4.222591   -1.054016   -1.010694
     19          1           0        5.075021   -1.017664    0.529813
     20          1           0        2.047301   -1.295509    0.200141
     21          1           0        2.900066   -1.259534    1.739328
     22          1           0        4.147084   -3.351607    1.103047
     23          1           0        3.289473   -3.387785   -0.444885
     24          1           0        2.396577   -3.623182    1.067277
     25          6           0        3.917896    0.754632    0.122093
     26          6           0        5.048552    1.556725   -0.523079
     27          6           0        4.826634    3.066978   -0.435425
     28          1           0        2.968254    1.015527   -0.365257
     29          1           0        3.820685    1.051878    1.175250
     30          1           0        5.143210    1.257397   -1.574772
     31          1           0        5.995975    1.293370   -0.035585
     32          1           0        4.753802    3.385648    0.609442
     33          1           0        3.896192    3.349469   -0.938491
     34          1           0        5.646698    3.621045   -0.902720
 ---------------------------------------------------------------------

 SCF Done:  E(RHF) =  -669.536164328     A.U. after   15 cycles
 E2 =    -0.2090849920D+01 EUMP2 =    -0.67162701424827D+03

 The electronic state is 1-A.
 Alpha  occ. eigenvalues --  -20.60955 -20.60949 -15.85997 -11.31303 -11.27864
 Alpha  occ. eigenvalues --  -11.27860 -11.27601 -11.26870 -11.26860 -11.21044
 Alpha  occ. eigenvalues --  -11.20694 -11.20627 -11.20388 -11.20141 -11.19822
 Alpha  occ. eigenvalues --   -1.60019  -1.39575  -1.19470  -1.08877  -1.07542
 Alpha  occ. eigenvalues --   -1.04864  -1.02612  -0.95721  -0.95115  -0.86265
 Alpha  occ. eigenvalues --   -0.86140  -0.82557  -0.78718  -0.77616  -0.77279
 Alpha  occ. eigenvalues --   -0.72220  -0.71334  -0.70579  -0.65128  -0.64867
 Alpha  occ. eigenvalues --   -0.64172  -0.62211  -0.60001  -0.58516  -0.56688
 Alpha  occ. eigenvalues --   -0.55369  -0.54420  -0.53197  -0.52956  -0.51816
 Alpha  occ. eigenvalues --   -0.51538  -0.49119  -0.48970  -0.48957  -0.47018
 Alpha  occ. eigenvalues --   -0.45742  -0.44994  -0.44860  -0.44656  -0.42878
 Alpha  occ. eigenvalues --   -0.37449  -0.36465
 Alpha virt. eigenvalues --    0.04924   0.11190   0.16427   0.21302   0.23676
 Alpha virt. eigenvalues --    0.25231   0.27198   0.27430   0.27974   0.28625
 Alpha virt. eigenvalues --    0.28878   0.30918   0.32194   0.32349   0.32720

 Mulliken charges:
               1
     1  C   -0.170577
     2  C   -0.218627
     3  C   -0.170420
     4  C    0.157275
     5  C   -0.170885
     6  C   -0.218567
     7  H    0.226040
     8  H    0.223827
     9  H    0.275870
    10  H    0.276017
    11  H    0.223993
    12  N    0.494868
    13  O   -0.466514
    14  O   -0.458989
    15  C   -0.297360
    16  C   -0.311302
    17  C   -0.473863
    18  H    0.148698
    19  H    0.144763
    20  H    0.182503
    21  H    0.144715
    22  H    0.147716
    23  H    0.154464
    24  H    0.162837
    25  C   -0.297806
    26  C   -0.298835
    27  C   -0.474993
    28  H    0.151650
    29  H    0.146152
    30  H    0.151774
    31  H    0.150656
    32  H    0.153151
    33  H    0.153314
    34  H    0.158455
 Sum of Mulliken charges =  -0.00000

 Dipole moment (field-independent basis, Debye):
    X=             -4.0251    Y=              3.5011    Z=              0.9521  Tot=              5.4190
 Quadrupole moment (field-independent basis, Debye-Ang):
   XX=            -71.7000   YY=            -95.9578   ZZ=            -94.5319
   XY=             -7.6172   XZ=             -1.0465   YZ=              0.9606

 Normal termination of Gaussian 16 at Thu May  6 06:22:07 2021.
