 Gaussian 16, Revision A.03,
 Gaussian 16:  EM64L-G16RevA.03 25-Dec-2016

 -------------
 #p 6-31g* mp2
 -------------

 ------------------------------------------------------
 Input file generated by CHIRIPA (05-May-2021 14:51:08)
 ------------------------------------------------------
 Symbolic Z-matrix:
 Charge =  0 Multiplicity = 1

                         Standard orientation:
 ---------------------------------------------------------------------
 Center     Atomic      Atomic             Coordinates (Angstroms)
 Number     Number       Type             X           Y           Z
 ---------------------------------------------------------------------
      1          6           0       -4.108870    0.779903    0.229588
      2          6           0       -3.670205    2.062532   -0.477818
      3          6           0       -4.557957    3.259496   -0.135813
      4          1           0       -5.149436    0.556109   -0.042595
      5          1           0       -4.098800    0.946613    1.315636
      6          1           0       -3.679770    1.893025   -1.562157
      7          1           0       -2.630500    2.283194   -0.204070
      8          1           0       -4.540515    3.456877    0.940913
      9          1           0       -5.595747    3.064491   -0.424891
     10          1           0       -4.226483    4.165730   -0.652266
     11          6           0       -3.231087   -0.425538   -0.102280
     12          6           0       -3.669751   -1.708167    0.605125
     13          6           0       -2.781999   -2.905131    0.263120
     14          1           0       -3.241157   -0.592248   -1.188329
     15          1           0       -2.190521   -0.201744    0.169903
     16          1           0       -4.709456   -1.928829    0.331377
     17          1           0       -3.660186   -1.538660    1.689465
     18          1           0       -1.744209   -2.710127    0.552199
     19          1           0       -2.799441   -3.102512   -0.813605
     20          1           0       -3.113473   -3.811365    0.779574
     21          6           0        3.438594   -0.873187   -0.276895
     22          6           0        1.931127   -1.082595   -0.129668
     23          6           0        1.483550   -2.479769   -0.560220
     24          1           0        3.725847   -1.045601   -1.323177
     25          1           0        3.966822   -1.628873    0.320858
     26          1           0        1.405888   -0.325875   -0.726422
     27          1           0        1.647400   -0.909474    0.916345
     28          1           0        1.981165   -3.246462    0.042409
     29          1           0        1.738282   -2.659546   -1.609692
     30          1           0        0.402530   -2.607771   -0.446767
     31          6           0        3.901362    0.518822    0.149588
     32          6           0        5.408830    0.728230    0.002361
     33          6           0        5.856406    2.125404    0.432912
     34          1           0        3.373135    1.274508   -0.448165
     35          1           0        3.614108    0.691236    1.195868
     36          1           0        5.692557    0.555109   -1.043653
     37          1           0        5.934068   -0.028490    0.599115
     38          1           0        5.601674    2.305182    1.482384
     39          1           0        5.358790    2.892097   -0.169717
     40          1           0        6.937426    2.253406    0.319460
 ---------------------------------------------------------------------

 SCF Done:  E(RHF) =  -470.733328353     A.U. after   11 cycles
 E2 =    -0.1582450066D+01 EUMP2 =    -0.47231577841891D+03

 The electronic state is 1-A.
 Alpha  occ. eigenvalues --  -11.21616 -11.21603 -11.21601 -11.21597 -11.21410
 Alpha  occ. eigenvalues --  -11.21402 -11.21351 -11.21342 -11.21089 -11.21072
 Alpha  occ. eigenvalues --  -11.21072 -11.21001  -1.08440  -1.08423  -1.03551
 Alpha  occ. eigenvalues --   -1.03510  -0.96014  -0.95945  -0.87048  -0.86945
 Alpha  occ. eigenvalues --   -0.79630  -0.79558  -0.78254  -0.78235  -0.65069
 Alpha  occ. eigenvalues --   -0.65054  -0.60960  -0.60911  -0.59444  -0.59278
 Alpha  occ. eigenvalues --   -0.57722  -0.57469  -0.55296  -0.55237  -0.52808
 Alpha  occ. eigenvalues --   -0.52680  -0.52458  -0.52216  -0.49934  -0.49894
 Alpha  occ. eigenvalues --   -0.48013  -0.47789  -0.46632  -0.46613  -0.45797
 Alpha  occ. eigenvalues --   -0.45776  -0.45716  -0.45696  -0.43794  -0.43745
 Alpha virt. eigenvalues --    0.21539   0.23080   0.23444   0.24912   0.26313
 Alpha virt. eigenvalues --    0.26623   0.26927   0.27257   0.27993   0.28909
 Alpha virt. eigenvalues --    0.30649   0.31426   0.31689   0.31811   0.31915

 Mulliken charges:
               1
     1  C   -0.298249
     2  C   -0.299727
     3  C   -0.475707
     4  H    0.149684
     5  H    0.149567
     6  H    0.151842
     7  H    0.152141
     8  H    0.155221
     9  H    0.155164
    10  H    0.160241
    11  C   -0.299110
    12  C   -0.299426
    13  C   -0.481619
    14  H    0.149472
    15  H    0.150472
    16  H    0.152065
    17  H    0.151930
    18  H    0.160692
    19  H    0.155506
    20  H    0.160781
    21  C   -0.298179
    22  C   -0.299733
    23  C   -0.483436
    24  H    0.149819
    25  H    0.149564
    26  H    0.152196
    27  H    0.150925
    28  H    0.154858
    29  H    0.155192
    30  H    0.168049
    31  C   -0.298273
    32  C   -0.299648
    33  C   -0.475704
    34  H    0.149500
    35  H    0.149434
    36  H    0.151993
    37  H    0.151941
    38  H    0.155113
    39  H    0.155178
    40  H    0.160269
 Sum of Mulliken charges =  -0.00000

 Dipole moment (field-independent basis, Debye):
    X=             -0.0217    Y=             -0.0077    Z=             -0.0022  Tot=              0.0232
 Quadrupole moment (field-independent basis, Debye-Ang):
   XX=            -84.9404   YY=            -86.4696   ZZ=            -83.3166
   XY=              0.1962   XZ=              0.5610   YZ=             -0.5589

 Normal termination of Gaussian 16 at Thu May  6 16:31:52 2021.
