 Gaussian 16, Revision A.03,
 Gaussian 16:  EM64L-G16RevA.03 25-Dec-2016

 -------------
 #p 6-31g* mp2
 -------------

 ------------------------------------------------------
 Input file generated by CHIRIPA (05-May-2021 14:57:21)
 ------------------------------------------------------
 Symbolic Z-matrix:
 Charge =  0 Multiplicity = 1

                         Standard orientation:
 ---------------------------------------------------------------------
 Center     Atomic      Atomic             Coordinates (Angstroms)
 Number     Number       Type             X           Y           Z
 ---------------------------------------------------------------------
      1          6           0        4.186510   -1.917209   -0.229906
      2          6           0        2.821688   -1.861820   -0.531092
      3          6           0        2.144556   -0.638699   -0.535143
      4          6           0        2.866511    0.514640   -0.232026
      5          6           0        4.226760    0.492043    0.072116
      6          6           0        4.883462   -0.742172    0.070208
      7          1           0        4.704587   -2.871668   -0.229074
      8          1           0        2.277877   -2.772762   -0.764545
      9          1           0        1.088347   -0.567064   -0.764727
     10          1           0        4.741994    1.417052    0.300831
     11          1           0        5.943441   -0.782174    0.304489
     12          7           0        2.160476    1.815375   -0.233160
     13          8           0        2.819200    2.817169    0.037265
     14          8           0        0.961731    1.808469   -0.504452
     15          6           0       -0.843370   -1.236533    1.186744
     16          6           0       -1.636573   -2.022183    0.344067
     17          6           0       -2.824018   -1.513769   -0.190757
     18          6           0       -3.189713   -0.209747    0.139522
     19          6           0       -2.420820    0.597765    0.976192
     20          6           0       -1.237331    0.068633    1.499565
     21          1           0        0.077529   -1.639529    1.597760
     22          1           0       -1.333097   -3.036130    0.099404
     23          1           0       -3.456966   -2.100155   -0.845697
     24          1           0       -2.749474    1.604958    1.201950
     25          1           0       -0.623298    0.681069    2.153730
     26          7           0       -4.444715    0.339455   -0.420611
     27          8           0       -4.744828    1.491305   -0.114324
     28          8           0       -5.104508   -0.392330   -1.155323
 ---------------------------------------------------------------------

 SCF Done:  E(RHF) =  -868.336671109     A.U. after   16 cycles
 E2 =    -0.2603040864D+01 EUMP2 =    -0.87093971197289D+03

 The electronic state is 1-A.
 Alpha  occ. eigenvalues --  -20.61441 -20.61422 -20.60496 -20.60472 -15.86469
 Alpha  occ. eigenvalues --  -15.85541 -11.31869 -11.30964 -11.28460 -11.28382
 Alpha  occ. eigenvalues --  -11.28229 -11.27618 -11.27514 -11.27445 -11.27433
 Alpha  occ. eigenvalues --  -11.27345 -11.26754 -11.26502  -1.60512  -1.59558
 Alpha  occ. eigenvalues --   -1.40059  -1.39110  -1.20076  -1.19167  -1.09459
 Alpha  occ. eigenvalues --   -1.08595  -1.05480  -1.04558  -0.96283  -0.95396
 Alpha  occ. eigenvalues --   -0.86867  -0.85985  -0.83115  -0.82201  -0.78154
 Alpha  occ. eigenvalues --   -0.77219  -0.72691  -0.71859  -0.71762  -0.71192
 Alpha  occ. eigenvalues --   -0.70875  -0.70299  -0.65714  -0.65477  -0.64828
 Alpha  occ. eigenvalues --   -0.64594  -0.62820  -0.61899  -0.55977  -0.55193
 Alpha  occ. eigenvalues --   -0.53790  -0.53666  -0.52745  -0.52668  -0.49458
 Alpha  occ. eigenvalues --   -0.49439  -0.48530  -0.48508  -0.45458  -0.44501
 Alpha  occ. eigenvalues --   -0.38084  -0.37501  -0.36753  -0.36082
 Alpha virt. eigenvalues --    0.04320   0.05301   0.10497   0.11487   0.15658
 Alpha virt. eigenvalues --    0.16893   0.20463   0.21689   0.26112   0.27675
 Alpha virt. eigenvalues --    0.27912   0.28442   0.30534   0.31127   0.32075

 Mulliken charges:
               1
     1  C   -0.169866
     2  C   -0.224952
     3  C   -0.179103
     4  C    0.154640
     5  C   -0.170035
     6  C   -0.219129
     7  H    0.227359
     8  H    0.220752
     9  H    0.286461
    10  H    0.277475
    11  H    0.225813
    12  N    0.486187
    13  O   -0.458656
    14  O   -0.458485
    15  C   -0.187623
    16  C   -0.224183
    17  C   -0.171142
    18  C    0.158727
    19  C   -0.163862
    20  C   -0.201301
    21  H    0.224050
    22  H    0.216840
    23  H    0.274341
    24  H    0.280146
    25  H    0.227224
    26  N    0.488142
    27  O   -0.457338
    28  O   -0.462481
 Sum of Mulliken charges =  -0.00000

 Dipole moment (field-independent basis, Debye):
    X=              6.9192    Y=             -6.1511    Z=              2.0174  Tot=              9.4753
 Quadrupole moment (field-independent basis, Debye-Ang):
   XX=           -115.2063   YY=           -104.9351   ZZ=           -104.1697
   XY=             -4.1390   XZ=             -4.8224   YZ=              3.5982

 Normal termination of Gaussian 16 at Thu May  6 21:08:07 2021.
