 Gaussian 16, Revision A.03,
 Gaussian 16:  EM64L-G16RevA.03 25-Dec-2016

 -------------
 #p 6-31g* mp2
 -------------

 ------------------------------------------------------
 Input file generated by CHIRIPA (05-May-2021 14:53:11)
 ------------------------------------------------------
 Symbolic Z-matrix:
 Charge =  0 Multiplicity = 1

                         Standard orientation:
 ---------------------------------------------------------------------
 Center     Atomic      Atomic             Coordinates (Angstroms)
 Number     Number       Type             X           Y           Z
 ---------------------------------------------------------------------
      1          6           0       -4.102067   -0.699387   -0.070833
      2          6           0       -4.852299    0.580062    0.300848
      3          6           0       -6.346081    0.344939    0.526964
      4          1           0       -4.548691   -1.128272   -0.978318
      5          1           0       -4.240641   -1.442272    0.726859
      6          1           0       -4.711208    1.320794   -0.496663
      7          1           0       -4.403715    1.006054    1.207446
      8          1           0       -6.504559   -0.374680    1.336677
      9          1           0       -6.813800   -0.058151   -0.377114
     10          1           0       -6.862976    1.272656    0.791579
     11          6           0       -2.607652   -0.480509   -0.300064
     12          6           0       -1.857420   -1.759958   -0.671745
     13          6           0       -0.363638   -1.524835   -0.897861
     14          1           0       -2.469078    0.262376   -1.097756
     15          1           0       -2.161028   -0.051624    0.607422
     16          1           0       -2.306005   -2.185950   -1.578342
     17          1           0       -1.998511   -2.500690    0.125766
     18          1           0        0.104081   -1.121745    0.006218
     19          1           0       -0.205160   -0.805216   -1.707574
     20          1           0        0.153256   -2.452552   -1.162475
     21          6           0        0.946065    2.311636   -0.222990
     22          6           0        0.993105    1.644055    1.005278
     23          6           0        1.917015    0.617062    1.220270
     24          6           0        2.782909    0.281974    0.180446
     25          6           0        2.760585    0.928344   -1.054462
     26          6           0        1.828400    1.952283   -1.247135
     27          1           0        0.225134    3.108245   -0.381333
     28          1           0        0.309093    1.921012    1.802441
     29          1           0        1.975090    0.083690    2.161312
     30          1           0        3.455305    0.629897   -1.830164
     31          1           0        1.794136    2.469000   -2.202056
     32          7           0        3.765391   -0.803642    0.396234
     33          8           0        4.517387   -1.079974   -0.535850
     34          8           0        3.764864   -1.357660    1.493368
 ---------------------------------------------------------------------

 SCF Done:  E(RHF) =  -669.534381643     A.U. after   15 cycles
 E2 =    -0.2094101073D+01 EUMP2 =    -0.67162848271643D+03

 The electronic state is 1-A.
 Alpha  occ. eigenvalues --  -20.60770 -20.60765 -15.85825 -11.31195 -11.27803
 Alpha  occ. eigenvalues --  -11.27764 -11.27547 -11.26824 -11.26808 -11.22029
 Alpha  occ. eigenvalues --  -11.21752 -11.21698 -11.21664 -11.21420 -11.20908
 Alpha  occ. eigenvalues --   -1.59845  -1.39398  -1.19405  -1.08785  -1.08718
 Alpha  occ. eigenvalues --   -1.04821  -1.03750  -0.96194  -0.95614  -0.87213
 Alpha  occ. eigenvalues --   -0.86205  -0.82452  -0.79839  -0.78550  -0.77494
 Alpha  occ. eigenvalues --   -0.72046  -0.71167  -0.70505  -0.65362  -0.65055
 Alpha  occ. eigenvalues --   -0.64813  -0.62161  -0.61169  -0.59574  -0.57855
 Alpha  occ. eigenvalues --   -0.55530  -0.55304  -0.53581  -0.52904  -0.52860
 Alpha  occ. eigenvalues --   -0.52203  -0.50141  -0.48806  -0.48798  -0.48042
 Alpha  occ. eigenvalues --   -0.46892  -0.46031  -0.46028  -0.44798  -0.44026
 Alpha  occ. eigenvalues --   -0.37342  -0.36337
 Alpha virt. eigenvalues --    0.05027   0.11140   0.16476   0.21128   0.22665
 Alpha virt. eigenvalues --    0.24148   0.25942   0.26816   0.27691   0.27828
 Alpha virt. eigenvalues --    0.28461   0.30776   0.31265   0.31595   0.31937

 Mulliken charges:
               1
     1  C   -0.298324
     2  C   -0.299027
     3  C   -0.475694
     4  H    0.151052
     5  H    0.150933
     6  H    0.149786
     7  H    0.148571
     8  H    0.156389
     9  H    0.156370
    10  H    0.159984
    11  C   -0.296149
    12  C   -0.300057
    13  C   -0.480983
    14  H    0.145755
    15  H    0.144032
    16  H    0.151710
    17  H    0.152810
    18  H    0.159993
    19  H    0.152442
    20  H    0.162690
    21  C   -0.169113
    22  C   -0.213584
    23  C   -0.180519
    24  C    0.167357
    25  C   -0.170040
    26  C   -0.218078
    27  H    0.226242
    28  H    0.223723
    29  H    0.275544
    30  H    0.275936
    31  H    0.223601
    32  N    0.487921
    33  O   -0.460455
    34  O   -0.460818
 Sum of Mulliken charges =  -0.00000

 Dipole moment (field-independent basis, Debye):
    X=             -3.3809    Y=              3.8415    Z=             -0.7737  Tot=              5.1755
 Quadrupole moment (field-independent basis, Debye-Ang):
   XX=           -115.2859   YY=            -93.1297   ZZ=            -89.9037
   XY=             10.0643   XZ=             -4.2837   YZ=             -0.4779

 Normal termination of Gaussian 16 at Wed May  5 15:26:02 2021.
