 Gaussian 16, Revision A.03,
 Gaussian 16:  EM64L-G16RevA.03 25-Dec-2016

 -------------
 #p 6-31g* mp2
 -------------

 ------------------------------------------------------
 Input file generated by CHIRIPA (05-May-2021 14:51:09)
 ------------------------------------------------------
 Symbolic Z-matrix:
 Charge =  0 Multiplicity = 1

                         Standard orientation:
 ---------------------------------------------------------------------
 Center     Atomic      Atomic             Coordinates (Angstroms)
 Number     Number       Type             X           Y           Z
 ---------------------------------------------------------------------
      1          6           0        3.475289    0.717411    0.025410
      2          6           0        4.611542    1.698532   -0.264960
      3          6           0        4.368789    3.080648    0.342182
      4          1           0        2.534478    1.130276   -0.363642
      5          1           0        3.349625    0.624217    1.113030
      6          1           0        4.735940    1.788791   -1.351695
      7          1           0        5.549790    1.283196    0.124659
      8          1           0        4.266136    3.010958    1.429935
      9          1           0        3.447663    3.519426   -0.054808
     10          1           0        5.193240    3.766108    0.122442
     11          6           0        3.703430   -0.668647   -0.575027
     12          6           0        2.567177   -1.649768   -0.284657
     13          6           0        2.809931   -3.031884   -0.891799
     14          1           0        3.829095   -0.575453   -1.662647
     15          1           0        4.644242   -1.081512   -0.185975
     16          1           0        1.628930   -1.234432   -0.674276
     17          1           0        2.442779   -1.740027    0.802079
     18          1           0        3.731057   -3.470663   -0.494809
     19          1           0        2.912583   -2.962194   -1.979552
     20          1           0        1.985480   -3.717344   -0.672059
     21          6           0       -4.178203    0.461996    0.263291
     22          6           0       -5.042777    0.337823   -0.991729
     23          6           0       -6.216750    1.317368   -1.000132
     24          1           0       -4.804286    0.293806    1.150240
     25          1           0       -3.799220    1.490625    0.338705
     26          1           0       -5.418888   -0.690630   -1.065495
     27          1           0       -4.414524    0.506138   -1.875802
     28          1           0       -5.857033    2.350226   -0.951042
     29          1           0       -6.867104    1.146658   -0.136131
     30          1           0       -6.821514    1.211447   -1.906168
     31          6           0       -3.000517   -0.510759    0.286326
     32          6           0       -2.135942   -0.386587    1.541347
     33          6           0       -0.961970   -1.366133    1.549749
     34          1           0       -3.379500   -1.539389    0.210911
     35          1           0       -2.374434   -0.342570   -0.600623
     36          1           0       -2.764196   -0.554902    2.425419
     37          1           0       -1.759831    0.641866    1.615112
     38          1           0       -0.311616   -1.195422    0.685747
     39          1           0       -1.321686   -2.398990    1.500659
     40          1           0       -0.357205   -1.260210    2.455785
 ---------------------------------------------------------------------

 SCF Done:  E(RHF) =  -470.732925896     A.U. after   11 cycles
 E2 =    -0.1582759946D+01 EUMP2 =    -0.47231568584150D+03

 The electronic state is 1-A.
 Alpha  occ. eigenvalues --  -11.21611 -11.21596 -11.21574 -11.21548 -11.21408
 Alpha  occ. eigenvalues --  -11.21389 -11.21347 -11.21330 -11.21083 -11.21067
 Alpha  occ. eigenvalues --  -11.21050 -11.20940  -1.08438  -1.08402  -1.03547
 Alpha  occ. eigenvalues --   -1.03478  -0.95988  -0.95933  -0.87017  -0.86940
 Alpha  occ. eigenvalues --   -0.79697  -0.79472  -0.78286  -0.78179  -0.65083
 Alpha  occ. eigenvalues --   -0.65023  -0.60977  -0.60860  -0.59355  -0.59312
 Alpha  occ. eigenvalues --   -0.57656  -0.57493  -0.55282  -0.55219  -0.52691
 Alpha  occ. eigenvalues --   -0.52624  -0.52423  -0.52347  -0.49979  -0.49875
 Alpha  occ. eigenvalues --   -0.48064  -0.47729  -0.46707  -0.46530  -0.45878
 Alpha  occ. eigenvalues --   -0.45717  -0.45714  -0.45505  -0.43785  -0.43743
 Alpha virt. eigenvalues --    0.22034   0.23098   0.23678   0.24685   0.25846
 Alpha virt. eigenvalues --    0.26563   0.26951   0.27646   0.27999   0.29089
 Alpha virt. eigenvalues --    0.30342   0.31149   0.31534   0.32034   0.32215

 Mulliken charges:
               1
     1  C   -0.298224
     2  C   -0.299599
     3  C   -0.475675
     4  H    0.148853
     5  H    0.149788
     6  H    0.151890
     7  H    0.152053
     8  H    0.155235
     9  H    0.154994
    10  H    0.160298
    11  C   -0.297759
    12  C   -0.303012
    13  C   -0.475961
    14  H    0.149214
    15  H    0.149650
    16  H    0.153329
    17  H    0.154898
    18  H    0.155141
    19  H    0.154782
    20  H    0.161114
    21  C   -0.298234
    22  C   -0.299611
    23  C   -0.475689
    24  H    0.149715
    25  H    0.149444
    26  H    0.151924
    27  H    0.151747
    28  H    0.155147
    29  H    0.155205
    30  H    0.160200
    31  C   -0.298093
    32  C   -0.299628
    33  C   -0.481332
    34  H    0.149486
    35  H    0.148754
    36  H    0.151462
    37  H    0.151687
    38  H    0.163628
    39  H    0.154026
    40  H    0.159151
 Sum of Mulliken charges =  -0.00000

 Dipole moment (field-independent basis, Debye):
    X=              0.0338    Y=             -0.0131    Z=             -0.0013  Tot=              0.0363
 Quadrupole moment (field-independent basis, Debye-Ang):
   XX=            -85.0752   YY=            -85.7351   ZZ=            -84.0402
   XY=              0.8379   XZ=              0.0743   YZ=             -0.8859

 Normal termination of Gaussian 16 at Wed May  5 16:39:54 2021.
