 Gaussian 16, Revision A.03,
 Gaussian 16:  EM64L-G16RevA.03 25-Dec-2016

 -------------
 #p 6-31g* mp2
 -------------

 ------------------------------------------------------
 Input file generated by CHIRIPA (05-May-2021 14:57:23)
 ------------------------------------------------------
 Symbolic Z-matrix:
 Charge =  0 Multiplicity = 1

                         Standard orientation:
 ---------------------------------------------------------------------
 Center     Atomic      Atomic             Coordinates (Angstroms)
 Number     Number       Type             X           Y           Z
 ---------------------------------------------------------------------
      1          6           0       -3.624002   -1.407851   -0.576257
      2          6           0       -2.433929   -1.316908   -1.305623
      3          6           0       -1.595287   -0.207768   -1.160589
      4          6           0       -1.979295    0.796576   -0.273391
      5          6           0       -3.158612    0.734955    0.467355
      6          6           0       -3.981915   -0.383436    0.306348
      7          1           0       -4.269522   -2.273051   -0.695127
      8          1           0       -2.153434   -2.110975   -1.991790
      9          1           0       -0.668339   -0.111785   -1.712833
     10          1           0       -3.411509    1.542413    1.143722
     11          1           0       -4.905552   -0.451382    0.874083
     12          7           0       -1.099582    1.975669   -0.111395
     13          8           0       -1.460448    2.847080    0.676676
     14          8           0       -0.065854    2.006106   -0.775562
     15          6           0        3.953327    0.733740   -0.811514
     16          6           0        3.503553    1.089130    0.464387
     17          6           0        2.490678    0.356074    1.089897
     18          6           0        1.947457   -0.731405    0.407556
     19          6           0        2.374187   -1.110405   -0.864274
     20          6           0        3.388205   -0.362959   -1.470610
     21          1           0        4.740596    1.308783   -1.289977
     22          1           0        3.940601    1.940361    0.978624
     23          1           0        2.123603    0.609220    2.077111
     24          1           0        1.919196   -1.964012   -1.351877
     25          1           0        3.735527   -0.641265   -2.461549
     26          7           0        0.874567   -1.515075    1.059605
     27          8           0        0.412300   -2.468876    0.437343
     28          8           0        0.516219   -1.160676    2.180597
 ---------------------------------------------------------------------

 SCF Done:  E(RHF) =  -868.338587218     A.U. after   16 cycles
 E2 =    -0.2603987119D+01 EUMP2 =    -0.87094257433694D+03

 The electronic state is 1-A.
 Alpha  occ. eigenvalues --  -20.60689 -20.60659 -20.60470 -20.60462 -15.85673
 Alpha  occ. eigenvalues --  -15.85483 -11.30710 -11.30530 -11.27353 -11.27181
 Alpha  occ. eigenvalues --  -11.27044 -11.27020 -11.26931 -11.26692 -11.26292
 Alpha  occ. eigenvalues --  -11.26132 -11.26004 -11.25970  -1.59738  -1.59542
 Alpha  occ. eigenvalues --   -1.39308  -1.39105  -1.18847  -1.18645  -1.08320
 Alpha  occ. eigenvalues --   -1.08106  -1.04226  -1.04003  -0.95221  -0.95005
 Alpha  occ. eigenvalues --   -0.85670  -0.85436  -0.82083  -0.81853  -0.77174
 Alpha  occ. eigenvalues --   -0.76947  -0.71938  -0.71741  -0.71248  -0.70687
 Alpha  occ. eigenvalues --   -0.70017  -0.69770  -0.64540  -0.64318  -0.64263
 Alpha  occ. eigenvalues --   -0.64036  -0.61633  -0.61382  -0.54763  -0.54538
 Alpha  occ. eigenvalues --   -0.52592  -0.52357  -0.52267  -0.52085  -0.48713
 Alpha  occ. eigenvalues --   -0.48648  -0.48502  -0.48455  -0.44808  -0.44568
 Alpha  occ. eigenvalues --   -0.36768  -0.36579  -0.35741  -0.35465
 Alpha virt. eigenvalues --    0.05196   0.05687   0.11678   0.12184   0.16857
 Alpha virt. eigenvalues --    0.17270   0.21667   0.22252   0.27229   0.28105
 Alpha virt. eigenvalues --    0.28747   0.29115   0.31492   0.31564   0.32742

 Mulliken charges:
               1
     1  C   -0.168523
     2  C   -0.201158
     3  C   -0.177349
     4  C    0.157878
     5  C   -0.167978
     6  C   -0.216160
     7  H    0.224604
     8  H    0.222250
     9  H    0.269744
    10  H    0.273097
    11  H    0.221707
    12  N    0.487321
    13  O   -0.461742
    14  O   -0.466079
    15  C   -0.166592
    16  C   -0.209679
    17  C   -0.161835
    18  C    0.161069
    19  C   -0.177985
    20  C   -0.215677
    21  H    0.225004
    22  H    0.224939
    23  H    0.275802
    24  H    0.266518
    25  H    0.220001
    26  N    0.487094
    27  O   -0.467031
    28  O   -0.459241
 Sum of Mulliken charges =  -0.00000

 Dipole moment (field-independent basis, Debye):
    X=              0.7304    Y=             -1.3084    Z=             -2.7267  Tot=              3.1113
 Quadrupole moment (field-independent basis, Debye-Ang):
   XX=            -76.0669   YY=           -114.2672   ZZ=           -101.8234
   XY=              8.4372   XZ=             -3.1691   YZ=              7.8721

 Normal termination of Gaussian 16 at Thu May  6 01:49:48 2021.
