 Gaussian 16, Revision A.03,
 Gaussian 16:  EM64L-G16RevA.03 25-Dec-2016

 -------------
 #p 6-31g* mp2
 -------------

 ------------------------------------------------------
 Input file generated by CHIRIPA (05-May-2021 14:57:24)
 ------------------------------------------------------
 Symbolic Z-matrix:
 Charge =  0 Multiplicity = 1

                         Standard orientation:
 ---------------------------------------------------------------------
 Center     Atomic      Atomic             Coordinates (Angstroms)
 Number     Number       Type             X           Y           Z
 ---------------------------------------------------------------------
      1          6           0       -2.865140   -2.197307    1.218075
      2          6           0       -2.755765   -2.072972   -0.170845
      3          6           0       -2.823206   -0.815764   -0.778651
      4          6           0       -3.001444    0.300987    0.036450
      5          6           0       -3.113771    0.209672    1.422932
      6          6           0       -3.043480   -1.057598    2.009136
      7          1           0       -2.811644   -3.177845    1.681843
      8          1           0       -2.617213   -2.956350   -0.787686
      9          1           0       -2.741491   -0.690775   -1.851553
     10          1           0       -3.251347    1.108559    2.011569
     11          1           0       -3.128732   -1.151146    3.088036
     12          7           0       -3.074349    1.637262   -0.595572
     13          8           0       -3.231832    2.605677    0.144704
     14          8           0       -2.972628    1.690918   -1.819260
     15          6           0        4.976934    1.097223    0.873345
     16          6           0        5.124422   -0.183207    0.329959
     17          6           0        4.030100   -0.845355   -0.234458
     18          6           0        2.797283   -0.194635   -0.238641
     19          6           0        2.618451    1.080771    0.294885
     20          6           0        3.726624    1.724020    0.854109
     21          1           0        5.832410    1.604254    1.309781
     22          1           0        6.094236   -0.672411    0.343512
     23          1           0        4.116143   -1.836900   -0.662070
     24          1           0        1.639121    1.542875    0.266771
     25          1           0        3.609135    2.718388    1.275383
     26          7           0        1.631441   -0.885617   -0.833415
     27          8           0        0.555942   -0.290753   -0.824770
     28          8           0        1.815229   -2.008989   -1.296981
 ---------------------------------------------------------------------

 SCF Done:  E(RHF) =  -868.338787283     A.U. after   16 cycles
 E2 =    -0.2599837272D+01 EUMP2 =    -0.87093862455534D+03

 The electronic state is 1-A.
 Alpha  occ. eigenvalues --  -20.61035 -20.60994 -20.59835 -20.59790 -15.86049
 Alpha  occ. eigenvalues --  -15.84859 -11.31283 -11.29964 -11.27860 -11.27802
 Alpha  occ. eigenvalues --  -11.27568 -11.26846 -11.26799 -11.26662 -11.26477
 Alpha  occ. eigenvalues --  -11.26350 -11.25651 -11.25450  -1.60086  -1.58891
 Alpha  occ. eigenvalues --   -1.39642  -1.38452  -1.19447  -1.18153  -1.08871
 Alpha  occ. eigenvalues --   -1.07620  -1.04827  -1.03539  -0.95728  -0.94491
 Alpha  occ. eigenvalues --   -0.86233  -0.84973  -0.82562  -0.81340  -0.77621
 Alpha  occ. eigenvalues --   -0.76395  -0.72302  -0.71393  -0.71103  -0.70556
 Alpha  occ. eigenvalues --   -0.70184  -0.69343  -0.65103  -0.64829  -0.63845
 Alpha  occ. eigenvalues --   -0.63594  -0.62171  -0.60918  -0.55343  -0.54131
 Alpha  occ. eigenvalues --   -0.53171  -0.52917  -0.51870  -0.51674  -0.49043
 Alpha  occ. eigenvalues --   -0.49015  -0.47862  -0.47830  -0.45064  -0.43917
 Alpha  occ. eigenvalues --   -0.37428  -0.36426  -0.36147  -0.35047
 Alpha virt. eigenvalues --    0.04902   0.06156   0.11229   0.12559   0.16419
 Alpha virt. eigenvalues --    0.17663   0.21388   0.22484   0.27314   0.28265
 Alpha virt. eigenvalues --    0.28415   0.29355   0.30945   0.31957   0.32513

 Mulliken charges:
               1
     1  C   -0.171339
     2  C   -0.214275
     3  C   -0.147796
     4  C    0.159375
     5  C   -0.173737
     6  C   -0.220395
     7  H    0.221116
     8  H    0.223906
     9  H    0.276517
    10  H    0.269179
    11  H    0.216841
    12  N    0.488038
    13  O   -0.469138
    14  O   -0.459417
    15  C   -0.170507
    16  C   -0.218797
    17  C   -0.171172
    18  C    0.157641
    19  C   -0.170610
    20  C   -0.218952
    21  H    0.226147
    22  H    0.223274
    23  H    0.274465
    24  H    0.279069
    25  H    0.225711
    26  N    0.490535
    27  O   -0.461390
    28  O   -0.464289
 Sum of Mulliken charges =  -0.00000

 Dipole moment (field-independent basis, Debye):
    X=              4.5984    Y=             -2.3282    Z=              4.0809  Tot=              6.5742
 Quadrupole moment (field-independent basis, Debye-Ang):
   XX=            -83.5942   YY=           -105.7166   ZZ=           -102.6166
   XY=             18.1137   XZ=             -2.1797   YZ=              2.8947

 Normal termination of Gaussian 16 at Thu May  6 06:41:14 2021.
