 Gaussian 16, Revision A.03,
 Gaussian 16:  EM64L-G16RevA.03 25-Dec-2016

 -------------
 #p 6-31g* mp2
 -------------

 ------------------------------------------------------
 Input file generated by CHIRIPA (05-May-2021 14:55:22)
 ------------------------------------------------------
 Symbolic Z-matrix:
 Charge =  0 Multiplicity = 1

                         Standard orientation:
 ---------------------------------------------------------------------
 Center     Atomic      Atomic             Coordinates (Angstroms)
 Number     Number       Type             X           Y           Z
 ---------------------------------------------------------------------
      1          6           0        3.601616    1.812172    0.412583
      2          6           0        2.402832    1.590723    1.098440
      3          6           0        1.694906    0.397852    0.923946
      4          6           0        2.217091   -0.556233    0.051975
      5          6           0        3.408772   -0.365062   -0.645621
      6          6           0        4.099881    0.835294   -0.455727
      7          1           0        4.145018    2.741730    0.554116
      8          1           0        2.013491    2.347603    1.773415
      9          1           0        0.764468    0.200417    1.442330
     10          1           0        3.771790   -1.138270   -1.311793
     11          1           0        5.030623    1.004549   -0.989691
     12          7           0        1.476543   -1.823035   -0.140905
     13          8           0        1.957776   -2.647787   -0.914750
     14          8           0        0.428891   -1.967215    0.485413
     15          6           0       -3.223597   -0.130468    0.339890
     16          6           0       -3.182412   -1.492021   -0.354705
     17          6           0       -3.644399   -2.632720    0.552580
     18          1           0       -2.592196   -0.165021    1.238269
     19          1           0       -4.248005    0.066360    0.685202
     20          1           0       -2.158677   -1.685606   -0.699826
     21          1           0       -3.813831   -1.454164   -1.251640
     22          1           0       -4.673620   -2.466463    0.886744
     23          1           0       -3.009061   -2.699222    1.441694
     24          1           0       -3.606992   -3.596875    0.035990
     25          6           0       -2.764609    1.019938   -0.554327
     26          6           0       -2.805793    2.381491    0.140268
     27          6           0       -2.343806    3.522190   -0.767018
     28          1           0       -1.740200    0.823110   -0.899640
     29          1           0       -3.396009    1.054491   -1.452706
     30          1           0       -2.174373    2.343634    1.037203
     31          1           0       -3.829528    2.575076    0.485389
     32          1           0       -2.979144    3.588691   -1.656131
     33          1           0       -1.314586    3.355934   -1.101181
     34          1           0       -2.381214    4.486345   -0.250427
 ---------------------------------------------------------------------

 SCF Done:  E(RHF) =  -669.536412722     A.U. after   15 cycles
 E2 =    -0.2092049080D+01 EUMP2 =    -0.67162846180156D+03

 The electronic state is 1-A.
 Alpha  occ. eigenvalues --  -20.61024 -20.61019 -15.86046 -11.31347 -11.27907
 Alpha  occ. eigenvalues --  -11.27897 -11.27629 -11.26904 -11.26894 -11.21562
 Alpha  occ. eigenvalues --  -11.21133 -11.21036 -11.20731 -11.20436 -11.19950
 Alpha  occ. eigenvalues --   -1.60079  -1.39636  -1.19509  -1.08916  -1.07925
 Alpha  occ. eigenvalues --   -1.04900  -1.02951  -0.95762  -0.95439  -0.86467
 Alpha  occ. eigenvalues --   -0.86301  -0.82597  -0.79105  -0.77669  -0.77626
 Alpha  occ. eigenvalues --   -0.72274  -0.71392  -0.70614  -0.65170  -0.64905
 Alpha  occ. eigenvalues --   -0.64545  -0.62245  -0.60321  -0.58888  -0.57019
 Alpha  occ. eigenvalues --   -0.55402  -0.54728  -0.53232  -0.52988  -0.52157
 Alpha  occ. eigenvalues --   -0.51859  -0.49412  -0.49034  -0.49020  -0.47401
 Alpha  occ. eigenvalues --   -0.46170  -0.45388  -0.45178  -0.44659  -0.43227
 Alpha  occ. eigenvalues --   -0.37482  -0.36498
 Alpha virt. eigenvalues --    0.04830   0.11117   0.16309   0.20362   0.22907
 Alpha virt. eigenvalues --    0.24795   0.25965   0.27494   0.27876   0.28382
 Alpha virt. eigenvalues --    0.29203   0.31044   0.31900   0.32171   0.32603

 Mulliken charges:
               1
     1  C   -0.170470
     2  C   -0.218697
     3  C   -0.172019
     4  C    0.157888
     5  C   -0.170609
     6  C   -0.218479
     7  H    0.226386
     8  H    0.224518
     9  H    0.276698
    10  H    0.275985
    11  H    0.224095
    12  N    0.488750
    13  O   -0.458123
    14  O   -0.461020
    15  C   -0.296776
    16  C   -0.304384
    17  C   -0.474368
    18  H    0.147917
    19  H    0.145776
    20  H    0.172748
    21  H    0.144980
    22  H    0.147242
    23  H    0.160784
    24  H    0.160999
    25  C   -0.298773
    26  C   -0.297393
    27  C   -0.475601
    28  H    0.148330
    29  H    0.149875
    30  H    0.143322
    31  H    0.153016
    32  H    0.157012
    33  H    0.152913
    34  H    0.157481
 Sum of Mulliken charges =  -0.00000

 Dipole moment (field-independent basis, Debye):
    X=              2.8427    Y=              4.3018    Z=              0.6380  Tot=              5.1955
 Quadrupole moment (field-independent basis, Debye-Ang):
   XX=            -80.7780   YY=           -100.7720   ZZ=            -93.3821
   XY=              7.0983   XZ=             -0.4077   YZ=              1.5145

 Normal termination of Gaussian 16 at Thu May  6 04:38:00 2021.
