 Gaussian 16, Revision A.03,
 Gaussian 16:  EM64L-G16RevA.03 25-Dec-2016

 -------------
 #p 6-31g* mp2
 -------------

 ------------------------------------------------------
 Input file generated by CHIRIPA (05-May-2021 14:57:22)
 ------------------------------------------------------
 Symbolic Z-matrix:
 Charge =  0 Multiplicity = 1

                         Standard orientation:
 ---------------------------------------------------------------------
 Center     Atomic      Atomic             Coordinates (Angstroms)
 Number     Number       Type             X           Y           Z
 ---------------------------------------------------------------------
      1          6           0        5.925117   -1.171673    0.794541
      2          6           0        5.880974    0.210769    1.002934
      3          6           0        4.780924    0.958840    0.573017
      4          6           0        3.737849    0.289085   -0.064724
      5          6           0        3.752441   -1.087028   -0.286962
      6          6           0        4.862583   -1.815025    0.151392
      7          1           0        6.783582   -1.744995    1.131788
      8          1           0        6.704714    0.713065    1.502130
      9          1           0        4.720819    2.030181    0.721455
     10          1           0        2.916138   -1.559706   -0.787552
     11          1           0        4.894146   -2.888532   -0.011799
     12          7           0        2.567934    1.070409   -0.524323
     13          8           0        1.661782    0.456685   -1.083669
     14          8           0        2.579259    2.281739   -0.316509
     15          6           0       -6.256104    0.254109    0.875832
     16          6           0       -5.826765   -1.052446    0.620676
     17          6           0       -4.540413   -1.293878    0.129192
     18          6           0       -3.705851   -0.200379   -0.096762
     19          6           0       -4.104479    1.112891    0.147588
     20          6           0       -5.395109    1.330710    0.638891
     21          1           0       -7.257035    0.432488    1.257558
     22          1           0       -6.493273   -1.890476    0.803752
     23          1           0       -4.182327   -2.295206   -0.077048
     24          1           0       -3.417395    1.927957   -0.044769
     25          1           0       -5.725846    2.346462    0.836136
     26          7           0       -2.341783   -0.443473   -0.616978
     27          8           0       -1.625679    0.537061   -0.807720
     28          8           0       -2.014561   -1.609942   -0.824131
 ---------------------------------------------------------------------

 SCF Done:  E(RHF) =  -868.334956434     A.U. after   16 cycles
 E2 =    -0.2600288529D+01 EUMP2 =    -0.87093524496340D+03

 The electronic state is 1-A.
 Alpha  occ. eigenvalues --  -20.59786 -20.59674 -20.59548 -20.59402 -15.84795
 Alpha  occ. eigenvalues --  -15.84528 -11.30495 -11.30268 -11.27132 -11.27072
 Alpha  occ. eigenvalues --  -11.26922 -11.26921 -11.26834 -11.26724 -11.26216
 Alpha  occ. eigenvalues --  -11.26179 -11.26015 -11.25969  -1.58809  -1.58556
 Alpha  occ. eigenvalues --   -1.38354  -1.38094  -1.18704  -1.18485  -1.08038
 Alpha  occ. eigenvalues --   -1.07817  -1.04154  -1.03940  -0.94815  -0.94577
 Alpha  occ. eigenvalues --   -0.85537  -0.85322  -0.81644  -0.81401  -0.76634
 Alpha  occ. eigenvalues --   -0.76390  -0.71058  -0.70646  -0.70170  -0.69901
 Alpha  occ. eigenvalues --   -0.69811  -0.69593  -0.64346  -0.64167  -0.64118
 Alpha  occ. eigenvalues --   -0.63950  -0.61495  -0.61276  -0.54651  -0.54446
 Alpha  occ. eigenvalues --   -0.52471  -0.52260  -0.52249  -0.52036  -0.47906
 Alpha  occ. eigenvalues --   -0.47772  -0.47512  -0.47291  -0.43720  -0.43374
 Alpha  occ. eigenvalues --   -0.36710  -0.36499  -0.35775  -0.35563
 Alpha virt. eigenvalues --    0.05889   0.06159   0.11873   0.12085   0.17323
 Alpha virt. eigenvalues --    0.17573   0.21969   0.22170   0.27858   0.28060
 Alpha virt. eigenvalues --    0.28899   0.29118   0.31493   0.31691   0.33178

 Mulliken charges:
               1
     1  C   -0.172195
     2  C   -0.218845
     3  C   -0.172107
     4  C    0.158408
     5  C   -0.171923
     6  C   -0.219039
     7  H    0.222227
     8  H    0.220020
     9  H    0.273439
    10  H    0.281792
    11  H    0.221623
    12  N    0.485606
    13  O   -0.440601
    14  O   -0.468615
    15  C   -0.171994
    16  C   -0.218639
    17  C   -0.171971
    18  C    0.158656
    19  C   -0.171691
    20  C   -0.218721
    21  H    0.223092
    22  H    0.220694
    23  H    0.273467
    24  H    0.279060
    25  H    0.222143
    26  N    0.485689
    27  O   -0.442161
    28  O   -0.467416
 Sum of Mulliken charges =  -0.00000

 Dipole moment (field-independent basis, Debye):
    X=             -0.7699    Y=             -1.8240    Z=              3.2640  Tot=              3.8175
 Quadrupole moment (field-independent basis, Debye-Ang):
   XX=            -41.7900   YY=            -99.0522   ZZ=           -106.3999
   XY=             -8.9697   XZ=              0.1428   YZ=              1.8964

 Normal termination of Gaussian 16 at Wed May  5 22:36:46 2021.
