 Gaussian 16, Revision A.03,
 Gaussian 16:  EM64L-G16RevA.03 25-Dec-2016

 -------------
 #p 6-31g* mp2
 -------------

 ------------------------------------------------------
 Input file generated by CHIRIPA (05-May-2021 14:51:12)
 ------------------------------------------------------
 Symbolic Z-matrix:
 Charge =  0 Multiplicity = 1

                         Standard orientation:
 ---------------------------------------------------------------------
 Center     Atomic      Atomic             Coordinates (Angstroms)
 Number     Number       Type             X           Y           Z
 ---------------------------------------------------------------------
      1          6           0        2.546688    0.757656   -0.427867
      2          6           0        2.989955    2.203651   -0.202929
      3          6           0        1.844259    3.204152   -0.358405
      4          1           0        2.111946    0.666203   -1.432646
      5          1           0        1.745431    0.512328    0.282904
      6          1           0        3.791092    2.445741   -0.912990
      7          1           0        3.423867    2.291629    0.801360
      8          1           0        1.046209    2.990654    0.360021
      9          1           0        1.415520    3.145641   -1.364069
     10          1           0        2.183338    4.231606   -0.193409
     11          6           0        3.680956   -0.254304   -0.275869
     12          6           0        3.237690   -1.700299   -0.500808
     13          6           0        4.383386   -2.700800   -0.345332
     14          1           0        4.482214   -0.008977   -0.986641
     15          1           0        4.115699   -0.162851    0.728909
     16          1           0        2.803777   -1.788278   -1.505096
     17          1           0        2.436552   -1.942389    0.209254
     18          1           0        4.812124   -2.642289    0.660333
     19          1           0        5.181436   -2.487302   -1.063758
     20          1           0        4.044306   -3.728254   -0.510328
     21          6           0       -3.550384   -0.516888   -0.216031
     22          6           0       -4.938576    0.122410   -0.263003
     23          6           0       -5.800159   -0.418437   -1.404472
     24          1           0       -3.041804   -0.344785   -1.174505
     25          1           0       -3.658941   -1.605250   -0.110789
     26          1           0       -4.827416    1.209378   -0.366734
     27          1           0       -5.443836   -0.051068    0.695763
     28          1           0       -5.940615   -1.499379   -1.302307
     29          1           0       -5.320691   -0.231770   -2.370841
     30          1           0       -6.788183    0.052142   -1.419436
     31          6           0       -2.677260    0.013535    0.919767
     32          6           0       -1.289069   -0.625762    0.966740
     33          6           0       -0.427485   -0.084915    2.108209
     34          1           0       -2.568703    1.101899    0.814526
     35          1           0       -3.185841   -0.158567    1.878241
     36          1           0       -0.783808   -0.452283    0.007973
     37          1           0       -1.400229   -1.712730    1.070470
     38          1           0       -0.906953   -0.271582    3.074577
     39          1           0       -0.287030    0.996027    2.006044
     40          1           0        0.560539   -0.555493    2.123172
 ---------------------------------------------------------------------

 SCF Done:  E(RHF) =  -470.732835717     A.U. after   11 cycles
 E2 =    -0.1583910270D+01 EUMP2 =    -0.47231674598701D+03

 The electronic state is 1-A.
 Alpha  occ. eigenvalues --  -11.21621 -11.21603 -11.21601 -11.21578 -11.21417
 Alpha  occ. eigenvalues --  -11.21361 -11.21356 -11.21259 -11.21166 -11.21092
 Alpha  occ. eigenvalues --  -11.21072 -11.21068  -1.08465  -1.08390  -1.03572
 Alpha  occ. eigenvalues --   -1.03512  -0.96043  -0.95950  -0.87049  -0.86977
 Alpha  occ. eigenvalues --   -0.79628  -0.79574  -0.78286  -0.78196  -0.65200
 Alpha  occ. eigenvalues --   -0.64953  -0.61074  -0.60816  -0.59407  -0.59331
 Alpha  occ. eigenvalues --   -0.57723  -0.57496  -0.55365  -0.55207  -0.52748
 Alpha  occ. eigenvalues --   -0.52656  -0.52474  -0.52348  -0.49982  -0.49901
 Alpha  occ. eigenvalues --   -0.47963  -0.47872  -0.46700  -0.46561  -0.45890
 Alpha  occ. eigenvalues --   -0.45751  -0.45671  -0.45546  -0.43803  -0.43758
 Alpha virt. eigenvalues --    0.20240   0.22771   0.23508   0.24349   0.26193
 Alpha virt. eigenvalues --    0.26365   0.26459   0.27575   0.28085   0.29443
 Alpha virt. eigenvalues --    0.30568   0.31252   0.31624   0.31804   0.32235

 Mulliken charges:
               1
     1  C   -0.311028
     2  C   -0.298647
     3  C   -0.477714
     4  H    0.148219
     5  H    0.166081
     6  H    0.151731
     7  H    0.151852
     8  H    0.155838
     9  H    0.154897
    10  H    0.160459
    11  C   -0.297650
    12  C   -0.301604
    13  C   -0.475634
    14  H    0.149394
    15  H    0.149176
    16  H    0.152027
    17  H    0.152988
    18  H    0.155114
    19  H    0.155308
    20  H    0.160246
    21  C   -0.298343
    22  C   -0.299717
    23  C   -0.475720
    24  H    0.149928
    25  H    0.149536
    26  H    0.152090
    27  H    0.151902
    28  H    0.155162
    29  H    0.155216
    30  H    0.160278
    31  C   -0.298235
    32  C   -0.302697
    33  C   -0.482874
    34  H    0.149758
    35  H    0.149603
    36  H    0.155953
    37  H    0.152111
    38  H    0.157371
    39  H    0.156666
    40  H    0.160959
 Sum of Mulliken charges =  -0.00000

 Dipole moment (field-independent basis, Debye):
    X=             -0.0259    Y=             -0.0103    Z=              0.0111  Tot=              0.0300
 Quadrupole moment (field-independent basis, Debye-Ang):
   XX=            -85.7754   YY=            -85.0927   ZZ=            -84.0216
   XY=              0.6655   XZ=             -1.0285   YZ=             -0.6907

 Normal termination of Gaussian 16 at Thu May  6 02:21:08 2021.
