 Gaussian 16, Revision A.03,
 Gaussian 16:  EM64L-G16RevA.03 25-Dec-2016

 -------------
 #p 6-31g* mp2
 -------------

 ------------------------------------------------------
 Input file generated by CHIRIPA (05-May-2021 14:51:11)
 ------------------------------------------------------
 Symbolic Z-matrix:
 Charge =  0 Multiplicity = 1

                         Standard orientation:
 ---------------------------------------------------------------------
 Center     Atomic      Atomic             Coordinates (Angstroms)
 Number     Number       Type             X           Y           Z
 ---------------------------------------------------------------------
      1          6           0        3.926146    0.082602   -0.319847
      2          6           0        2.676484   -0.129762    0.535273
      3          6           0        1.402497    0.372603   -0.144712
      4          1           0        4.028456    1.152162   -0.549021
      5          1           0        3.795484   -0.432082   -1.281836
      6          1           0        2.810033    0.384014    1.495906
      7          1           0        2.577243   -1.198916    0.762598
      8          1           0        1.241855   -0.147802   -1.094435
      9          1           0        1.475967    1.444123   -0.356960
     10          1           0        0.521345    0.210926    0.484010
     11          6           0        5.207805   -0.414542    0.346431
     12          6           0        6.457466   -0.202177   -0.508690
     13          6           0        7.731454   -0.704542    0.171295
     14          1           0        5.338466    0.100143    1.308420
     15          1           0        5.105495   -1.484101    0.575604
     16          1           0        6.556707    0.866977   -0.736015
     17          1           0        6.323918   -0.715953   -1.469323
     18          1           0        7.657983   -1.776062    0.383544
     19          1           0        7.892096   -0.184138    1.121018
     20          1           0        8.612606   -0.542865   -0.457427
     21          6           0       -4.106994    0.693756    0.292145
     22          6           0       -2.795460    0.871389   -0.473563
     23          6           0       -1.885879    1.930656    0.149662
     24          1           0       -4.635237    1.656283    0.330186
     25          1           0       -3.882060    0.419341    1.332095
     26          1           0       -3.022825    1.144035   -1.512112
     27          1           0       -2.270369   -0.091717   -0.509951
     28          1           0       -1.630039    1.661140    1.179471
     29          1           0       -2.386771    2.903912    0.171616
     30          1           0       -0.954002    2.041326   -0.413558
     31          6           0       -5.026956   -0.361817   -0.318728
     32          6           0       -6.338490   -0.539450    0.446979
     33          6           0       -7.248071   -1.598717   -0.176245
     34          1           0       -5.251891   -0.087401   -1.358679
     35          1           0       -4.498714   -1.324343   -0.356769
     36          1           0       -6.863582    0.423656    0.483368
     37          1           0       -6.111125   -0.812096    1.485529
     38          1           0       -6.747180   -2.571973   -0.198199
     39          1           0       -7.503912   -1.329201   -1.206055
     40          1           0       -8.179949   -1.709387    0.386974
 ---------------------------------------------------------------------

 SCF Done:  E(RHF) =  -470.732194582     A.U. after   11 cycles
 E2 =    -0.1582934346D+01 EUMP2 =    -0.47231512892747D+03

 The electronic state is 1-A.
 Alpha  occ. eigenvalues --  -11.21597 -11.21577 -11.21576 -11.21525 -11.21396
 Alpha  occ. eigenvalues --  -11.21362 -11.21337 -11.21301 -11.21068 -11.21052
 Alpha  occ. eigenvalues --  -11.21016 -11.20895  -1.08425  -1.08378  -1.03556
 Alpha  occ. eigenvalues --   -1.03440  -0.96067  -0.95834  -0.87127  -0.86813
 Alpha  occ. eigenvalues --   -0.79646  -0.79484  -0.78236  -0.78196  -0.65053
 Alpha  occ. eigenvalues --   -0.65021  -0.60948  -0.60909  -0.59547  -0.59099
 Alpha  occ. eigenvalues --   -0.57587  -0.57531  -0.55299  -0.55203  -0.52974
 Alpha  occ. eigenvalues --   -0.52432  -0.52408  -0.52132  -0.49954  -0.49801
 Alpha  occ. eigenvalues --   -0.47955  -0.47794  -0.46651  -0.46539  -0.45778
 Alpha  occ. eigenvalues --   -0.45736  -0.45703  -0.45660  -0.43870  -0.43562
 Alpha virt. eigenvalues --    0.22040   0.23002   0.23588   0.24943   0.26481
 Alpha virt. eigenvalues --    0.26598   0.26929   0.27525   0.27604   0.28770
 Alpha virt. eigenvalues --    0.29494   0.31382   0.31417   0.31947   0.32310

 Mulliken charges:
               1
     1  C   -0.298600
     2  C   -0.300292
     3  C   -0.479052
     4  H    0.149636
     5  H    0.149394
     6  H    0.151904
     7  H    0.151475
     8  H    0.154690
     9  H    0.154470
    10  H    0.167220
    11  C   -0.298219
    12  C   -0.299608
    13  C   -0.475693
    14  H    0.149511
    15  H    0.149566
    16  H    0.151933
    17  H    0.151888
    18  H    0.155145
    19  H    0.155180
    20  H    0.160235
    21  C   -0.298096
    22  C   -0.301412
    23  C   -0.480251
    24  H    0.149622
    25  H    0.149077
    26  H    0.151718
    27  H    0.152851
    28  H    0.152869
    29  H    0.154026
    30  H    0.169248
    31  C   -0.298180
    32  C   -0.299590
    33  C   -0.475668
    34  H    0.149456
    35  H    0.149442
    36  H    0.151904
    37  H    0.151812
    38  H    0.155094
    39  H    0.155145
    40  H    0.160151
 Sum of Mulliken charges =  -0.00000

 Dipole moment (field-independent basis, Debye):
    X=              0.0251    Y=              0.0060    Z=             -0.0089  Tot=              0.0273
 Quadrupole moment (field-independent basis, Debye-Ang):
   XX=            -86.4705   YY=            -84.0809   ZZ=            -84.5300
   XY=             -0.3815   XZ=             -0.2596   YZ=             -0.1851

 Normal termination of Gaussian 16 at Thu May  6 05:27:05 2021.
