 Gaussian 16, Revision A.03,
 Gaussian 16:  EM64L-G16RevA.03 25-Dec-2016

 -------------
 #p 6-31g* mp2
 -------------

 ------------------------------------------------------
 Input file generated by CHIRIPA (05-May-2021 14:57:24)
 ------------------------------------------------------
 Symbolic Z-matrix:
 Charge =  0 Multiplicity = 1

                         Standard orientation:
 ---------------------------------------------------------------------
 Center     Atomic      Atomic             Coordinates (Angstroms)
 Number     Number       Type             X           Y           Z
 ---------------------------------------------------------------------
      1          6           0       -4.074729    1.920634    0.761060
      2          6           0       -2.784622    2.044571    0.234957
      3          6           0       -2.088878    0.917387   -0.212194
      4          6           0       -2.716235   -0.323919   -0.118010
      5          6           0       -4.000500   -0.479858    0.401254
      6          6           0       -4.677488    0.661036    0.842386
      7          1           0       -4.607914    2.801583    1.106080
      8          1           0       -2.314031    3.021529    0.170581
      9          1           0       -1.089149    0.984696   -0.623814
     10          1           0       -4.443477   -1.467053    0.452605
     11          1           0       -5.679300    0.561782    1.250511
     12          7           0       -1.989610   -1.524475   -0.588203
     13          8           0       -2.564375   -2.606826   -0.494401
     14          8           0       -0.859076   -1.360387   -1.041639
     15          6           0        2.479783    0.953289   -2.316329
     16          6           0        2.841668    1.851018   -1.306554
     17          6           0        3.041644    1.403828    0.002865
     18          6           0        2.870429    0.046079    0.268368
     19          6           0        2.510313   -0.872983   -0.715976
     20          6           0        2.315550   -0.403454   -2.018342
     21          1           0        2.326461    1.309354   -3.330778
     22          1           0        2.969915    2.905237   -1.535071
     23          1           0        3.322192    2.077084    0.803763
     24          1           0        2.389865   -1.918041   -0.457588
     25          1           0        2.034546   -1.102920   -2.800536
     26          7           0        3.079375   -0.439166    1.650857
     27          8           0        2.922291   -1.640275    1.858939
     28          8           0        3.396275    0.390797    2.500195
 ---------------------------------------------------------------------

 SCF Done:  E(RHF) =  -868.338875107     A.U. after   16 cycles
 E2 =    -0.2600399067D+01 EUMP2 =    -0.87093927417404D+03

 The electronic state is 1-A.
 Alpha  occ. eigenvalues --  -20.61107 -20.61057 -20.60269 -20.60236 -15.86123
 Alpha  occ. eigenvalues --  -15.85303 -11.31356 -11.30562 -11.27911 -11.27907
 Alpha  occ. eigenvalues --  -11.27646 -11.27232 -11.26986 -11.26922 -11.26916
 Alpha  occ. eigenvalues --  -11.26894 -11.26284 -11.25996  -1.60153  -1.59334
 Alpha  occ. eigenvalues --   -1.39713  -1.38888  -1.19521  -1.18753  -1.08945
 Alpha  occ. eigenvalues --   -1.08185  -1.04907  -1.04110  -0.95804  -0.95022
 Alpha  occ. eigenvalues --   -0.86313  -0.85532  -0.82653  -0.81831  -0.77705
 Alpha  occ. eigenvalues --   -0.76882  -0.72380  -0.71527  -0.71456  -0.70657
 Alpha  occ. eigenvalues --   -0.70632  -0.69877  -0.65184  -0.64916  -0.64397
 Alpha  occ. eigenvalues --   -0.64120  -0.62257  -0.61444  -0.55419  -0.54680
 Alpha  occ. eigenvalues --   -0.53240  -0.53015  -0.52469  -0.52200  -0.49122
 Alpha  occ. eigenvalues --   -0.49096  -0.48290  -0.48268  -0.45152  -0.44313
 Alpha  occ. eigenvalues --   -0.37497  -0.36792  -0.36503  -0.35634
 Alpha virt. eigenvalues --    0.04790   0.05653   0.11152   0.11949   0.16352
 Alpha virt. eigenvalues --    0.17111   0.21251   0.22024   0.27133   0.27949
 Alpha virt. eigenvalues --    0.28134   0.28900   0.30745   0.31531   0.32212

 Mulliken charges:
               1
     1  C   -0.169962
     2  C   -0.218304
     3  C   -0.171998
     4  C    0.158247
     5  C   -0.170049
     6  C   -0.218485
     7  H    0.226249
     8  H    0.222632
     9  H    0.276254
    10  H    0.276232
    11  H    0.224352
    12  N    0.492710
    13  O   -0.457736
    14  O   -0.470564
    15  C   -0.177270
    16  C   -0.223706
    17  C   -0.176126
    18  C    0.152761
    19  C   -0.156192
    20  C   -0.208545
    21  H    0.222710
    22  H    0.218193
    23  H    0.271522
    24  H    0.282134
    25  H    0.229819
    26  N    0.487936
    27  O   -0.457412
    28  O   -0.465404
 Sum of Mulliken charges =  -0.00000

 Dipole moment (field-independent basis, Debye):
    X=             -3.5140    Y=              5.5925    Z=             -3.2728  Tot=              7.3713
 Quadrupole moment (field-independent basis, Debye-Ang):
   XX=            -93.0569   YY=           -102.0267   ZZ=           -108.5764
   XY=             -3.0360   XZ=            -19.7333   YZ=              0.2702

 Normal termination of Gaussian 16 at Thu May  6 13:00:08 2021.
