 Gaussian 16, Revision A.03,
 Gaussian 16:  EM64L-G16RevA.03 25-Dec-2016

 -------------
 #p 6-31g* mp2
 -------------

 ------------------------------------------------------
 Input file generated by CHIRIPA (05-May-2021 14:53:13)
 ------------------------------------------------------
 Symbolic Z-matrix:
 Charge =  0 Multiplicity = 1

                         Standard orientation:
 ---------------------------------------------------------------------
 Center     Atomic      Atomic             Coordinates (Angstroms)
 Number     Number       Type             X           Y           Z
 ---------------------------------------------------------------------
      1          6           0        3.312468   -0.732429   -0.274689
      2          6           0        2.632022   -1.795207    0.588724
      3          6           0        1.501836   -2.518014   -0.144778
      4          1           0        2.561598   -0.001698   -0.605100
      5          1           0        3.708244   -1.206601   -1.183488
      6          1           0        2.238858   -1.319413    1.496280
      7          1           0        3.384634   -2.523387    0.917276
      8          1           0        1.882431   -3.018524   -1.041014
      9          1           0        0.730144   -1.807710   -0.458720
     10          1           0        1.029294   -3.273381    0.490820
     11          6           0        4.444452   -0.001132    0.444717
     12          6           0        5.124897    1.061646   -0.418695
     13          6           0        6.255083    1.784453    0.314807
     14          1           0        4.048676    0.473040    1.353517
     15          1           0        5.195322   -0.731863    0.775129
     16          1           0        4.372286    1.789826   -0.747247
     17          1           0        5.518062    0.585852   -1.326251
     18          1           0        7.026775    1.074149    0.628749
     19          1           0        5.874489    2.284963    1.211043
     20          1           0        6.727626    2.539820   -0.320791
     21          6           0       -3.028410    2.809225   -0.021474
     22          6           0       -4.047470    2.098330    0.620917
     23          6           0       -4.058470    0.700443    0.602504
     24          6           0       -3.030205    0.042664   -0.070762
     25          6           0       -2.001072    0.722673   -0.720196
     26          6           0       -2.010259    2.120342   -0.688805
     27          1           0       -3.027707    3.895052   -0.002130
     28          1           0       -4.839461    2.630683    1.139950
     29          1           0       -4.835199    0.125144    1.091526
     30          1           0       -1.225079    0.164152   -1.229418
     31          1           0       -1.217566    2.669817   -1.188565
     32          7           0       -3.031165   -1.437101   -0.097125
     33          8           0       -2.113862   -1.993096   -0.697176
     34          8           0       -3.949202   -2.012926    0.482763
 ---------------------------------------------------------------------

 SCF Done:  E(RHF) =  -669.535626875     A.U. after   15 cycles
 E2 =    -0.2091324711D+01 EUMP2 =    -0.67162695158560D+03

 The electronic state is 1-A.
 Alpha  occ. eigenvalues --  -20.60861 -20.60848 -15.85891 -11.31260 -11.27833
 Alpha  occ. eigenvalues --  -11.27821 -11.27568 -11.26845 -11.26835 -11.21657
 Alpha  occ. eigenvalues --  -11.21338 -11.21253 -11.21155 -11.21140 -11.20211
 Alpha  occ. eigenvalues --   -1.59922  -1.39477  -1.19432  -1.08826  -1.08290
 Alpha  occ. eigenvalues --   -1.04835  -1.03289  -0.95726  -0.95642  -0.86713
 Alpha  occ. eigenvalues --   -0.86234  -0.82495  -0.79364  -0.78100  -0.77537
 Alpha  occ. eigenvalues --   -0.72115  -0.71239  -0.70541  -0.65089  -0.64937
 Alpha  occ. eigenvalues --   -0.64833  -0.62190  -0.60688  -0.59117  -0.57319
 Alpha  occ. eigenvalues --   -0.55337  -0.54999  -0.53163  -0.52930  -0.52351
 Alpha  occ. eigenvalues --   -0.52130  -0.49690  -0.48873  -0.48855  -0.47656
 Alpha  occ. eigenvalues --   -0.46430  -0.45639  -0.45569  -0.44811  -0.43541
 Alpha  occ. eigenvalues --   -0.37410  -0.36438
 Alpha virt. eigenvalues --    0.04965   0.11190   0.16456   0.20732   0.22905
 Alpha virt. eigenvalues --    0.24073   0.25922   0.27181   0.27625   0.27859
 Alpha virt. eigenvalues --    0.29035   0.30299   0.31517   0.31918   0.32337

 Mulliken charges:
               1
     1  C   -0.295660
     2  C   -0.301442
     3  C   -0.476756
     4  H    0.140992
     5  H    0.150133
     6  H    0.149482
     7  H    0.150830
     8  H    0.152475
     9  H    0.162781
    10  H    0.166660
    11  C   -0.297853
    12  C   -0.298780
    13  C   -0.475516
    14  H    0.148405
    15  H    0.150840
    16  H    0.148016
    17  H    0.152471
    18  H    0.156185
    19  H    0.154428
    20  H    0.159419
    21  C   -0.170614
    22  C   -0.218542
    23  C   -0.170755
    24  C    0.157869
    25  C   -0.172352
    26  C   -0.219210
    27  H    0.225881
    28  H    0.223732
    29  H    0.275817
    30  H    0.278175
    31  H    0.223867
    32  N    0.489258
    33  O   -0.460451
    34  O   -0.459786
 Sum of Mulliken charges =  -0.00000

 Dipole moment (field-independent basis, Debye):
    X=             -0.1488    Y=              5.1197    Z=              0.1028  Tot=              5.1229
 Quadrupole moment (field-independent basis, Debye-Ang):
   XX=            -91.9756   YY=            -94.5207   ZZ=            -94.0703
   XY=            -17.0428   XZ=             -3.5372   YZ=             -0.3763

 Normal termination of Gaussian 16 at Wed May  5 18:32:59 2021.
