 Gaussian 16, Revision A.03,
 Gaussian 16:  EM64L-G16RevA.03 25-Dec-2016

 -------------
 #p 6-31g* mp2
 -------------

 ------------------------------------------------------
 Input file generated by CHIRIPA (05-May-2021 14:55:25)
 ------------------------------------------------------
 Symbolic Z-matrix:
 Charge =  0 Multiplicity = 1

                         Standard orientation:
 ---------------------------------------------------------------------
 Center     Atomic      Atomic             Coordinates (Angstroms)
 Number     Number       Type             X           Y           Z
 ---------------------------------------------------------------------
      1          6           0        4.116632    1.440158    0.734620
      2          6           0        2.981750    1.705493   -0.038789
      3          6           0        2.166884    0.660992   -0.485510
      4          6           0        2.518131   -0.642715   -0.138720
      5          6           0        3.642342   -0.939236    0.630379
      6          6           0        4.442731    0.120966    1.066151
      7          1           0        4.744016    2.257650    1.077391
      8          1           0        2.726060    2.729011   -0.297784
      9          1           0        1.282561    0.838028   -1.085552
     10          1           0        3.871551   -1.969895    0.872500
     11          1           0        5.323494   -0.088071    1.666654
     12          7           0        1.663132   -1.756792   -0.605848
     13          8           0        1.994258   -2.896608   -0.286768
     14          8           0        0.678047   -1.469095   -1.282218
     15          6           0       -3.151610    1.275511   -0.137300
     16          6           0       -1.626744    1.388337   -0.143459
     17          6           0       -1.137978    2.770269   -0.578391
     18          1           0       -3.533717    1.501647   -1.142189
     19          1           0       -3.566185    2.040163    0.534137
     20          1           0       -1.215097    0.622798   -0.813618
     21          1           0       -1.248208    1.161718    0.861514
     22          1           0       -1.520964    3.543885    0.094990
     23          1           0       -1.487666    3.001903   -1.589661
     24          1           0       -0.045080    2.828790   -0.575616
     25          6           0       -3.655545   -0.100210    0.295333
     26          6           0       -5.180410   -0.213037    0.301492
     27          6           0       -5.669176   -1.594970    0.736424
     28          1           0       -3.240969   -0.864864   -0.376103
     29          1           0       -3.273437   -0.326347    1.300222
     30          1           0       -5.558946    0.013582   -0.703481
     31          1           0       -5.592057    0.552502    0.971651
     32          1           0       -5.319489   -1.826603    1.747693
     33          1           0       -5.286190   -2.368585    0.063043
     34          1           0       -6.762074   -1.653489    0.733648
 ---------------------------------------------------------------------

 SCF Done:  E(RHF) =  -669.535241494     A.U. after   15 cycles
 E2 =    -0.2093180437D+01 EUMP2 =    -0.67162842193100D+03

 The electronic state is 1-A.
 Alpha  occ. eigenvalues --  -20.60867 -20.60861 -15.85901 -11.31195 -11.27779
 Alpha  occ. eigenvalues --  -11.27721 -11.27515 -11.26780 -11.26762 -11.21432
 Alpha  occ. eigenvalues --  -11.21359 -11.21197 -11.21126 -11.20880 -11.20635
 Alpha  occ. eigenvalues --   -1.59928  -1.39486  -1.19375  -1.08783  -1.08128
 Alpha  occ. eigenvalues --   -1.04778  -1.03335  -0.95835  -0.95613  -0.86828
 Alpha  occ. eigenvalues --   -0.86173  -0.82471  -0.79387  -0.77930  -0.77488
 Alpha  occ. eigenvalues --   -0.72133  -0.71238  -0.70501  -0.65043  -0.64849
 Alpha  occ. eigenvalues --   -0.64682  -0.62251  -0.60702  -0.59167  -0.57401
 Alpha  occ. eigenvalues --   -0.55271  -0.55076  -0.53106  -0.52857  -0.52543
 Alpha  occ. eigenvalues --   -0.52215  -0.49729  -0.48926  -0.48875  -0.47679
 Alpha  occ. eigenvalues --   -0.46360  -0.45484  -0.45352  -0.44781  -0.43568
 Alpha  occ. eigenvalues --   -0.37356  -0.36356
 Alpha virt. eigenvalues --    0.04973   0.11255   0.16415   0.20329   0.23305
 Alpha virt. eigenvalues --    0.24231   0.26347   0.26889   0.27567   0.28167
 Alpha virt. eigenvalues --    0.28966   0.30011   0.31596   0.31806   0.32564

 Mulliken charges:
               1
     1  C   -0.170418
     2  C   -0.222365
     3  C   -0.170107
     4  C    0.156171
     5  C   -0.170475
     6  C   -0.219014
     7  H    0.225791
     8  H    0.224740
     9  H    0.283105
    10  H    0.275470
    11  H    0.223487
    12  N    0.489898
    13  O   -0.459530
    14  O   -0.463207
    15  C   -0.297459
    16  C   -0.315436
    17  C   -0.478643
    18  H    0.149576
    19  H    0.146582
    20  H    0.175480
    21  H    0.150918
    22  H    0.157122
    23  H    0.158047
    24  H    0.144333
    25  C   -0.300483
    26  C   -0.299646
    27  C   -0.475812
    28  H    0.160751
    29  H    0.148736
    30  H    0.151386
    31  H    0.149336
    32  H    0.154744
    33  H    0.158456
    34  H    0.158469
 Sum of Mulliken charges =  -0.00000

 Dipole moment (field-independent basis, Debye):
    X=              3.0016    Y=              3.7340    Z=              1.6031  Tot=              5.0519
 Quadrupole moment (field-independent basis, Debye-Ang):
   XX=            -78.5140   YY=            -99.2148   ZZ=            -94.0146
   XY=              5.5332   XZ=              5.8267   YZ=             -2.6699

 Normal termination of Gaussian 16 at Thu May  6 16:03:35 2021.
