 Gaussian 16, Revision A.03,
 Gaussian 16:  EM64L-G16RevA.03 25-Dec-2016

 -------------
 #p 6-31g* mp2
 -------------

 ------------------------------------------------------
 Input file generated by CHIRIPA (05-May-2021 14:53:11)
 ------------------------------------------------------
 Symbolic Z-matrix:
 Charge =  0 Multiplicity = 1

                         Standard orientation:
 ---------------------------------------------------------------------
 Center     Atomic      Atomic             Coordinates (Angstroms)
 Number     Number       Type             X           Y           Z
 ---------------------------------------------------------------------
      1          6           0        4.434291   -0.953607    0.186481
      2          6           0        2.994368   -0.645720    0.598564
      3          6           0        2.168950   -1.907804    0.850795
      4          1           0        4.424799   -1.574460   -0.719829
      5          1           0        4.912592   -1.554730    0.972149
      6          1           0        2.519358   -0.044186   -0.187018
      7          1           0        3.007292   -0.025368    1.503889
      8          1           0        2.617000   -2.507945    1.649346
      9          1           0        2.126293   -2.526870   -0.051168
     10          1           0        1.142974   -1.664541    1.144148
     11          6           0        5.272051    0.297998   -0.069196
     12          6           0        6.711974   -0.009890   -0.481279
     13          6           0        7.537392    1.252195   -0.733511
     14          1           0        4.793751    0.899120   -0.854865
     15          1           0        5.281543    0.918850    0.837114
     16          1           0        6.699050   -0.630241   -1.386604
     17          1           0        7.186984   -0.611423    0.304303
     18          1           0        7.580049    1.871261    0.168453
     19          1           0        7.089342    1.852336   -1.532061
     20          1           0        8.563369    1.008932   -1.026863
     21          6           0       -1.575835    1.354133    0.455081
     22          6           0       -2.757077    2.100623    0.517874
     23          6           0       -3.990379    1.502634    0.242334
     24          6           0       -4.005746    0.149943   -0.094240
     25          6           0       -2.846115   -0.620454   -0.165185
     26          6           0       -1.624040   -0.001633    0.114353
     27          1           0       -0.622138    1.826757    0.670680
     28          1           0       -2.722661    3.153706    0.782219
     29          1           0       -4.920093    2.057027    0.283547
     30          1           0       -2.912251   -1.668359   -0.431527
     31          1           0       -0.708269   -0.583832    0.064812
     32          7           0       -5.305445   -0.494148   -0.388057
     33          8           0       -5.292111   -1.687440   -0.682190
     34          8           0       -6.312874    0.206501   -0.318655
 ---------------------------------------------------------------------

 SCF Done:  E(RHF) =  -669.535602076     A.U. after   15 cycles
 E2 =    -0.2090842460D+01 EUMP2 =    -0.67162644453617D+03

 The electronic state is 1-A.
 Alpha  occ. eigenvalues --  -20.60730 -20.60725 -15.85783 -11.31144 -11.27718
 Alpha  occ. eigenvalues --  -11.27707 -11.27450 -11.26729 -11.26688 -11.22652
 Alpha  occ. eigenvalues --  -11.22182 -11.22175 -11.22142 -11.22036 -11.21537
 Alpha  occ. eigenvalues --   -1.59805  -1.39359  -1.19316  -1.09196  -1.08711
 Alpha  occ. eigenvalues --   -1.04720  -1.04315  -0.96759  -0.95546  -0.87777
 Alpha  occ. eigenvalues --   -0.86116  -0.82379  -0.80392  -0.78976  -0.77430
 Alpha  occ. eigenvalues --   -0.72001  -0.71129  -0.70422  -0.65821  -0.64967
 Alpha  occ. eigenvalues --   -0.64759  -0.62123  -0.61689  -0.60140  -0.58361
 Alpha  occ. eigenvalues --   -0.56021  -0.55219  -0.53539  -0.53229  -0.53044
 Alpha  occ. eigenvalues --   -0.52673  -0.50680  -0.48774  -0.48757  -0.48685
 Alpha  occ. eigenvalues --   -0.47418  -0.46523  -0.46422  -0.44766  -0.44559
 Alpha  occ. eigenvalues --   -0.37297  -0.36322
 Alpha virt. eigenvalues --    0.05107   0.11286   0.16583   0.19450   0.22464
 Alpha virt. eigenvalues --    0.23750   0.25810   0.26173   0.26556   0.28200
 Alpha virt. eigenvalues --    0.28854   0.30243   0.30721   0.31465   0.32008

 Mulliken charges:
               1
     1  C   -0.298490
     2  C   -0.302109
     3  C   -0.481019
     4  H    0.151929
     5  H    0.152402
     6  H    0.147278
     7  H    0.152699
     8  H    0.162369
     9  H    0.158421
    10  H    0.154066
    11  C   -0.298866
    12  C   -0.300275
    13  C   -0.476113
    14  H    0.149180
    15  H    0.149771
    16  H    0.153173
    17  H    0.153159
    18  H    0.155436
    19  H    0.155433
    20  H    0.162132
    21  C   -0.172846
    22  C   -0.218567
    23  C   -0.171136
    24  C    0.158811
    25  C   -0.172436
    26  C   -0.226680
    27  H    0.226277
    28  H    0.223222
    29  H    0.275451
    30  H    0.275964
    31  H    0.234401
    32  N    0.488043
    33  O   -0.460447
    34  O   -0.460633
 Sum of Mulliken charges =  -0.00000

 Dipole moment (field-independent basis, Debye):
    X=              4.8254    Y=              2.2274    Z=              1.0427  Tot=              5.4160
 Quadrupole moment (field-independent basis, Debye-Ang):
   XX=           -130.3644   YY=            -90.9606   ZZ=            -94.7295
   XY=            -11.5999   XZ=             -4.5664   YZ=              0.9589

 Normal termination of Gaussian 16 at Thu May  6 04:03:19 2021.
