 Gaussian 16, Revision A.03,
 Gaussian 16:  EM64L-G16RevA.03 25-Dec-2016

 -------------
 #p 6-31g* mp2
 -------------

 ------------------------------------------------------
 Input file generated by CHIRIPA (05-May-2021 14:51:11)
 ------------------------------------------------------
 Symbolic Z-matrix:
 Charge =  0 Multiplicity = 1

                         Standard orientation:
 ---------------------------------------------------------------------
 Center     Atomic      Atomic             Coordinates (Angstroms)
 Number     Number       Type             X           Y           Z
 ---------------------------------------------------------------------
      1          6           0        4.123755   -0.308901   -0.199905
      2          6           0        5.066605    0.888776   -0.079116
      3          6           0        6.367422    0.698166   -0.859716
      4          1           0        4.639076   -1.210704    0.158061
      5          1           0        3.894133   -0.480403   -1.260686
      6          1           0        5.293279    1.058823    0.981223
      7          1           0        4.548914    1.787867   -0.437232
      8          1           0        6.159691    0.550889   -1.924497
      9          1           0        6.908286   -0.182298   -0.497983
     10          1           0        7.026599    1.566101   -0.759541
     11          6           0        2.819001   -0.133337    0.575028
     12          6           0        1.876151   -1.331013    0.454239
     13          6           0        0.575333   -1.140404    1.234840
     14          1           0        3.048622    0.038165    1.635809
     15          1           0        2.303680    0.768467    0.217063
     16          1           0        2.393842   -2.230104    0.812355
     17          1           0        1.649476   -1.501060   -0.606100
     18          1           0        0.034470   -0.259940    0.873106
     19          1           0        0.783065   -0.993126    2.299620
     20          1           0       -0.083843   -2.008339    1.134664
     21          6           0       -3.546282   -0.402883   -0.621662
     22          6           0       -3.370438   -1.707431    0.156295
     23          6           0       -3.523135   -2.946934   -0.725811
     24          1           0       -4.537070   -0.397123   -1.096267
     25          1           0       -2.809407   -0.367560   -1.436009
     26          1           0       -4.106516   -1.739651    0.969785
     27          1           0       -2.380027   -1.710002    0.629260
     28          1           0       -2.779522   -2.941926   -1.529314
     29          1           0       -4.515820   -2.971743   -1.186854
     30          1           0       -3.393633   -3.868289   -0.149449
     31          6           0       -3.396474    0.845121    0.246539
     32          6           0       -3.572318    2.149669   -0.531418
     33          6           0       -3.419621    3.389172    0.350689
     34          1           0       -4.133350    0.809797    1.060886
     35          1           0       -2.405685    0.839361    0.721143
     36          1           0       -4.562729    2.152240   -1.004384
     37          1           0       -2.836240    2.181889   -1.344909
     38          1           0       -2.426935    3.413981    0.811731
     39          1           0       -4.163234    3.384163    1.154191
     40          1           0       -3.549123    4.310527   -0.225675
 ---------------------------------------------------------------------

 SCF Done:  E(RHF) =  -470.732896051     A.U. after   11 cycles
 E2 =    -0.1583218857D+01 EUMP2 =    -0.47231611490772D+03

 The electronic state is 1-A.
 Alpha  occ. eigenvalues --  -11.21682 -11.21638 -11.21583 -11.21463 -11.21461
 Alpha  occ. eigenvalues --  -11.21401 -11.21354 -11.21294 -11.21170 -11.21100
 Alpha  occ. eigenvalues --  -11.21060 -11.21020  -1.08492  -1.08378  -1.03600
 Alpha  occ. eigenvalues --   -1.03477  -0.96051  -0.95938  -0.87079  -0.86948
 Alpha  occ. eigenvalues --   -0.79690  -0.79523  -0.78311  -0.78176  -0.65165
 Alpha  occ. eigenvalues --   -0.64987  -0.61022  -0.60894  -0.59456  -0.59257
 Alpha  occ. eigenvalues --   -0.57694  -0.57512  -0.55366  -0.55203  -0.52800
 Alpha  occ. eigenvalues --   -0.52618  -0.52483  -0.52342  -0.50003  -0.49875
 Alpha  occ. eigenvalues --   -0.48014  -0.47823  -0.46737  -0.46559  -0.45895
 Alpha  occ. eigenvalues --   -0.45785  -0.45706  -0.45545  -0.43795  -0.43717
 Alpha virt. eigenvalues --    0.21005   0.23071   0.23779   0.24802   0.25624
 Alpha virt. eigenvalues --    0.26725   0.27108   0.27256   0.27824   0.29299
 Alpha virt. eigenvalues --    0.30093   0.31540   0.31741   0.31914   0.32148

 Mulliken charges:
               1
     1  C   -0.298341
     2  C   -0.299694
     3  C   -0.475740
     4  H    0.149840
     5  H    0.149586
     6  H    0.152033
     7  H    0.151976
     8  H    0.155232
     9  H    0.155255
    10  H    0.160398
    11  C   -0.298746
    12  C   -0.299392
    13  C   -0.483252
    14  H    0.149799
    15  H    0.149478
    16  H    0.152429
    17  H    0.152021
    18  H    0.158128
    19  H    0.156175
    20  H    0.164436
    21  C   -0.297183
    22  C   -0.308619
    23  C   -0.475529
    24  H    0.149355
    25  H    0.148637
    26  H    0.151251
    27  H    0.162190
    28  H    0.154618
    29  H    0.155027
    30  H    0.159580
    31  C   -0.302921
    32  C   -0.299436
    33  C   -0.475626
    34  H    0.149699
    35  H    0.153653
    36  H    0.152011
    37  H    0.151314
    38  H    0.154911
    39  H    0.155325
    40  H    0.160119
 Sum of Mulliken charges =  -0.00000

 Dipole moment (field-independent basis, Debye):
    X=              0.0560    Y=             -0.0070    Z=              0.0304  Tot=              0.0641
 Quadrupole moment (field-independent basis, Debye-Ang):
   XX=            -84.6708   YY=            -85.6486   ZZ=            -84.5751
   XY=             -0.3304   XZ=              0.5856   YZ=             -0.8964

 Normal termination of Gaussian 16 at Wed May  5 16:45:33 2021.
