 Gaussian 16, Revision A.03,
 Gaussian 16:  EM64L-G16RevA.03 25-Dec-2016

 -------------
 #p 6-31g* mp2
 -------------

 ------------------------------------------------------
 Input file generated by CHIRIPA (05-May-2021 14:53:12)
 ------------------------------------------------------
 Symbolic Z-matrix:
 Charge =  0 Multiplicity = 1

                         Standard orientation:
 ---------------------------------------------------------------------
 Center     Atomic      Atomic             Coordinates (Angstroms)
 Number     Number       Type             X           Y           Z
 ---------------------------------------------------------------------
      1          6           0        2.736830   -0.091903    0.335733
      2          6           0        3.758738   -0.946897   -0.414382
      3          6           0        4.055908   -2.269465    0.292935
      4          1           0        3.109549    0.108511    1.349567
      5          1           0        1.805784   -0.663698    0.452343
      6          1           0        4.687115   -0.373147   -0.530758
      7          1           0        3.383629   -1.145138   -1.426613
      8          1           0        3.142998   -2.864973    0.395732
      9          1           0        4.453889   -2.088596    1.296677
     10          1           0        4.788832   -2.864845   -0.260423
     11          6           0        2.429328    1.233457   -0.358956
     12          6           0        1.407420    2.088451    0.391159
     13          6           0        1.110251    3.411019   -0.316158
     14          1           0        3.360375    1.805252   -0.475567
     15          1           0        2.056609    1.033043   -1.372791
     16          1           0        1.782529    2.286692    1.403389
     17          1           0        0.479043    1.514701    0.507534
     18          1           0        0.712269    3.230150   -1.319900
     19          1           0        2.023161    4.006527   -0.418955
     20          1           0        0.377326    4.006399    0.237200
     21          6           0       -2.309419    2.052382    0.207834
     22          6           0       -2.166660    1.270518    1.358845
     23          6           0       -2.004592   -0.114633    1.260666
     24          6           0       -1.989860   -0.687446   -0.010144
     25          6           0       -2.129654    0.064603   -1.175550
     26          6           0       -2.290494    1.447995   -1.053467
     27          1           0       -2.434841    3.127717    0.293386
     28          1           0       -2.180976    1.737177    2.339697
     29          1           0       -1.891918   -0.743701    2.135308
     30          1           0       -2.111363   -0.429195   -2.139525
     31          1           0       -2.401137    2.052709   -1.949080
     32          7           0       -1.818935   -2.152912   -0.126735
     33          8           0       -1.809351   -2.633409   -1.257959
     34          8           0       -1.697787   -2.793300    0.915313
 ---------------------------------------------------------------------

 SCF Done:  E(RHF) =  -669.534167463     A.U. after   15 cycles
 E2 =    -0.2095297004D+01 EUMP2 =    -0.67162946446724D+03

 The electronic state is 1-A.
 Alpha  occ. eigenvalues --  -20.60900 -20.60895 -15.85956 -11.31360 -11.27924
 Alpha  occ. eigenvalues --  -11.27899 -11.27597 -11.26903 -11.26865 -11.21615
 Alpha  occ. eigenvalues --  -11.21526 -11.21409 -11.21393 -11.21273 -11.20721
 Alpha  occ. eigenvalues --   -1.59977  -1.39528  -1.19534  -1.08917  -1.08394
 Alpha  occ. eigenvalues --   -1.04919  -1.03518  -0.96014  -0.95716  -0.87015
 Alpha  occ. eigenvalues --   -0.86303  -0.82556  -0.79600  -0.78205  -0.77608
 Alpha  occ. eigenvalues --   -0.72167  -0.71306  -0.70602  -0.65157  -0.65066
 Alpha  occ. eigenvalues --   -0.64898  -0.62253  -0.60979  -0.59441  -0.57617
 Alpha  occ. eigenvalues --   -0.55404  -0.55315  -0.53280  -0.52989  -0.52670
 Alpha  occ. eigenvalues --   -0.52410  -0.49913  -0.48931  -0.48922  -0.47879
 Alpha  occ. eigenvalues --   -0.46565  -0.45738  -0.45610  -0.44922  -0.43776
 Alpha  occ. eigenvalues --   -0.37423  -0.36491
 Alpha virt. eigenvalues --    0.04902   0.11046   0.16354   0.20774   0.22943
 Alpha virt. eigenvalues --    0.24391   0.26420   0.26802   0.26959   0.27726
 Alpha virt. eigenvalues --    0.28868   0.30060   0.31462   0.32032   0.32407

 Mulliken charges:
               1
     1  C   -0.298447
     2  C   -0.299669
     3  C   -0.477109
     4  H    0.148448
     5  H    0.150047
     6  H    0.150192
     7  H    0.153278
     8  H    0.162084
     9  H    0.153426
    10  H    0.160163
    11  C   -0.296864
    12  C   -0.308504
    13  C   -0.473107
    14  H    0.148246
    15  H    0.148379
    16  H    0.148190
    17  H    0.166582
    18  H    0.151450
    19  H    0.156862
    20  H    0.148891
    21  C   -0.167457
    22  C   -0.220882
    23  C   -0.171541
    24  C    0.159572
    25  C   -0.172180
    26  C   -0.217205
    27  H    0.227228
    28  H    0.224688
    29  H    0.276631
    30  H    0.276256
    31  H    0.224569
    32  N    0.487722
    33  O   -0.460078
    34  O   -0.459861
 Sum of Mulliken charges =  -0.00000

 Dipole moment (field-independent basis, Debye):
    X=             -0.7317    Y=              5.0280    Z=              0.4216  Tot=              5.0984
 Quadrupole moment (field-independent basis, Debye-Ang):
   XX=            -92.7483   YY=           -103.6472   ZZ=            -89.6744
   XY=             -9.7115   XZ=             -0.3119   YZ=             -0.1210

 Normal termination of Gaussian 16 at Wed May  5 15:27:42 2021.
