 Gaussian 16, Revision A.03,
 Gaussian 16:  EM64L-G16RevA.03 25-Dec-2016

 -------------
 #p 6-31g* mp2
 -------------

 ------------------------------------------------------
 Input file generated by CHIRIPA (05-May-2021 14:55:20)
 ------------------------------------------------------
 Symbolic Z-matrix:
 Charge =  0 Multiplicity = 1

                         Standard orientation:
 ---------------------------------------------------------------------
 Center     Atomic      Atomic             Coordinates (Angstroms)
 Number     Number       Type             X           Y           Z
 ---------------------------------------------------------------------
      1          6           0       -0.777677   -0.640323    1.095745
      2          6           0       -1.623619   -1.733917    0.883715
      3          6           0       -2.899972   -1.550031    0.343663
      4          6           0       -3.299831   -0.252997    0.025694
      5          6           0       -2.480086    0.856744    0.225154
      6          6           0       -1.207852    0.649244    0.766369
      7          1           0        0.212225   -0.792342    1.515722
      8          1           0       -1.292197   -2.736540    1.138570
      9          1           0       -3.575244   -2.378861    0.169113
     10          1           0       -2.838469    1.844311   -0.038835
     11          1           0       -0.553019    1.500408    0.929944
     12          7           0       -4.648868   -0.045826   -0.546651
     13          8           0       -4.977500    1.106908   -0.818392
     14          8           0       -5.352067   -1.040101   -0.712675
     15          6           0        3.740699    1.072547   -0.370422
     16          6           0        2.628377    1.679487    0.485350
     17          6           0        2.242298    3.090089    0.039326
     18          1           0        4.623165    1.725695   -0.330452
     19          1           0        3.415640    1.050205   -1.419818
     20          1           0        2.954895    1.699404    1.533016
     21          1           0        1.748521    1.024721    0.443492
     22          1           0        1.891281    3.083693   -0.997664
     23          1           0        3.104509    3.762210    0.098052
     24          1           0        1.445567    3.504902    0.664634
     25          6           0        4.137682   -0.337466    0.063163
     26          6           0        5.250005   -0.944406   -0.792609
     27          6           0        5.636084   -2.355008   -0.346584
     28          1           0        4.462742   -0.315124    1.112560
     29          1           0        3.255217   -0.990613    0.023193
     30          1           0        6.129860   -0.289640   -0.750750
     31          1           0        4.923486   -0.964323   -1.840276
     32          1           0        4.773873   -3.027129   -0.405310
     33          1           0        5.987102   -2.348612    0.690404
     34          1           0        6.432814   -2.769822   -0.971892
 ---------------------------------------------------------------------

 SCF Done:  E(RHF) =  -669.535117807     A.U. after   15 cycles
 E2 =    -0.2092322990D+01 EUMP2 =    -0.67162744079677D+03

 The electronic state is 1-A.
 Alpha  occ. eigenvalues --  -20.60749 -20.60744 -15.85802 -11.31169 -11.27736
 Alpha  occ. eigenvalues --  -11.27722 -11.27453 -11.26749 -11.26698 -11.22746
 Alpha  occ. eigenvalues --  -11.22315 -11.22279 -11.22228 -11.22131 -11.21693
 Alpha  occ. eigenvalues --   -1.59824  -1.39378  -1.19338  -1.09337  -1.08731
 Alpha  occ. eigenvalues --   -1.04745  -1.04418  -0.96851  -0.95569  -0.87864
 Alpha  occ. eigenvalues --   -0.86145  -0.82397  -0.80517  -0.79151  -0.77446
 Alpha  occ. eigenvalues --   -0.72021  -0.71147  -0.70451  -0.66004  -0.64987
 Alpha  occ. eigenvalues --   -0.64755  -0.62205  -0.61694  -0.60219  -0.58464
 Alpha  occ. eigenvalues --   -0.56114  -0.55235  -0.53557  -0.53289  -0.53070
 Alpha  occ. eigenvalues --   -0.52793  -0.50777  -0.48831  -0.48777  -0.48760
 Alpha  occ. eigenvalues --   -0.47524  -0.46680  -0.46575  -0.44783  -0.44672
 Alpha  occ. eigenvalues --   -0.37305  -0.36336
 Alpha virt. eigenvalues --    0.05068   0.11204   0.16531   0.19737   0.22420
 Alpha virt. eigenvalues --    0.23127   0.24841   0.25793   0.26199   0.28528
 Alpha virt. eigenvalues --    0.29414   0.30208   0.30804   0.31311   0.32366

 Mulliken charges:
               1
     1  C   -0.174309
     2  C   -0.218872
     3  C   -0.171124
     4  C    0.158530
     5  C   -0.172526
     6  C   -0.222685
     7  H    0.228368
     8  H    0.223355
     9  H    0.275495
    10  H    0.275807
    11  H    0.231312
    12  N    0.488092
    13  O   -0.460369
    14  O   -0.460513
    15  C   -0.297770
    16  C   -0.309083
    17  C   -0.478632
    18  H    0.153322
    19  H    0.153294
    20  H    0.153171
    21  H    0.147426
    22  H    0.160109
    23  H    0.161656
    24  H    0.155700
    25  C   -0.299169
    26  C   -0.300323
    27  C   -0.476169
    28  H    0.149646
    29  H    0.145090
    30  H    0.154156
    31  H    0.154222
    32  H    0.154224
    33  H    0.155487
    34  H    0.163080
 Sum of Mulliken charges =  -0.00000

 Dipole moment (field-independent basis, Debye):
    X=              4.9702    Y=             -0.6868    Z=              1.9326  Tot=              5.3767
 Quadrupole moment (field-independent basis, Debye-Ang):
   XX=           -125.4148   YY=            -90.1605   ZZ=            -95.1146
   XY=              3.0394   XZ=             -6.5196   YZ=             -0.4664

 Normal termination of Gaussian 16 at Thu May  6 06:09:32 2021.
