 Gaussian 16, Revision A.03,
 Gaussian 16:  EM64L-G16RevA.03 25-Dec-2016

 -------------
 #p 6-31g* mp2
 -------------

 ------------------------------------------------------
 Input file generated by CHIRIPA (05-May-2021 14:53:18)
 ------------------------------------------------------
 Symbolic Z-matrix:
 Charge =  0 Multiplicity = 1

                         Standard orientation:
 ---------------------------------------------------------------------
 Center     Atomic      Atomic             Coordinates (Angstroms)
 Number     Number       Type             X           Y           Z
 ---------------------------------------------------------------------
      1          6           0        3.036492   -1.031001    0.299070
      2          6           0        1.846340   -1.647701   -0.436597
      3          6           0        1.216268   -2.811293    0.329469
      4          1           0        3.792853   -1.807963    0.475683
      5          1           0        2.707455   -0.684433    1.288524
      6          1           0        2.177213   -1.991753   -1.424912
      7          1           0        1.092807   -0.869137   -0.611648
      8          1           0        0.859056   -2.478851    1.309511
      9          1           0        1.949623   -3.607846    0.491627
     10          1           0        0.367393   -3.237254   -0.214432
     11          6           0        3.677049    0.133462   -0.454217
     12          6           0        4.867201    0.750162    0.281450
     13          6           0        5.497272    1.913754   -0.484616
     14          1           0        4.006086   -0.213106   -1.443671
     15          1           0        2.920688    0.910425   -0.630829
     16          1           0        5.620733   -0.028402    0.456502
     17          1           0        4.536327    1.094214    1.269765
     18          1           0        4.763917    2.710307   -0.646774
     19          1           0        5.854485    1.581313   -1.464658
     20          1           0        6.346147    2.339715    0.059285
     21          6           0       -2.780439   -2.157150   -0.167777
     22          6           0       -3.325568   -1.328700   -1.154198
     23          6           0       -3.243879    0.062122   -1.038059
     24          6           0       -2.607206    0.593041    0.082683
     25          6           0       -2.054300   -0.205912    1.082313
     26          6           0       -2.147661   -1.594104    0.945368
     27          1           0       -2.848430   -3.236552   -0.266078
     28          1           0       -3.817568   -1.763188   -2.019763
     29          1           0       -3.657270    0.726820   -1.786859
     30          1           0       -1.569914    0.256501    1.933760
     31          1           0       -1.723402   -2.235042    1.712993
     32          7           0       -2.514547    2.064050    0.216648
     33          8           0       -1.948519    2.507060    1.213639
     34          8           0       -3.009705    2.746165   -0.677878
 ---------------------------------------------------------------------

 SCF Done:  E(RHF) =  -669.535169726     A.U. after   15 cycles
 E2 =    -0.2092456470D+01 EUMP2 =    -0.67162762619584D+03

 The electronic state is 1-A.
 Alpha  occ. eigenvalues --  -20.60814 -20.60809 -15.85866 -11.31241 -11.27786
 Alpha  occ. eigenvalues --  -11.27776 -11.27514 -11.26815 -11.26789 -11.21891
 Alpha  occ. eigenvalues --  -11.21648 -11.21573 -11.21564 -11.21396 -11.20965
 Alpha  occ. eigenvalues --   -1.59889  -1.39442  -1.19402  -1.08799  -1.08560
 Alpha  occ. eigenvalues --   -1.04805  -1.03692  -0.96169  -0.95630  -0.87204
 Alpha  occ. eigenvalues --   -0.86186  -0.82462  -0.79769  -0.78347  -0.77509
 Alpha  occ. eigenvalues --   -0.72083  -0.71213  -0.70502  -0.65212  -0.65051
 Alpha  occ. eigenvalues --   -0.64797  -0.62173  -0.61080  -0.59565  -0.57765
 Alpha  occ. eigenvalues --   -0.55517  -0.55274  -0.53191  -0.52947  -0.52732
 Alpha  occ. eigenvalues --   -0.52567  -0.50094  -0.48842  -0.48838  -0.48083
 Alpha  occ. eigenvalues --   -0.46782  -0.45899  -0.45797  -0.44847  -0.43949
 Alpha  occ. eigenvalues --   -0.37350  -0.36364
 Alpha virt. eigenvalues --    0.04987   0.11232   0.16413   0.20659   0.22866
 Alpha virt. eigenvalues --    0.24223   0.25867   0.26767   0.27154   0.27912
 Alpha virt. eigenvalues --    0.28839   0.29897   0.31385   0.31799   0.32467

 Mulliken charges:
               1
     1  C   -0.298344
     2  C   -0.300927
     3  C   -0.473163
     4  H    0.149155
     5  H    0.148902
     6  H    0.152487
     7  H    0.156116
     8  H    0.146938
     9  H    0.155697
    10  H    0.155099
    11  C   -0.299227
    12  C   -0.299866
    13  C   -0.476247
    14  H    0.149101
    15  H    0.153514
    16  H    0.150771
    17  H    0.153192
    18  H    0.158118
    19  H    0.154477
    20  H    0.160474
    21  C   -0.172832
    22  C   -0.218363
    23  C   -0.171350
    24  C    0.158540
    25  C   -0.173882
    26  C   -0.211776
    27  H    0.225901
    28  H    0.223667
    29  H    0.275653
    30  H    0.275183
    31  H    0.225748
    32  N    0.487997
    33  O   -0.460627
    34  O   -0.460127
 Sum of Mulliken charges =  -0.00000

 Dipole moment (field-independent basis, Debye):
    X=             -0.3226    Y=             -5.1194    Z=             -0.5100  Tot=              5.1549
 Quadrupole moment (field-independent basis, Debye-Ang):
   XX=            -92.2852   YY=           -102.0016   ZZ=            -91.2875
   XY=             12.5383   XZ=              3.5711   YZ=             -0.5250

 Normal termination of Gaussian 16 at Wed May  5 18:48:55 2021.
