 Gaussian 16, Revision A.03,
 Gaussian 16:  EM64L-G16RevA.03 25-Dec-2016

 -------------
 #p 6-31g* mp2
 -------------

 ------------------------------------------------------
 Input file generated by CHIRIPA (05-May-2021 14:57:24)
 ------------------------------------------------------
 Symbolic Z-matrix:
 Charge =  0 Multiplicity = 1

                         Standard orientation:
 ---------------------------------------------------------------------
 Center     Atomic      Atomic             Coordinates (Angstroms)
 Number     Number       Type             X           Y           Z
 ---------------------------------------------------------------------
      1          6           0        1.623898   -1.097705    1.464091
      2          6           0        2.488442   -1.980610    0.808680
      3          6           0        3.592614   -1.498038    0.099824
      4          6           0        3.803195   -0.120407    0.067007
      5          6           0        2.959963    0.784646    0.709759
      6          6           0        1.861998    0.279677    1.412630
      7          1           0        0.768562   -1.481277    2.012423
      8          1           0        2.305994   -3.050794    0.846939
      9          1           0        4.277916   -2.159148   -0.416619
     10          1           0        3.167802    1.846282    0.653634
     11          1           0        1.192260    0.967702    1.920683
     12          7           0        4.968846    0.402326   -0.680259
     13          8           0        5.132446    1.620392   -0.693986
     14          8           0        5.696813   -0.415920   -1.238089
     15          6           0       -1.333306    1.282985   -0.052420
     16          6           0       -1.457423   -0.038757   -0.493003
     17          6           0       -2.714472   -0.645327   -0.573313
     18          6           0       -3.831288    0.102495   -0.203483
     19          6           0       -3.740190    1.421149    0.239396
     20          6           0       -2.473076    2.007442    0.311732
     21          1           0       -0.352891    1.746307    0.006869
     22          1           0       -0.573998   -0.603788   -0.776457
     23          1           0       -2.839290   -1.667013   -0.910945
     24          1           0       -4.639118    1.959035    0.515118
     25          1           0       -2.379697    3.034088    0.654256
     26          7           0       -5.167397   -0.528920   -0.284282
     27          8           0       -6.135874    0.151325    0.047314
     28          8           0       -5.220863   -1.692113   -0.677679
 ---------------------------------------------------------------------

 SCF Done:  E(RHF) =  -868.337043878     A.U. after   16 cycles
 E2 =    -0.2601816730D+01 EUMP2 =    -0.87093886060820D+03

 The electronic state is 1-A.
 Alpha  occ. eigenvalues --  -20.61570 -20.61562 -20.61230 -20.61224 -15.86631
 Alpha  occ. eigenvalues --  -15.86284 -11.32185 -11.31735 -11.28824 -11.28750
 Alpha  occ. eigenvalues --  -11.28516 -11.28291 -11.28288 -11.28026 -11.27849
 Alpha  occ. eigenvalues --  -11.27774 -11.27340 -11.27270  -1.60641  -1.60303
 Alpha  occ. eigenvalues --   -1.40189  -1.39854  -1.20398  -1.19907  -1.09749
 Alpha  occ. eigenvalues --   -1.09284  -1.05828  -1.05311  -0.96534  -0.96114
 Alpha  occ. eigenvalues --   -0.87200  -0.86694  -0.83381  -0.82922  -0.78391
 Alpha  occ. eigenvalues --   -0.77966  -0.72840  -0.72498  -0.71972  -0.71629
 Alpha  occ. eigenvalues --   -0.71440  -0.71047  -0.66027  -0.65814  -0.65543
 Alpha  occ. eigenvalues --   -0.65290  -0.63147  -0.62650  -0.56285  -0.55821
 Alpha  occ. eigenvalues --   -0.54209  -0.53885  -0.53592  -0.53331  -0.49614
 Alpha  occ. eigenvalues --   -0.49587  -0.49263  -0.49250  -0.45553  -0.45241
 Alpha  occ. eigenvalues --   -0.38543  -0.37848  -0.37377  -0.36869
 Alpha virt. eigenvalues --    0.04105   0.04520   0.10038   0.10832   0.15348
 Alpha virt. eigenvalues --    0.16080   0.19896   0.21468   0.25589   0.26848
 Alpha virt. eigenvalues --    0.27385   0.28492   0.29893   0.31410   0.31554

 Mulliken charges:
               1
     1  C   -0.175193
     2  C   -0.221879
     3  C   -0.169537
     4  C    0.159392
     5  C   -0.174467
     6  C   -0.225821
     7  H    0.232535
     8  H    0.228048
     9  H    0.279399
    10  H    0.276402
    11  H    0.224395
    12  N    0.488053
    13  O   -0.459074
    14  O   -0.457134
    15  C   -0.176608
    16  C   -0.223777
    17  C   -0.173093
    18  C    0.159265
    19  C   -0.170724
    20  C   -0.219142
    21  H    0.224020
    22  H    0.228716
    23  H    0.275639
    24  H    0.277119
    25  H    0.224230
    26  N    0.487954
    27  O   -0.458868
    28  O   -0.459849
 Sum of Mulliken charges =  -0.00000

 Dipole moment (field-independent basis, Debye):
    X=              0.7560    Y=              0.2559    Z=              2.9160  Tot=              3.0232
 Quadrupole moment (field-independent basis, Debye-Ang):
   XX=           -171.0690   YY=            -95.9942   ZZ=           -105.0818
   XY=            -18.4001   XZ=              6.5569   YZ=              1.9765

 Normal termination of Gaussian 16 at Thu May  6 16:21:51 2021.
