 Gaussian 16, Revision A.03,
 Gaussian 16:  EM64L-G16RevA.03 25-Dec-2016

 -------------
 #p 6-31g* mp2
 -------------

 ------------------------------------------------------
 Input file generated by CHIRIPA (05-May-2021 14:57:25)
 ------------------------------------------------------
 Symbolic Z-matrix:
 Charge =  0 Multiplicity = 1

                         Standard orientation:
 ---------------------------------------------------------------------
 Center     Atomic      Atomic             Coordinates (Angstroms)
 Number     Number       Type             X           Y           Z
 ---------------------------------------------------------------------
      1          6           0       -0.690772    0.719727    1.920696
      2          6           0       -0.910844   -0.653147    1.768036
      3          6           0       -1.950593   -1.119830    0.958297
      4          6           0       -2.754625   -0.181503    0.313033
      5          6           0       -2.560668    1.192619    0.445165
      6          6           0       -1.514933    1.636612    1.259938
      7          1           0        0.119255    1.073445    2.551677
      8          1           0       -0.272371   -1.367507    2.279980
      9          1           0       -2.143295   -2.177110    0.822493
     10          1           0       -3.213795    1.880548   -0.077901
     11          1           0       -1.346362    2.703386    1.376650
     12          7           0       -3.858529   -0.663549   -0.546867
     13          8           0       -4.552813    0.183533   -1.104595
     14          8           0       -4.008584   -1.879331   -0.646846
     15          6           0        1.013237    1.964021   -1.138219
     16          6           0        2.154297    2.249067   -0.381086
     17          6           0        3.025386    1.225324    0.003235
     18          6           0        2.723450   -0.077951   -0.388680
     19          6           0        1.594530   -0.393819   -1.143039
     20          6           0        0.737482    0.645812   -1.516113
     21          1           0        0.342007    2.765460   -1.432400
     22          1           0        2.370969    3.271874   -0.086184
     23          1           0        3.915769    1.417878    0.589374
     24          1           0        1.405045   -1.423234   -1.421994
     25          1           0       -0.147946    0.421493   -2.104113
     26          7           0        3.638201   -1.170153    0.012230
     27          8           0        3.349821   -2.310039   -0.345726
     28          8           0        4.626242   -0.865652    0.676828
 ---------------------------------------------------------------------

 SCF Done:  E(RHF) =  -868.336496081     A.U. after   16 cycles
 E2 =    -0.2604895183D+01 EUMP2 =    -0.87094139126396D+03

 The electronic state is 1-A.
 Alpha  occ. eigenvalues --  -20.61333 -20.61318 -20.61302 -20.61294 -15.86381
 Alpha  occ. eigenvalues --  -15.86354 -11.31745 -11.31686 -11.28319 -11.28315
 Alpha  occ. eigenvalues --  -11.28241 -11.28203 -11.27983 -11.27917 -11.27314
 Alpha  occ. eigenvalues --  -11.27303 -11.27188 -11.27130  -1.60412  -1.60384
 Alpha  occ. eigenvalues --   -1.39962  -1.39935  -1.19960  -1.19799  -1.09330
 Alpha  occ. eigenvalues --   -1.09203  -1.05295  -1.05247  -0.96111  -0.96102
 Alpha  occ. eigenvalues --   -0.86679  -0.86655  -0.82967  -0.82906  -0.78014
 Alpha  occ. eigenvalues --   -0.77979  -0.72587  -0.72564  -0.71756  -0.71722
 Alpha  occ. eigenvalues --   -0.70985  -0.70948  -0.65534  -0.65502  -0.65290
 Alpha  occ. eigenvalues --   -0.65233  -0.62640  -0.62592  -0.55777  -0.55726
 Alpha  occ. eigenvalues --   -0.54617  -0.53362  -0.53342  -0.52634  -0.49354
 Alpha  occ. eigenvalues --   -0.49345  -0.49325  -0.49322  -0.45366  -0.45347
 Alpha  occ. eigenvalues --   -0.38478  -0.37670  -0.36804  -0.36366
 Alpha virt. eigenvalues --    0.04479   0.04520   0.10674   0.10836   0.15765
 Alpha virt. eigenvalues --    0.16290   0.20360   0.21361   0.26272   0.26764
 Alpha virt. eigenvalues --    0.27856   0.28266   0.30059   0.30977   0.31903

 Mulliken charges:
               1
     1  C   -0.163170
     2  C   -0.217742
     3  C   -0.174666
     4  C    0.156279
     5  C   -0.178984
     6  C   -0.216367
     7  H    0.227704
     8  H    0.229970
     9  H    0.278283
    10  H    0.273428
    11  H    0.219107
    12  N    0.486962
    13  O   -0.461497
    14  O   -0.457961
    15  C   -0.167370
    16  C   -0.224679
    17  C   -0.175087
    18  C    0.155148
    19  C   -0.170153
    20  C   -0.211508
    21  H    0.223896
    22  H    0.221606
    23  H    0.275123
    24  H    0.276981
    25  H    0.227934
    26  N    0.487192
    27  O   -0.459591
    28  O   -0.460839
 Sum of Mulliken charges =  -0.00000

 Dipole moment (field-independent basis, Debye):
    X=              0.6508    Y=              5.4075    Z=              1.6516  Tot=              5.6914
 Quadrupole moment (field-independent basis, Debye-Ang):
   XX=           -143.7619   YY=            -99.9376   ZZ=           -101.5198
   XY=              6.3233   XZ=             -8.0041   YZ=             -0.8635

 Normal termination of Gaussian 16 at Thu May  6 08:17:24 2021.
