 Gaussian 16, Revision A.03,
 Gaussian 16:  EM64L-G16RevA.03 25-Dec-2016

 -------------
 #p 6-31g* mp2
 -------------

 ------------------------------------------------------
 Input file generated by CHIRIPA (05-May-2021 14:53:12)
 ------------------------------------------------------
 Symbolic Z-matrix:
 Charge =  0 Multiplicity = 1

                         Standard orientation:
 ---------------------------------------------------------------------
 Center     Atomic      Atomic             Coordinates (Angstroms)
 Number     Number       Type             X           Y           Z
 ---------------------------------------------------------------------
      1          6           0        3.663376   -0.537420    0.037288
      2          6           0        2.601408   -0.267786    1.103827
      3          6           0        1.214756   -0.767167    0.696874
      4          1           0        3.360189   -0.056478   -0.902775
      5          1           0        3.705711   -1.616929   -0.163364
      6          1           0        2.562056    0.810748    1.303406
      7          1           0        2.907252   -0.749264    2.041512
      8          1           0        1.231629   -1.846972    0.517045
      9          1           0        0.884472   -0.278095   -0.225255
     10          1           0        0.470997   -0.564189    1.473714
     11          6           0        5.054890   -0.043914    0.429550
     12          6           0        6.116859   -0.313547   -0.636989
     13          6           0        7.503510    0.185834   -0.230036
     14          1           0        5.012556    1.035596    0.630202
     15          1           0        5.358077   -0.524855    1.369612
     16          1           0        5.811015    0.167931   -1.574675
     17          1           0        6.156210   -1.392081   -0.836568
     18          1           0        7.833795   -0.303238    0.692093
     19          1           0        7.486638    1.265638   -0.050207
     20          1           0        8.247270   -0.017144   -1.006877
     21          6           0       -5.125841   -1.589047    0.146682
     22          6           0       -4.070821   -1.778704   -0.751918
     23          6           0       -3.111921   -0.779285   -0.942234
     24          6           0       -3.239264    0.402660   -0.214169
     25          6           0       -4.278873    0.621503    0.688389
     26          6           0       -5.226323   -0.391661    0.862706
     27          1           0       -5.866291   -2.370759    0.288310
     28          1           0       -3.990267   -2.707589   -1.309348
     29          1           0       -2.284982   -0.899742   -1.631496
     30          1           0       -4.332635    1.558222    1.229761
     31          1           0       -6.044600   -0.241607    1.561241
     32          7           0       -2.230179    1.467976   -0.407179
     33          8           0       -2.364773    2.500185    0.246321
     34          8           0       -1.323773    1.250587   -1.208307
 ---------------------------------------------------------------------

 SCF Done:  E(RHF) =  -669.536279110     A.U. after   15 cycles
 E2 =    -0.2091049791D+01 EUMP2 =    -0.67162732890137D+03

 The electronic state is 1-A.
 Alpha  occ. eigenvalues --  -20.60883 -20.60878 -15.85910 -11.31224 -11.27791
 Alpha  occ. eigenvalues --  -11.27783 -11.27531 -11.26799 -11.26787 -11.21165
 Alpha  occ. eigenvalues --  -11.20901 -11.20866 -11.20752 -11.20697 -11.20249
 Alpha  occ. eigenvalues --   -1.59937  -1.39496  -1.19393  -1.08800  -1.07860
 Alpha  occ. eigenvalues --   -1.04790  -1.02949  -0.95646  -0.95401  -0.86427
 Alpha  occ. eigenvalues --   -0.86191  -0.82480  -0.79030  -0.77676  -0.77526
 Alpha  occ. eigenvalues --   -0.72142  -0.71247  -0.70506  -0.65052  -0.64796
 Alpha  occ. eigenvalues --   -0.64482  -0.62139  -0.60330  -0.58792  -0.57019
 Alpha  occ. eigenvalues --   -0.55299  -0.54673  -0.53120  -0.52884  -0.52117
 Alpha  occ. eigenvalues --   -0.51835  -0.49352  -0.48899  -0.48881  -0.47350
 Alpha  occ. eigenvalues --   -0.46083  -0.45252  -0.45158  -0.44738  -0.43220
 Alpha  occ. eigenvalues --   -0.37372  -0.36389
 Alpha virt. eigenvalues --    0.04966   0.11254   0.16434   0.21348   0.23448
 Alpha virt. eigenvalues --    0.24877   0.27095   0.27298   0.27855   0.28141
 Alpha virt. eigenvalues --    0.28792   0.30817   0.31868   0.32173   0.32399

 Mulliken charges:
               1
     1  C   -0.298830
     2  C   -0.298445
     3  C   -0.484934
     4  H    0.153727
     5  H    0.145845
     6  H    0.156588
     7  H    0.147463
     8  H    0.146214
     9  H    0.176439
    10  H    0.154565
    11  C   -0.298152
    12  C   -0.299401
    13  C   -0.475465
    14  H    0.150996
    15  H    0.147731
    16  H    0.152808
    17  H    0.150186
    18  H    0.154093
    19  H    0.155629
    20  H    0.158946
    21  C   -0.170592
    22  C   -0.218643
    23  C   -0.169690
    24  C    0.158585
    25  C   -0.171016
    26  C   -0.218632
    27  H    0.225731
    28  H    0.223686
    29  H    0.276053
    30  H    0.275562
    31  H    0.223524
    32  N    0.489057
    33  O   -0.459383
    34  O   -0.460244
 Sum of Mulliken charges =  -0.00000

 Dipole moment (field-independent basis, Debye):
    X=             -3.7181    Y=             -3.6352    Z=              0.5974  Tot=              5.2341
 Quadrupole moment (field-independent basis, Debye-Ang):
   XX=            -72.6672   YY=            -96.0060   ZZ=            -93.2902
   XY=              9.2012   XZ=             -3.5879   YZ=              3.0015

 Normal termination of Gaussian 16 at Wed May  5 20:07:22 2021.
