 Gaussian 16, Revision A.03,
 Gaussian 16:  EM64L-G16RevA.03 25-Dec-2016

 -------------
 #p 6-31g* mp2
 -------------

 ------------------------------------------------------
 Input file generated by CHIRIPA (05-May-2021 14:51:10)
 ------------------------------------------------------
 Symbolic Z-matrix:
 Charge =  0 Multiplicity = 1

                         Standard orientation:
 ---------------------------------------------------------------------
 Center     Atomic      Atomic             Coordinates (Angstroms)
 Number     Number       Type             X           Y           Z
 ---------------------------------------------------------------------
      1          6           0       -3.749437    0.732471    0.245994
      2          6           0       -4.559890    1.854410   -0.403931
      3          6           0       -4.373673    3.200531    0.296838
      4          1           0       -4.041506    0.641660    1.301169
      5          1           0       -2.685393    1.006611    0.238676
      6          1           0       -5.621940    1.577620   -0.396635
      7          1           0       -4.265994    1.942433   -1.457730
      8          1           0       -3.321590    3.502752    0.277256
      9          1           0       -4.685239    3.135866    1.344380
     10          1           0       -4.961945    3.988265   -0.184070
     11          6           0       -3.925160   -0.619435   -0.443354
     12          6           0       -3.114707   -1.741374    0.206571
     13          6           0       -3.300924   -3.087495   -0.494197
     14          1           0       -4.989204   -0.893575   -0.436036
     15          1           0       -3.633091   -0.528624   -1.498529
     16          1           0       -3.408603   -1.829397    1.260370
     17          1           0       -2.052657   -1.464584    0.199275
     18          1           0       -2.989357   -3.022831   -1.541740
     19          1           0       -4.353007   -3.389716   -0.474616
     20          1           0       -2.712652   -3.875229   -0.013290
     21          6           0        4.593462   -0.145804    0.159315
     22          6           0        5.391517    0.989162   -0.483292
     23          6           0        6.902747    0.796264   -0.353799
     24          1           0        4.865271   -0.221198    1.221097
     25          1           0        4.883705   -1.097975   -0.306006
     26          1           0        5.098850    1.939072   -0.017855
     27          1           0        5.117635    1.061987   -1.543623
     28          1           0        7.214637   -0.136565   -0.834587
     29          1           0        7.195745    0.745505    0.699850
     30          1           0        7.453881    1.618957   -0.819938
     31          6           0        3.081134    0.032769    0.038044
     32          6           0        2.283080   -1.102197    0.680652
     33          6           0        0.771850   -0.909300    0.551159
     34          1           0        2.790891    0.984940    0.503365
     35          1           0        2.809325    0.108162   -1.023738
     36          1           0        2.556962   -1.175022    1.740982
     37          1           0        2.575747   -2.052108    0.215215
     38          1           0        0.478851   -0.858540   -0.502490
     39          1           0        0.459959    0.023528    1.031947
     40          1           0        0.220715   -1.731993    1.017298
 ---------------------------------------------------------------------

 SCF Done:  E(RHF) =  -470.732986845     A.U. after   11 cycles
 E2 =    -0.1582834367D+01 EUMP2 =    -0.47231582121241D+03

 The electronic state is 1-A.
 Alpha  occ. eigenvalues --  -11.21650 -11.21628 -11.21549 -11.21444 -11.21408
 Alpha  occ. eigenvalues --  -11.21383 -11.21318 -11.21256 -11.21149 -11.21091
 Alpha  occ. eigenvalues --  -11.21035 -11.20990  -1.08472  -1.08340  -1.03584
 Alpha  occ. eigenvalues --   -1.03440  -0.96038  -0.95903  -0.87073  -0.86910
 Alpha  occ. eigenvalues --   -0.79712  -0.79456  -0.78295  -0.78134  -0.65102
 Alpha  occ. eigenvalues --   -0.64976  -0.60997  -0.60846  -0.59463  -0.59211
 Alpha  occ. eigenvalues --   -0.57661  -0.57490  -0.55331  -0.55183  -0.52796
 Alpha  occ. eigenvalues --   -0.52583  -0.52456  -0.52320  -0.49992  -0.49823
 Alpha  occ. eigenvalues --   -0.47963  -0.47821  -0.46702  -0.46507  -0.45884
 Alpha  occ. eigenvalues --   -0.45747  -0.45687  -0.45566  -0.43773  -0.43669
 Alpha virt. eigenvalues --    0.21994   0.22960   0.23866   0.24692   0.25667
 Alpha virt. eigenvalues --    0.26612   0.27117   0.27300   0.27902   0.29210
 Alpha virt. eigenvalues --    0.30549   0.30882   0.31542   0.31784   0.32274

 Mulliken charges:
               1
     1  C   -0.299121
     2  C   -0.299532
     3  C   -0.475636
     4  H    0.149314
     5  H    0.150460
     6  H    0.151817
     7  H    0.151757
     8  H    0.155000
     9  H    0.155031
    10  H    0.160053
    11  C   -0.297239
    12  C   -0.312061
    13  C   -0.475008
    14  H    0.148868
    15  H    0.148833
    16  H    0.150500
    17  H    0.168232
    18  H    0.154478
    19  H    0.154767
    20  H    0.159256
    21  C   -0.298363
    22  C   -0.299643
    23  C   -0.475728
    24  H    0.149782
    25  H    0.149622
    26  H    0.151969
    27  H    0.151929
    28  H    0.155228
    29  H    0.155241
    30  H    0.160340
    31  C   -0.298653
    32  C   -0.300236
    33  C   -0.478697
    34  H    0.149529
    35  H    0.149567
    36  H    0.152296
    37  H    0.152281
    38  H    0.154666
    39  H    0.156245
    40  H    0.162854
 Sum of Mulliken charges =  -0.00000

 Dipole moment (field-independent basis, Debye):
    X=              0.0677    Y=              0.0021    Z=              0.0151  Tot=              0.0694
 Quadrupole moment (field-independent basis, Debye-Ang):
   XX=            -85.6668   YY=            -85.6797   ZZ=            -83.7675
   XY=              0.0518   XZ=             -0.5353   YZ=             -0.1050

 Normal termination of Gaussian 16 at Thu May  6 03:47:28 2021.
