 Gaussian 16, Revision A.03,
 Gaussian 16:  EM64L-G16RevA.03 25-Dec-2016

 -------------
 #p 6-31g* mp2
 -------------

 ------------------------------------------------------
 Input file generated by CHIRIPA (05-May-2021 14:51:12)
 ------------------------------------------------------
 Symbolic Z-matrix:
 Charge =  0 Multiplicity = 1

                         Standard orientation:
 ---------------------------------------------------------------------
 Center     Atomic      Atomic             Coordinates (Angstroms)
 Number     Number       Type             X           Y           Z
 ---------------------------------------------------------------------
      1          6           0       -2.601251   -0.717304    0.879685
      2          6           0       -1.162177   -1.125889    1.196083
      3          6           0       -1.081667   -2.284681    2.190323
      4          1           0       -3.109889   -0.437948    1.812526
      5          1           0       -3.141388   -1.585347    0.477010
      6          1           0       -0.624529   -0.256971    1.596748
      7          1           0       -0.656848   -1.404121    0.262356
      8          1           0       -1.593521   -3.167936    1.794764
      9          1           0       -1.561018   -2.014268    3.136738
     10          1           0       -0.043935   -2.560454    2.402266
     11          6           0       -2.698152    0.439951   -0.112837
     12          6           0       -4.137227    0.848536   -0.429234
     13          6           0       -4.217736    2.007328   -1.423474
     14          1           0       -2.158016    1.307995    0.289839
     15          1           0       -2.189514    0.160595   -1.045678
     16          1           0       -4.642555    1.126768    0.504493
     17          1           0       -4.674875   -0.020382   -0.829899
     18          1           0       -3.738386    1.736916   -2.369889
     19          1           0       -3.705883    2.890584   -1.027916
     20          1           0       -5.255469    2.283102   -1.635417
     21          6           0        2.698298   -0.622159   -0.430332
     22          6           0        1.906258   -1.209446   -1.598986
     23          6           0        2.013297   -2.732549   -1.679574
     24          1           0        3.753368   -0.912349   -0.528113
     25          1           0        2.337662   -1.066152    0.507861
     26          1           0        2.267340   -0.763450   -2.534573
     27          1           0        0.852985   -0.917664   -1.498515
     28          1           0        1.634447   -3.194440   -0.762115
     29          1           0        3.056838   -3.039350   -1.804059
     30          1           0        1.439635   -3.131304   -2.522050
     31          6           0        2.601106    0.899512   -0.336516
     32          6           0        3.393145    1.486799    0.832138
     33          6           0        3.286107    3.009902    0.912725
     34          1           0        2.961742    1.343505   -1.274710
     35          1           0        1.546036    1.189702   -0.238735
     36          1           0        4.446419    1.195017    0.731665
     37          1           0        3.032064    1.040802    1.767724
     38          1           0        2.242566    3.316702    1.037211
     39          1           0        3.664957    3.471793   -0.004734
     40          1           0        3.859769    3.408656    1.755201
 ---------------------------------------------------------------------

 SCF Done:  E(RHF) =  -470.733246204     A.U. after   11 cycles
 E2 =    -0.1583950166D+01 EUMP2 =    -0.47231719636997D+03

 The electronic state is 1-A.
 Alpha  occ. eigenvalues --  -11.21666 -11.21650 -11.21581 -11.21569 -11.21476
 Alpha  occ. eigenvalues --  -11.21416 -11.21363 -11.21303 -11.21154 -11.21101
 Alpha  occ. eigenvalues --  -11.21079 -11.21063  -1.08512  -1.08389  -1.03608
 Alpha  occ. eigenvalues --   -1.03503  -0.96040  -0.95963  -0.87058  -0.86978
 Alpha  occ. eigenvalues --   -0.79681  -0.79563  -0.78343  -0.78189  -0.65220
 Alpha  occ. eigenvalues --   -0.64972  -0.61175  -0.60760  -0.59388  -0.59333
 Alpha  occ. eigenvalues --   -0.57647  -0.57573  -0.55347  -0.55227  -0.52735
 Alpha  occ. eigenvalues --   -0.52662  -0.52466  -0.52388  -0.50016  -0.49883
 Alpha  occ. eigenvalues --   -0.48046  -0.47863  -0.46845  -0.46507  -0.46062
 Alpha  occ. eigenvalues --   -0.45763  -0.45697  -0.45389  -0.43847  -0.43762
 Alpha virt. eigenvalues --    0.19769   0.23024   0.23215   0.24241   0.25254
 Alpha virt. eigenvalues --    0.26123   0.26677   0.27880   0.28907   0.29855
 Alpha virt. eigenvalues --    0.30614   0.31223   0.31684   0.31788   0.32175

 Mulliken charges:
               1
     1  C   -0.298020
     2  C   -0.308363
     3  C   -0.476297
     4  H    0.149915
     5  H    0.149828
     6  H    0.152011
     7  H    0.160967
     8  H    0.155719
     9  H    0.155632
    10  H    0.160089
    11  C   -0.299672
    12  C   -0.299678
    13  C   -0.475802
    14  H    0.149279
    15  H    0.150166
    16  H    0.152203
    17  H    0.152171
    18  H    0.155430
    19  H    0.155277
    20  H    0.160439
    21  C   -0.299199
    22  C   -0.304009
    23  C   -0.477235
    24  H    0.149427
    25  H    0.151445
    26  H    0.152353
    27  H    0.154910
    28  H    0.155968
    29  H    0.155575
    30  H    0.159835
    31  C   -0.299631
    32  C   -0.299790
    33  C   -0.475561
    34  H    0.149245
    35  H    0.151636
    36  H    0.151856
    37  H    0.151700
    38  H    0.154804
    39  H    0.155250
    40  H    0.160129
 Sum of Mulliken charges =  -0.00000

 Dipole moment (field-independent basis, Debye):
    X=             -0.0326    Y=             -0.0057    Z=              0.0013  Tot=              0.0331
 Quadrupole moment (field-independent basis, Debye-Ang):
   XX=            -84.1169   YY=            -86.2389   ZZ=            -84.3847
   XY=              0.2483   XZ=             -0.6400   YZ=              0.8237

 Normal termination of Gaussian 16 at Wed May  5 21:32:10 2021.
