 Gaussian 16, Revision A.03,
 Gaussian 16:  EM64L-G16RevA.03 25-Dec-2016

 -------------
 #p 6-31g* mp2
 -------------

 ------------------------------------------------------
 Input file generated by CHIRIPA (05-May-2021 14:51:12)
 ------------------------------------------------------
 Symbolic Z-matrix:
 Charge =  0 Multiplicity = 1

                         Standard orientation:
 ---------------------------------------------------------------------
 Center     Atomic      Atomic             Coordinates (Angstroms)
 Number     Number       Type             X           Y           Z
 ---------------------------------------------------------------------
      1          6           0       -4.783648   -0.145692   -0.309490
      2          6           0       -5.239596   -1.303459    0.579145
      3          6           0       -6.748694   -1.540312    0.513434
      4          1           0       -5.313200    0.768945   -0.009560
      5          1           0       -5.078584   -0.351407   -1.347800
      6          1           0       -4.942668   -1.096267    1.615254
      7          1           0       -4.708755   -2.215406    0.277191
      8          1           0       -7.058031   -1.772074   -0.510869
      9          1           0       -7.293272   -0.646576    0.834796
     10          1           0       -7.052850   -2.372333    1.156155
     11          6           0       -3.277442    0.103410   -0.254530
     12          6           0       -2.821493    1.261177   -1.143165
     13          6           0       -1.312395    1.498030   -1.077454
     14          1           0       -2.982506    0.309126    0.783781
     15          1           0       -2.747890   -0.811227   -0.554459
     16          1           0       -3.352334    2.173124   -0.841210
     17          1           0       -3.118422    1.053985   -2.179273
     18          1           0       -0.767818    0.604294   -1.398816
     19          1           0       -1.003059    1.729792   -0.053150
     20          1           0       -1.008239    2.330051   -1.720175
     21          6           0        4.415128   -0.637543    0.322790
     22          6           0        5.612335   -0.700449   -0.626275
     23          6           0        6.371639   -2.024296   -0.533107
     24          1           0        4.763864   -0.790122    1.353347
     25          1           0        3.733194   -1.469098    0.097229
     26          1           0        6.291126    0.131786   -0.399903
     27          1           0        5.260734   -0.547512   -1.654673
     28          1           0        5.713729   -2.863927   -0.779636
     29          1           0        6.749975   -2.180770    0.482264
     30          1           0        7.223463   -2.047735   -1.219917
     31          6           0        3.645961    0.679825    0.241230
     32          6           0        2.448755    0.742731    1.190294
     33          6           0        1.689450    2.066578    1.097126
     34          1           0        4.327894    1.511379    0.466791
     35          1           0        3.297226    0.832404   -0.789328
     36          1           0        2.800355    0.589793    2.218693
     37          1           0        1.769964   -0.089504    0.963923
     38          1           0        1.311114    2.223051    0.081755
     39          1           0        2.347360    2.906208    1.343654
     40          1           0        0.837627    2.090017    1.783936
 ---------------------------------------------------------------------

 SCF Done:  E(RHF) =  -470.732360305     A.U. after   11 cycles
 E2 =    -0.1582889514D+01 EUMP2 =    -0.47231524981874D+03

 The electronic state is 1-A.
 Alpha  occ. eigenvalues --  -11.21601 -11.21580 -11.21571 -11.21541 -11.21401
 Alpha  occ. eigenvalues --  -11.21369 -11.21342 -11.21308 -11.21071 -11.21056
 Alpha  occ. eigenvalues --  -11.20994 -11.20945  -1.08426  -1.08386  -1.03550
 Alpha  occ. eigenvalues --   -1.03456  -0.96050  -0.95866  -0.87111  -0.86848
 Alpha  occ. eigenvalues --   -0.79676  -0.79469  -0.78243  -0.78195  -0.65070
 Alpha  occ. eigenvalues --   -0.65008  -0.61025  -0.60809  -0.59373  -0.59288
 Alpha  occ. eigenvalues --   -0.57607  -0.57526  -0.55478  -0.55061  -0.52744
 Alpha  occ. eigenvalues --   -0.52662  -0.52372  -0.52277  -0.50114  -0.49641
 Alpha  occ. eigenvalues --   -0.47923  -0.47814  -0.46718  -0.46445  -0.45804
 Alpha  occ. eigenvalues --   -0.45719  -0.45702  -0.45620  -0.43766  -0.43736
 Alpha virt. eigenvalues --    0.22065   0.22975   0.23651   0.24856   0.26234
 Alpha virt. eigenvalues --    0.26600   0.27297   0.27461   0.27707   0.29218
 Alpha virt. eigenvalues --    0.29684   0.31290   0.31524   0.32115   0.32295

 Mulliken charges:
               1
     1  C   -0.298254
     2  C   -0.299623
     3  C   -0.475701
     4  H    0.149679
     5  H    0.149537
     6  H    0.151908
     7  H    0.151860
     8  H    0.155172
     9  H    0.155196
    10  H    0.160242
    11  C   -0.298206
    12  C   -0.300387
    13  C   -0.480537
    14  H    0.149309
    15  H    0.149297
    16  H    0.151883
    17  H    0.151369
    18  H    0.153767
    19  H    0.163717
    20  H    0.159110
    21  C   -0.298246
    22  C   -0.299629
    23  C   -0.475671
    24  H    0.149574
    25  H    0.149359
    26  H    0.151901
    27  H    0.151889
    28  H    0.155093
    29  H    0.155149
    30  H    0.160171
    31  C   -0.298617
    32  C   -0.299925
    33  C   -0.480528
    34  H    0.149416
    35  H    0.149993
    36  H    0.151474
    37  H    0.152393
    38  H    0.164605
    39  H    0.154321
    40  H    0.157937
 Sum of Mulliken charges =  -0.00000

 Dipole moment (field-independent basis, Debye):
    X=             -0.0010    Y=              0.0185    Z=             -0.0007  Tot=              0.0186
 Quadrupole moment (field-independent basis, Debye-Ang):
   XX=            -86.1528   YY=            -85.1014   ZZ=            -83.7371
   XY=              0.4160   XZ=              0.3459   YZ=              0.7703

 Normal termination of Gaussian 16 at Thu May  6 07:05:40 2021.
