 Gaussian 16, Revision A.03,
 Gaussian 16:  EM64L-G16RevA.03 25-Dec-2016

 -------------
 #p 6-31g* mp2
 -------------

 ------------------------------------------------------
 Input file generated by CHIRIPA (05-May-2021 14:51:08)
 ------------------------------------------------------
 Symbolic Z-matrix:
 Charge =  0 Multiplicity = 1

                         Standard orientation:
 ---------------------------------------------------------------------
 Center     Atomic      Atomic             Coordinates (Angstroms)
 Number     Number       Type             X           Y           Z
 ---------------------------------------------------------------------
      1          6           0        3.510448    0.802994   -0.648924
      2          6           0        2.234952    1.490974   -0.161301
      3          6           0        1.977431    2.824771   -0.863058
      4          1           0        4.365463    1.474090   -0.489155
      5          1           0        3.439285    0.640126   -1.733270
      6          1           0        2.307915    1.651247    0.922029
      7          1           0        1.382901    0.818086   -0.322074
      8          1           0        1.878285    2.678758   -1.943545
      9          1           0        2.808555    3.516653   -0.692373
     10          1           0        1.060748    3.299373   -0.499322
     11          6           0        3.781482   -0.531580    0.043305
     12          6           0        5.056979   -1.219560   -0.444318
     13          6           0        5.314500   -2.553357    0.257439
     14          1           0        3.852646   -0.368712    1.127650
     15          1           0        2.926468   -1.202676   -0.116464
     16          1           0        5.909030   -0.546672   -0.283546
     17          1           0        4.984016   -1.379833   -1.527649
     18          1           0        4.483376   -3.245239    0.086753
     19          1           0        5.413645   -2.407344    1.337925
     20          1           0        6.231183   -3.027959   -0.106297
     21          6           0       -4.135911   -0.692934    0.121473
     22          6           0       -5.312625   -0.212813   -0.728712
     23          6           0       -6.284048   -1.339020   -1.083374
     24          1           0       -3.599843   -1.484681   -0.419554
     25          1           0       -4.521131   -1.150059    1.043449
     26          1           0       -4.925250    0.244515   -1.648173
     27          1           0       -5.845840    0.578017   -0.185679
     28          1           0       -6.698177   -1.790549   -0.176058
     29          1           0       -5.772357   -2.125946   -1.646863
     30          1           0       -7.117553   -0.973653   -1.691352
     31          6           0       -3.156019    0.421520    0.484145
     32          6           0       -1.979307   -0.058602    1.334331
     33          6           0       -1.007882    1.067606    1.688994
     34          1           0       -2.770800    0.878645   -0.437829
     35          1           0       -3.692088    1.213267    1.025174
     36          1           0       -1.446090   -0.849431    0.791298
     37          1           0       -2.366681   -0.515929    2.253792
     38          1           0       -1.519574    1.854532    2.252483
     39          1           0       -0.593753    1.519135    0.781678
     40          1           0       -0.174378    0.702239    2.296972
 ---------------------------------------------------------------------

 SCF Done:  E(RHF) =  -470.732492505     A.U. after   11 cycles
 E2 =    -0.1583168120D+01 EUMP2 =    -0.47231566062442D+03

 The electronic state is 1-A.
 Alpha  occ. eigenvalues --  -11.21601 -11.21598 -11.21578 -11.21535 -11.21400
 Alpha  occ. eigenvalues --  -11.21390 -11.21340 -11.21326 -11.21073 -11.21072
 Alpha  occ. eigenvalues --  -11.21071 -11.20951  -1.08439  -1.08399  -1.03573
 Alpha  occ. eigenvalues --   -1.03462  -0.96023  -0.95911  -0.87006  -0.86961
 Alpha  occ. eigenvalues --   -0.79704  -0.79469  -0.78275  -0.78184  -0.65110
 Alpha  occ. eigenvalues --   -0.65001  -0.61066  -0.60814  -0.59387  -0.59288
 Alpha  occ. eigenvalues --   -0.57698  -0.57495  -0.55311  -0.55160  -0.52705
 Alpha  occ. eigenvalues --   -0.52625  -0.52460  -0.52297  -0.49982  -0.49851
 Alpha  occ. eigenvalues --   -0.47905  -0.47865  -0.46709  -0.46511  -0.45824
 Alpha  occ. eigenvalues --   -0.45746  -0.45703  -0.45584  -0.43798  -0.43727
 Alpha virt. eigenvalues --    0.21556   0.23135   0.23497   0.24788   0.26192
 Alpha virt. eigenvalues --    0.26510   0.26815   0.27276   0.27992   0.29172
 Alpha virt. eigenvalues --    0.30366   0.30812   0.31559   0.31984   0.32378

 Mulliken charges:
               1
     1  C   -0.297983
     2  C   -0.301149
     3  C   -0.478992
     4  H    0.149368
     5  H    0.149025
     6  H    0.153841
     7  H    0.153874
     8  H    0.154835
     9  H    0.155720
    10  H    0.161710
    11  C   -0.298145
    12  C   -0.299595
    13  C   -0.475686
    14  H    0.149363
    15  H    0.149318
    16  H    0.151988
    17  H    0.151851
    18  H    0.155096
    19  H    0.155178
    20  H    0.160243
    21  C   -0.298211
    22  C   -0.299645
    23  C   -0.475692
    24  H    0.149407
    25  H    0.149588
    26  H    0.151872
    27  H    0.151978
    28  H    0.155203
    29  H    0.155106
    30  H    0.160253
    31  C   -0.298307
    32  C   -0.300621
    33  C   -0.480351
    34  H    0.149209
    35  H    0.149737
    36  H    0.151253
    37  H    0.151914
    38  H    0.153954
    39  H    0.162732
    40  H    0.160759
 Sum of Mulliken charges =  -0.00000

 Dipole moment (field-independent basis, Debye):
    X=              0.0122    Y=              0.0134    Z=              0.0079  Tot=              0.0197
 Quadrupole moment (field-independent basis, Debye-Ang):
   XX=            -85.0486   YY=            -85.9932   ZZ=            -83.8623
   XY=             -0.0525   XZ=             -0.4058   YZ=              0.7129

 Normal termination of Gaussian 16 at Thu May  6 10:00:56 2021.
