 Gaussian 16, Revision A.03,
 Gaussian 16:  EM64L-G16RevA.03 25-Dec-2016

 -------------
 #p 6-31g* mp2
 -------------

 ------------------------------------------------------
 Input file generated by CHIRIPA (05-May-2021 14:51:12)
 ------------------------------------------------------
 Symbolic Z-matrix:
 Charge =  0 Multiplicity = 1

                         Standard orientation:
 ---------------------------------------------------------------------
 Center     Atomic      Atomic             Coordinates (Angstroms)
 Number     Number       Type             X           Y           Z
 ---------------------------------------------------------------------
      1          6           0       -2.331025    0.986562    0.315240
      2          6           0       -1.508386    2.220966   -0.055564
      3          6           0       -1.249739    3.139675    1.138953
      4          1           0       -3.288921    1.308133    0.746485
      5          1           0       -1.805998    0.427448    1.102091
      6          1           0       -2.034137    2.776844   -0.842457
      7          1           0       -0.552416    1.896418   -0.486152
      8          1           0       -0.704283    2.606290    1.924179
      9          1           0       -2.194423    3.491718    1.565849
     10          1           0       -0.660056    4.015710    0.851384
     11          6           0       -2.597882    0.058423   -0.868430
     12          6           0       -3.420521   -1.175981   -0.497626
     13          6           0       -3.679167   -2.094690   -1.692143
     14          1           0       -3.122908    0.617537   -1.655280
     15          1           0       -1.639986   -0.263148   -1.299674
     16          1           0       -4.376491   -0.851433   -0.067038
     17          1           0       -2.894770   -1.731859    0.289268
     18          1           0       -2.734484   -2.446733   -2.119038
     19          1           0       -4.224624   -1.561305   -2.477368
     20          1           0       -4.268851   -2.970725   -1.404573
     21          6           0        2.524114   -0.202151   -0.414241
     22          6           0        3.968248   -0.071706   -0.899469
     23          6           0        4.071240    0.570953   -2.283007
     24          1           0        1.952520   -0.796902   -1.139842
     25          1           0        2.060638    0.793893   -0.392311
     26          1           0        4.429288   -1.067532   -0.919158
     27          1           0        4.536518    0.522642   -0.172533
     28          1           0        3.636555    1.575729   -2.274378
     29          1           0        3.528717   -0.023480   -3.025245
     30          1           0        5.112254    0.654469   -2.610389
     31          6           0        2.404793   -0.842833    0.967430
     32          6           0        0.960659   -0.973279    1.452659
     33          6           0        0.857666   -1.615938    2.836196
     34          1           0        2.868268   -1.838878    0.945500
     35          1           0        2.976388   -0.248082    1.693032
     36          1           0        0.392389   -1.567627    0.725723
     37          1           0        0.499618    0.022547    1.472347
     38          1           0        1.400190   -1.021504    3.578435
     39          1           0        1.292352   -2.620714    2.827567
     40          1           0       -0.183346   -1.699454    3.163577
 ---------------------------------------------------------------------

 SCF Done:  E(RHF) =  -470.732949835     A.U. after   11 cycles
 E2 =    -0.1584606078D+01 EUMP2 =    -0.47231755591210D+03

 The electronic state is 1-A.
 Alpha  occ. eigenvalues --  -11.21690 -11.21660 -11.21574 -11.21571 -11.21490
 Alpha  occ. eigenvalues --  -11.21430 -11.21333 -11.21259 -11.21164 -11.21111
 Alpha  occ. eigenvalues --  -11.21098 -11.21060  -1.08534  -1.08370  -1.03616
 Alpha  occ. eigenvalues --   -1.03509  -0.96057  -0.95956  -0.87070  -0.86977
 Alpha  occ. eigenvalues --   -0.79708  -0.79555  -0.78353  -0.78185  -0.65254
 Alpha  occ. eigenvalues --   -0.64946  -0.61143  -0.60787  -0.59423  -0.59321
 Alpha  occ. eigenvalues --   -0.57684  -0.57561  -0.55347  -0.55239  -0.52745
 Alpha  occ. eigenvalues --   -0.52661  -0.52478  -0.52386  -0.50013  -0.49906
 Alpha  occ. eigenvalues --   -0.48045  -0.47900  -0.46803  -0.46530  -0.46102
 Alpha  occ. eigenvalues --   -0.45807  -0.45607  -0.45372  -0.43859  -0.43750
 Alpha virt. eigenvalues --    0.19657   0.22403   0.23310   0.23978   0.25512
 Alpha virt. eigenvalues --    0.26152   0.26662   0.27877   0.29040   0.29814
 Alpha virt. eigenvalues --    0.30253   0.31336   0.31602   0.31775   0.32068

 Mulliken charges:
               1
     1  C   -0.302739
     2  C   -0.304415
     3  C   -0.477239
     4  H    0.149044
     5  H    0.155916
     6  H    0.152346
     7  H    0.155462
     8  H    0.155024
     9  H    0.155738
    10  H    0.160049
    11  C   -0.298672
    12  C   -0.300566
    13  C   -0.475526
    14  H    0.149204
    15  H    0.150694
    16  H    0.151889
    17  H    0.152248
    18  H    0.154652
    19  H    0.155247
    20  H    0.160115
    21  C   -0.302019
    22  C   -0.299627
    23  C   -0.475828
    24  H    0.149382
    25  H    0.152554
    26  H    0.152233
    27  H    0.152248
    28  H    0.155362
    29  H    0.155284
    30  H    0.160520
    31  C   -0.297642
    32  C   -0.307901
    33  C   -0.476802
    34  H    0.149860
    35  H    0.149980
    36  H    0.152871
    37  H    0.158930
    38  H    0.155643
    39  H    0.155880
    40  H    0.160601
 Sum of Mulliken charges =  -0.00000

 Dipole moment (field-independent basis, Debye):
    X=              0.0406    Y=             -0.0103    Z=              0.0119  Tot=              0.0436
 Quadrupole moment (field-independent basis, Debye-Ang):
   XX=            -84.1575   YY=            -84.4961   ZZ=            -86.1043
   XY=             -0.7008   XZ=              0.2243   YZ=              0.1304

 Normal termination of Gaussian 16 at Thu May  6 00:45:11 2021.
