 Gaussian 16, Revision A.03,
 Gaussian 16:  EM64L-G16RevA.03 25-Dec-2016

 -------------
 #p 6-31g* mp2
 -------------

 ------------------------------------------------------
 Input file generated by CHIRIPA (05-May-2021 14:55:25)
 ------------------------------------------------------
 Symbolic Z-matrix:
 Charge =  0 Multiplicity = 1

                         Standard orientation:
 ---------------------------------------------------------------------
 Center     Atomic      Atomic             Coordinates (Angstroms)
 Number     Number       Type             X           Y           Z
 ---------------------------------------------------------------------
      1          6           0        4.982679    1.257797    0.436485
      2          6           0        3.763898    1.924938    0.275193
      3          6           0        2.596732    1.211529   -0.013458
      4          6           0        2.685063   -0.174413   -0.134499
      5          6           0        3.884420   -0.867802    0.020562
      6          6           0        5.038952   -0.133990    0.308880
      7          1           0        5.884454    1.819915    0.660586
      8          1           0        3.717212    3.005751    0.373730
      9          1           0        1.640006    1.702685   -0.143298
     10          1           0        3.899515   -1.945920   -0.083603
     11          1           0        5.984091   -0.654755    0.433619
     12          7           0        1.456125   -0.940467   -0.439904
     13          8           0        1.560492   -2.160884   -0.541527
     14          8           0        0.411786   -0.305978   -0.571875
     15          6           0       -3.274044   -0.561346   -0.023247
     16          6           0       -3.885888   -1.839909    0.550258
     17          6           0       -3.029881   -3.077678    0.280124
     18          1           0       -3.134262   -0.683040   -1.106112
     19          1           0       -2.273234   -0.417154    0.406852
     20          1           0       -4.885803   -1.980907    0.120253
     21          1           0       -4.024407   -1.715086    1.631853
     22          1           0       -2.035601   -2.962752    0.723747
     23          1           0       -2.901892   -3.230084   -0.796442
     24          1           0       -3.485870   -3.980299    0.698702
     25          6           0       -4.118230    0.684631    0.238709
     26          6           0       -3.506385    1.963194   -0.334797
     27          6           0       -4.362392    3.200964   -0.064662
     28          1           0       -5.119039    0.540440   -0.191391
     29          1           0       -4.258012    0.806325    1.321573
     30          1           0       -3.367866    1.838371   -1.416392
     31          1           0       -2.506470    2.104192    0.095208
     32          1           0       -4.490381    3.353369    1.011903
     33          1           0       -5.356672    3.086037   -0.508286
     34          1           0       -3.906403    4.103584   -0.483241
 ---------------------------------------------------------------------

 SCF Done:  E(RHF) =  -669.535942082     A.U. after   15 cycles
 E2 =    -0.2091288487D+01 EUMP2 =    -0.67162723056928D+03

 The electronic state is 1-A.
 Alpha  occ. eigenvalues --  -20.60957 -20.60951 -15.85987 -11.31311 -11.27875
 Alpha  occ. eigenvalues --  -11.27871 -11.27611 -11.26881 -11.26871 -11.20731
 Alpha  occ. eigenvalues --  -11.20459 -11.20318 -11.20302 -11.19775 -11.19607
 Alpha  occ. eigenvalues --   -1.60019  -1.39574  -1.19480  -1.08884  -1.07239
 Alpha  occ. eigenvalues --   -1.04876  -1.02426  -0.95725  -0.94858  -0.86276
 Alpha  occ. eigenvalues --   -0.85871  -0.82559  -0.78514  -0.77617  -0.76949
 Alpha  occ. eigenvalues --   -0.72200  -0.71335  -0.70587  -0.65135  -0.64878
 Alpha  occ. eigenvalues --   -0.63886  -0.62223  -0.59840  -0.58271  -0.56451
 Alpha  occ. eigenvalues --   -0.55379  -0.54148  -0.53208  -0.52967  -0.51620
 Alpha  occ. eigenvalues --   -0.51254  -0.49001  -0.48965  -0.48774  -0.46810
 Alpha  occ. eigenvalues --   -0.45568  -0.45066  -0.44512  -0.44268  -0.42640
 Alpha  occ. eigenvalues --   -0.37458  -0.36477
 Alpha virt. eigenvalues --    0.04895   0.11178   0.16378   0.21264   0.23908
 Alpha virt. eigenvalues --    0.25396   0.27069   0.27577   0.28095   0.28937
 Alpha virt. eigenvalues --    0.29117   0.30969   0.32181   0.32590   0.32624

 Mulliken charges:
               1
     1  C   -0.170593
     2  C   -0.218541
     3  C   -0.170981
     4  C    0.157720
     5  C   -0.170650
     6  C   -0.218579
     7  H    0.226064
     8  H    0.223933
     9  H    0.275729
    10  H    0.275931
    11  H    0.223881
    12  N    0.490182
    13  O   -0.459069
    14  O   -0.461351
    15  C   -0.301677
    16  C   -0.299893
    17  C   -0.473789
    18  H    0.151464
    19  H    0.169452
    20  H    0.145745
    21  H    0.145799
    22  H    0.164177
    23  H    0.156984
    24  H    0.152118
    25  C   -0.298125
    26  C   -0.297240
    27  C   -0.474945
    28  H    0.145147
    29  H    0.144764
    30  H    0.152620
    31  H    0.151293
    32  H    0.152692
    33  H    0.154054
    34  H    0.155680
 Sum of Mulliken charges =  -0.00000

 Dipole moment (field-independent basis, Debye):
    X=              4.7166    Y=              2.6233    Z=              1.0039  Tot=              5.4897
 Quadrupole moment (field-independent basis, Debye-Ang):
   XX=            -72.0905   YY=            -93.8362   ZZ=            -95.2875
   XY=              4.7297   XZ=              3.2613   YZ=             -0.4474

 Normal termination of Gaussian 16 at Wed May  5 20:50:19 2021.
