 Gaussian 16, Revision A.03,
 Gaussian 16:  EM64L-G16RevA.03 25-Dec-2016

 -------------
 #p 6-31g* mp2
 -------------

 ------------------------------------------------------
 Input file generated by CHIRIPA (05-May-2021 14:51:09)
 ------------------------------------------------------
 Symbolic Z-matrix:
 Charge =  0 Multiplicity = 1

                         Standard orientation:
 ---------------------------------------------------------------------
 Center     Atomic      Atomic             Coordinates (Angstroms)
 Number     Number       Type             X           Y           Z
 ---------------------------------------------------------------------
      1          6           0       -3.108216   -0.179447    0.721611
      2          6           0       -1.762256    0.371214    0.249226
      3          6           0       -0.686292    0.313332    1.334005
      4          1           0       -3.441262    0.388507    1.601073
      5          1           0       -2.975486   -1.218780    1.052618
      6          1           0       -1.897758    1.408752   -0.082087
      7          1           0       -1.432468   -0.197993   -0.629329
      8          1           0       -0.521971   -0.719157    1.658914
      9          1           0       -0.989905    0.896718    2.209266
     10          1           0        0.267680    0.711892    0.974912
     11          6           0       -4.194058   -0.128321   -0.351731
     12          6           0       -5.540018   -0.678982    0.120654
     13          6           0       -6.615982   -0.621100   -0.964125
     14          1           0       -4.326788    0.911012   -0.682738
     15          1           0       -3.861012   -0.696276   -1.231193
     16          1           0       -5.869806   -0.109775    0.999209
     17          1           0       -5.404516   -1.716521    0.451967
     18          1           0       -6.312369   -1.204486   -1.839386
     19          1           0       -6.780303    0.411389   -1.289034
     20          1           0       -7.569954   -1.019661   -0.605032
     21          6           0        4.229678   -0.308643   -0.371463
     22          6           0        4.058150   -1.735323    0.151171
     23          6           0        5.223591   -2.648668   -0.230067
     24          1           0        4.333890   -0.335505   -1.464790
     25          1           0        5.167240    0.108210    0.021738
     26          1           0        3.120504   -2.148869   -0.241787
     27          1           0        3.954143   -1.705044    1.243361
     28          1           0        6.164378   -2.262261    0.175163
     29          1           0        5.326002   -2.708607   -1.318423
     30          1           0        5.080390   -3.663623    0.153626
     31          6           0        3.072596    0.616411    0.001583
     32          6           0        3.244124    2.043091   -0.521051
     33          6           0        2.078683    2.956437   -0.139813
     34          1           0        2.135034    0.199558   -0.391618
     35          1           0        2.968385    0.643273    1.094910
     36          1           0        3.348130    2.012812   -1.613241
     37          1           0        4.181771    2.456637   -0.128093
     38          1           0        1.976272    3.016376    0.948543
     39          1           0        1.137896    2.570029   -0.545043
     40          1           0        2.221884    3.971391   -0.523506
 ---------------------------------------------------------------------

 SCF Done:  E(RHF) =  -470.732331783     A.U. after   11 cycles
 E2 =    -0.1583691730D+01 EUMP2 =    -0.47231602351376D+03

 The electronic state is 1-A.
 Alpha  occ. eigenvalues --  -11.21631 -11.21605 -11.21580 -11.21553 -11.21417
 Alpha  occ. eigenvalues --  -11.21370 -11.21358 -11.21309 -11.21096 -11.21076
 Alpha  occ. eigenvalues --  -11.21055 -11.20842  -1.08466  -1.08382  -1.03576
 Alpha  occ. eigenvalues --   -1.03458  -0.96005  -0.95918  -0.87023  -0.86939
 Alpha  occ. eigenvalues --   -0.79658  -0.79515  -0.78287  -0.78203  -0.65092
 Alpha  occ. eigenvalues --   -0.65018  -0.60960  -0.60875  -0.59625  -0.59098
 Alpha  occ. eigenvalues --   -0.57653  -0.57491  -0.55302  -0.55188  -0.52769
 Alpha  occ. eigenvalues --   -0.52588  -0.52431  -0.52350  -0.49945  -0.49856
 Alpha  occ. eigenvalues --   -0.48037  -0.47741  -0.46647  -0.46574  -0.45791
 Alpha  occ. eigenvalues --   -0.45746  -0.45706  -0.45672  -0.43810  -0.43621
 Alpha virt. eigenvalues --    0.21577   0.23124   0.23416   0.24937   0.26419
 Alpha virt. eigenvalues --    0.26494   0.26896   0.27443   0.27800   0.29460
 Alpha virt. eigenvalues --    0.30524   0.31131   0.31463   0.31825   0.32081

 Mulliken charges:
               1
     1  C   -0.298088
     2  C   -0.300332
     3  C   -0.486717
     4  H    0.149782
     5  H    0.149480
     6  H    0.151765
     7  H    0.150436
     8  H    0.153738
     9  H    0.153731
    10  H    0.175489
    11  C   -0.298209
    12  C   -0.299610
    13  C   -0.475673
    14  H    0.149440
    15  H    0.149325
    16  H    0.151947
    17  H    0.151866
    18  H    0.155071
    19  H    0.155155
    20  H    0.160183
    21  C   -0.297392
    22  C   -0.299642
    23  C   -0.475753
    24  H    0.149554
    25  H    0.149544
    26  H    0.151894
    27  H    0.152269
    28  H    0.155216
    29  H    0.155120
    30  H    0.160280
    31  C   -0.303602
    32  C   -0.298862
    33  C   -0.479975
    34  H    0.152696
    35  H    0.151060
    36  H    0.151923
    37  H    0.152054
    38  H    0.156236
    39  H    0.157816
    40  H    0.160787
 Sum of Mulliken charges =  -0.00000

 Dipole moment (field-independent basis, Debye):
    X=              0.0604    Y=              0.0203    Z=             -0.0033  Tot=              0.0638
 Quadrupole moment (field-independent basis, Debye-Ang):
   XX=            -85.9057   YY=            -84.4317   ZZ=            -84.4694
   XY=              0.4640   XZ=             -0.0747   YZ=              0.3721

 Normal termination of Gaussian 16 at Wed May  5 23:00:04 2021.
