 Gaussian 16, Revision A.03,
 Gaussian 16:  EM64L-G16RevA.03 25-Dec-2016

 -------------
 #p 6-31g* mp2
 -------------

 ------------------------------------------------------
 Input file generated by CHIRIPA (05-May-2021 14:51:10)
 ------------------------------------------------------
 Symbolic Z-matrix:
 Charge =  0 Multiplicity = 1

                         Standard orientation:
 ---------------------------------------------------------------------
 Center     Atomic      Atomic             Coordinates (Angstroms)
 Number     Number       Type             X           Y           Z
 ---------------------------------------------------------------------
      1          6           0        3.068967   -0.413983   -0.396227
      2          6           0        3.398231   -1.901568   -0.525305
      3          6           0        2.170681   -2.752557   -0.852004
      4          1           0        2.309212   -0.279639    0.385867
      5          1           0        2.617329   -0.062798   -1.334356
      6          1           0        3.850383   -2.249518    0.412301
      7          1           0        4.157430   -2.032367   -1.307050
      8          1           0        1.721234   -2.433269   -1.797866
      9          1           0        1.412442   -2.651655   -0.068746
     10          1           0        2.428806   -3.812523   -0.939780
     11          6           0        4.285976    0.449765   -0.069799
     12          6           0        3.956712    1.937350    0.059280
     13          6           0        5.184262    2.788339    0.385979
     14          1           0        4.737614    0.098580    0.868331
     15          1           0        5.045731    0.315421   -0.851892
     16          1           0        3.197513    2.068148    0.841025
     17          1           0        3.504560    2.285300   -0.878326
     18          1           0        5.942501    2.687436   -0.397280
     19          1           0        5.633709    2.469051    1.331840
     20          1           0        4.926137    3.848304    0.473754
     21          6           0       -4.399365    0.211798    0.330710
     22          6           0       -4.959638    0.977406   -0.868425
     23          6           0       -6.404749    1.430299   -0.657859
     24          1           0       -5.034127   -0.662825    0.528337
     25          1           0       -4.458420    0.849093    1.223886
     26          1           0       -4.898269    0.339357   -1.759348
     27          1           0       -4.323360    1.850202   -1.063339
     28          1           0       -6.479204    2.087758    0.214382
     29          1           0       -7.057381    0.568329   -0.485580
     30          1           0       -6.785294    1.975579   -1.527178
     31          6           0       -2.955578   -0.247580    0.135315
     32          6           0       -2.395304   -1.013188    1.334450
     33          6           0       -0.950194   -1.466080    1.123884
     34          1           0       -2.896523   -0.884876   -0.757859
     35          1           0       -2.320817    0.627043   -0.062312
     36          1           0       -3.031583   -1.885984    1.529365
     37          1           0       -2.456674   -0.375139    2.225373
     38          1           0       -0.297563   -0.604110    0.951605
     39          1           0       -0.875738   -2.123540    0.251643
     40          1           0       -0.569649   -2.011360    1.993203
 ---------------------------------------------------------------------

 SCF Done:  E(RHF) =  -470.732643931     A.U. after   11 cycles
 E2 =    -0.1583149421D+01 EUMP2 =    -0.47231579335168D+03

 The electronic state is 1-A.
 Alpha  occ. eigenvalues --  -11.21608 -11.21601 -11.21587 -11.21513 -11.21406
 Alpha  occ. eigenvalues --  -11.21356 -11.21347 -11.21289 -11.21084 -11.21071
 Alpha  occ. eigenvalues --  -11.21059 -11.20880  -1.08437  -1.08374  -1.03557
 Alpha  occ. eigenvalues --   -1.03453  -0.96026  -0.95890  -0.87073  -0.86889
 Alpha  occ. eigenvalues --   -0.79706  -0.79455  -0.78276  -0.78154  -0.65068
 Alpha  occ. eigenvalues --   -0.65007  -0.60955  -0.60865  -0.59363  -0.59290
 Alpha  occ. eigenvalues --   -0.57669  -0.57480  -0.55418  -0.55096  -0.52755
 Alpha  occ. eigenvalues --   -0.52608  -0.52531  -0.52214  -0.50073  -0.49692
 Alpha  occ. eigenvalues --   -0.48131  -0.47671  -0.46640  -0.46533  -0.45906
 Alpha  occ. eigenvalues --   -0.45711  -0.45675  -0.45483  -0.43786  -0.43724
 Alpha virt. eigenvalues --    0.22115   0.22953   0.23691   0.24626   0.25642
 Alpha virt. eigenvalues --    0.26402   0.27083   0.27551   0.27744   0.29333
 Alpha virt. eigenvalues --    0.30664   0.30857   0.31466   0.31833   0.32273

 Mulliken charges:
               1
     1  C   -0.302144
     2  C   -0.298912
     3  C   -0.484509
     4  H    0.153535
     5  H    0.149153
     6  H    0.151323
     7  H    0.151281
     8  H    0.153636
     9  H    0.168624
    10  H    0.158876
    11  C   -0.298028
    12  C   -0.299549
    13  C   -0.475643
    14  H    0.149399
    15  H    0.149644
    16  H    0.151358
    17  H    0.151808
    18  H    0.155227
    19  H    0.155181
    20  H    0.160067
    21  C   -0.298310
    22  C   -0.299644
    23  C   -0.475707
    24  H    0.149665
    25  H    0.149487
    26  H    0.151965
    27  H    0.151972
    28  H    0.155168
    29  H    0.155186
    30  H    0.160259
    31  C   -0.298471
    32  C   -0.300417
    33  C   -0.481747
    34  H    0.149828
    35  H    0.149866
    36  H    0.152064
    37  H    0.151649
    38  H    0.158856
    39  H    0.158540
    40  H    0.159462
 Sum of Mulliken charges =  -0.00000

 Dipole moment (field-independent basis, Debye):
    X=             -0.0397    Y=             -0.0060    Z=              0.0122  Tot=              0.0420
 Quadrupole moment (field-independent basis, Debye-Ang):
   XX=            -86.5418   YY=            -84.7669   ZZ=            -83.7318
   XY=              0.2110   XZ=             -0.1465   YZ=              0.0029

 Normal termination of Gaussian 16 at Thu May  6 05:22:34 2021.
