 Gaussian 16, Revision A.03,
 Gaussian 16:  EM64L-G16RevA.03 25-Dec-2016

 -------------
 #p 6-31g* mp2
 -------------

 ------------------------------------------------------
 Input file generated by CHIRIPA (05-May-2021 14:57:27)
 ------------------------------------------------------
 Symbolic Z-matrix:
 Charge =  0 Multiplicity = 1

                         Standard orientation:
 ---------------------------------------------------------------------
 Center     Atomic      Atomic             Coordinates (Angstroms)
 Number     Number       Type             X           Y           Z
 ---------------------------------------------------------------------
      1          6           0       -3.517901   -2.404365    0.038440
      2          6           0       -4.569934   -1.594573    0.478876
      3          6           0       -4.504007   -0.205311    0.336917
      4          6           0       -3.366027    0.343090   -0.252614
      5          6           0       -2.301487   -0.437058   -0.701405
      6          6           0       -2.389025   -1.824046   -0.549259
      7          1           0       -3.577509   -3.482694    0.152674
      8          1           0       -5.447860   -2.042502    0.935660
      9          1           0       -5.304009    0.445134    0.669088
     10          1           0       -1.439243    0.038487   -1.152858
     11          1           0       -1.570488   -2.450475   -0.892229
     12          7           0       -3.284794    1.812636   -0.408292
     13          8           0       -2.271328    2.271271   -0.930956
     14          8           0       -4.236127    2.478005   -0.004701
     15          6           0        1.111616   -0.492754    1.261101
     16          6           0        1.533837   -1.276463    0.182188
     17          6           0        2.788339   -1.068180   -0.398664
     18          6           0        3.598658   -0.063007    0.126980
     19          6           0        3.206352    0.734359    1.201035
     20          6           0        1.947748    0.508390    1.766190
     21          1           0        0.135495   -0.661423    1.706225
     22          1           0        0.886589   -2.054678   -0.212144
     23          1           0        3.140234   -1.660308   -1.234710
     24          1           0        3.873722    1.502610    1.572284
     25          1           0        1.622469    1.118558    2.604005
     26          7           0        4.928915    0.166854   -0.479634
     27          8           0        5.624096    1.058755    0.001898
     28          8           0        5.251200   -0.549233   -1.425143
 ---------------------------------------------------------------------

 SCF Done:  E(RHF) =  -868.337101299     A.U. after   16 cycles
 E2 =    -0.2600842435D+01 EUMP2 =    -0.87093794373407D+03

 The electronic state is 1-A.
 Alpha  occ. eigenvalues --  -20.61445 -20.61439 -20.60880 -20.60868 -15.86507
 Alpha  occ. eigenvalues --  -15.85937 -11.32032 -11.31376 -11.28651 -11.28614
 Alpha  occ. eigenvalues --  -11.28415 -11.28045 -11.27932 -11.27765 -11.27733
 Alpha  occ. eigenvalues --  -11.27618 -11.27138 -11.26916  -1.60523  -1.59951
 Alpha  occ. eigenvalues --   -1.40069  -1.39502  -1.20247  -1.19576  -1.09600
 Alpha  occ. eigenvalues --   -1.08957  -1.05679  -1.05005  -0.96399  -0.95769
 Alpha  occ. eigenvalues --   -0.87055  -0.86409  -0.83233  -0.82611  -0.78263
 Alpha  occ. eigenvalues --   -0.77641  -0.72714  -0.72155  -0.71860  -0.71315
 Alpha  occ. eigenvalues --   -0.71273  -0.70666  -0.65895  -0.65732  -0.65236
 Alpha  occ. eigenvalues --   -0.65023  -0.63018  -0.62316  -0.56140  -0.55507
 Alpha  occ. eigenvalues --   -0.53989  -0.53796  -0.53285  -0.53073  -0.49491
 Alpha  occ. eigenvalues --   -0.49461  -0.48920  -0.48902  -0.45438  -0.44892
 Alpha  occ. eigenvalues --   -0.38235  -0.37688  -0.37158  -0.36597
 Alpha virt. eigenvalues --    0.04234   0.04941   0.10311   0.10960   0.15619
 Alpha virt. eigenvalues --    0.16378   0.18995   0.21837   0.24710   0.27535
 Alpha virt. eigenvalues --    0.27986   0.28370   0.29461   0.31474   0.31985

 Mulliken charges:
               1
     1  C   -0.170578
     2  C   -0.218973
     3  C   -0.169824
     4  C    0.157084
     5  C   -0.175186
     6  C   -0.227101
     7  H    0.228202
     8  H    0.226626
     9  H    0.278403
    10  H    0.280873
    11  H    0.220193
    12  N    0.487607
    13  O   -0.457629
    14  O   -0.458503
    15  C   -0.171539
    16  C   -0.225220
    17  C   -0.170068
    18  C    0.159109
    19  C   -0.168507
    20  C   -0.216272
    21  H    0.228228
    22  H    0.214114
    23  H    0.275273
    24  H    0.277883
    25  H    0.226980
    26  N    0.488208
    27  O   -0.458570
    28  O   -0.460814
 Sum of Mulliken charges =  -0.00000

 Dipole moment (field-independent basis, Debye):
    X=             -5.0673    Y=             -5.7745    Z=              2.7746  Tot=              8.1683
 Quadrupole moment (field-independent basis, Debye-Ang):
   XX=           -131.9137   YY=           -106.5423   ZZ=           -102.4799
   XY=             15.3960   XZ=              3.8924   YZ=              4.3138

 Normal termination of Gaussian 16 at Wed May  5 21:14:50 2021.
