 Gaussian 16, Revision A.03,
 Gaussian 16:  EM64L-G16RevA.03 25-Dec-2016

 -------------
 #p 6-31g* mp2
 -------------

 ------------------------------------------------------
 Input file generated by CHIRIPA (05-May-2021 14:51:09)
 ------------------------------------------------------
 Symbolic Z-matrix:
 Charge =  0 Multiplicity = 1

                         Standard orientation:
 ---------------------------------------------------------------------
 Center     Atomic      Atomic             Coordinates (Angstroms)
 Number     Number       Type             X           Y           Z
 ---------------------------------------------------------------------
      1          6           0        4.427276   -0.506326   -0.244978
      2          6           0        5.656610   -1.113751    0.431600
      3          6           0        6.055448   -2.462523   -0.168012
      4          1           0        3.586640   -1.208811   -0.162571
      5          1           0        4.629984   -0.385972   -1.318206
      6          1           0        5.452144   -1.231640    1.503473
      7          1           0        6.494365   -0.409656    0.347741
      8          1           0        6.286071   -2.357542   -1.233091
      9          1           0        5.237929   -3.184196   -0.070792
     10          1           0        6.936453   -2.878714    0.330460
     11          6           0        4.016234    0.842200    0.343454
     12          6           0        2.786901    1.449625   -0.333124
     13          6           0        2.388062    2.798398    0.266489
     14          1           0        3.813526    0.721847    1.416683
     15          1           0        4.856870    1.544685    0.261047
     16          1           0        1.949145    0.745530   -0.249265
     17          1           0        2.991366    1.567514   -1.404997
     18          1           0        3.205582    3.520070    0.169268
     19          1           0        2.157439    2.693416    1.331567
     20          1           0        1.507057    3.214588   -0.231984
     21          6           0       -4.954735    0.042305   -0.093629
     22          6           0       -5.929706   -1.075236    0.278549
     23          6           0       -7.392234   -0.639305    0.184903
     24          1           0       -5.125050    0.903762    0.566544
     25          1           0       -5.171862    0.383679   -1.115254
     26          1           0       -5.709910   -1.415347    1.298662
     27          1           0       -5.756922   -1.934205   -0.382462
     28          1           0       -7.634324   -0.319135   -0.833667
     29          1           0       -7.587046    0.202670    0.857010
     30          1           0       -8.071918   -1.453454    0.455186
     31          6           0       -3.488775   -0.378179   -0.004847
     32          6           0       -2.513804    0.739362   -0.377025
     33          6           0       -1.051276    0.303431   -0.283379
     34          1           0       -3.271649   -0.719553    1.016777
     35          1           0       -3.318461   -1.239637   -0.665020
     36          1           0       -2.686589    1.598330    0.283985
     37          1           0       -2.733600    1.079473   -1.397138
     38          1           0       -0.856465   -0.538545   -0.955486
     39          1           0       -0.809187   -0.016739    0.735190
     40          1           0       -0.371592    1.117580   -0.553662
 ---------------------------------------------------------------------

 SCF Done:  E(RHF) =  -470.732916345     A.U. after   11 cycles
 E2 =    -0.1582750797D+01 EUMP2 =    -0.47231566714178D+03

 The electronic state is 1-A.
 Alpha  occ. eigenvalues --  -11.21610 -11.21608 -11.21565 -11.21477 -11.21413
 Alpha  occ. eigenvalues --  -11.21353 -11.21349 -11.21288 -11.21076 -11.21068
 Alpha  occ. eigenvalues --  -11.21047 -11.21043  -1.08441  -1.08373  -1.03560
 Alpha  occ. eigenvalues --   -1.03466  -0.96022  -0.95915  -0.87020  -0.86953
 Alpha  occ. eigenvalues --   -0.79673  -0.79488  -0.78262  -0.78175  -0.65071
 Alpha  occ. eigenvalues --   -0.65012  -0.60964  -0.60900  -0.59557  -0.59140
 Alpha  occ. eigenvalues --   -0.57715  -0.57420  -0.55294  -0.55215  -0.52755
 Alpha  occ. eigenvalues --   -0.52577  -0.52448  -0.52316  -0.49933  -0.49874
 Alpha  occ. eigenvalues --   -0.47921  -0.47861  -0.46641  -0.46569  -0.45815
 Alpha  occ. eigenvalues --   -0.45722  -0.45718  -0.45649  -0.43763  -0.43693
 Alpha virt. eigenvalues --    0.22018   0.23000   0.23444   0.24999   0.26294
 Alpha virt. eigenvalues --    0.26642   0.26842   0.27241   0.27769   0.28871
 Alpha virt. eigenvalues --    0.30426   0.30960   0.31419   0.31702   0.32224

 Mulliken charges:
               1
     1  C   -0.298359
     2  C   -0.299589
     3  C   -0.475677
     4  H    0.149961
     5  H    0.149344
     6  H    0.151814
     7  H    0.151834
     8  H    0.155097
     9  H    0.155152
    10  H    0.160106
    11  C   -0.297591
    12  C   -0.307686
    13  C   -0.476525
    14  H    0.149160
    15  H    0.149113
    16  H    0.162265
    17  H    0.151057
    18  H    0.155290
    19  H    0.155329
    20  H    0.159530
    21  C   -0.298278
    22  C   -0.299608
    23  C   -0.475704
    24  H    0.149680
    25  H    0.149551
    26  H    0.151892
    27  H    0.151935
    28  H    0.155202
    29  H    0.155196
    30  H    0.160263
    31  C   -0.298578
    32  C   -0.300216
    33  C   -0.480610
    34  H    0.149393
    35  H    0.149611
    36  H    0.152115
    37  H    0.151962
    38  H    0.155095
    39  H    0.154378
    40  H    0.167098
 Sum of Mulliken charges =  -0.00000

 Dipole moment (field-independent basis, Debye):
    X=             -0.0227    Y=             -0.0058    Z=             -0.0038  Tot=              0.0237
 Quadrupole moment (field-independent basis, Debye-Ang):
   XX=            -86.0034   YY=            -85.5288   ZZ=            -83.4752
   XY=              0.8471   XZ=             -0.2673   YZ=             -0.3367

 Normal termination of Gaussian 16 at Wed May  5 22:58:23 2021.
