 Gaussian 16, Revision A.03,
 Gaussian 16:  EM64L-G16RevA.03 25-Dec-2016

 -------------
 #p 6-31g* mp2
 -------------

 ------------------------------------------------------
 Input file generated by CHIRIPA (05-May-2021 14:55:24)
 ------------------------------------------------------
 Symbolic Z-matrix:
 Charge =  0 Multiplicity = 1

                         Standard orientation:
 ---------------------------------------------------------------------
 Center     Atomic      Atomic             Coordinates (Angstroms)
 Number     Number       Type             X           Y           Z
 ---------------------------------------------------------------------
      1          6           0       -5.243347   -0.343079   -0.094526
      2          6           0       -4.653330    0.222584    1.040562
      3          6           0       -3.264427    0.357177    1.126476
      4          6           0       -2.492275   -0.086506    0.053994
      5          6           0       -3.050421   -0.654256   -1.090305
      6          6           0       -4.441424   -0.778926   -1.154468
      7          1           0       -6.323096   -0.443780   -0.152818
      8          1           0       -5.273633    0.561941    1.865247
      9          1           0       -2.781445    0.791418    1.993414
     10          1           0       -2.405930   -0.983346   -1.896376
     11          1           0       -4.896892   -1.218613   -2.037231
     12          7           0       -1.020794    0.050729    0.133434
     13          8           0       -0.362598   -0.347922   -0.824946
     14          8           0       -0.553506    0.554347    1.152575
     15          6           0        3.535286   -0.577666   -0.312433
     16          6           0        4.166791   -1.553066    0.681440
     17          6           0        4.229249   -2.984146    0.146746
     18          1           0        2.522196   -0.922203   -0.561206
     19          1           0        4.110208   -0.595506   -1.248670
     20          1           0        3.591666   -1.532367    1.616009
     21          1           0        5.178424   -1.206063    0.928024
     22          1           0        4.820330   -3.025984   -0.773837
     23          1           0        3.224556   -3.354141   -0.081943
     24          1           0        4.684183   -3.664662    0.873240
     25          6           0        3.465783    0.857023    0.207725
     26          6           0        2.834278    1.832421   -0.786149
     27          6           0        2.771820    3.263503   -0.251454
     28          1           0        2.890860    0.874863    1.143962
     29          1           0        4.478873    1.201560    0.456498
     30          1           0        1.822645    1.485419   -1.032732
     31          1           0        3.409403    1.811723   -1.720717
     32          1           0        3.776512    3.633497   -0.022765
     33          1           0        2.180739    3.305341    0.669130
     34          1           0        2.316886    3.944018   -0.977947
 ---------------------------------------------------------------------

 SCF Done:  E(RHF) =  -669.537317479     A.U. after   15 cycles
 E2 =    -0.2092574007D+01 EUMP2 =    -0.67162989148610D+03

 The electronic state is 1-A.
 Alpha  occ. eigenvalues --  -20.61299 -20.61285 -15.86271 -11.31483 -11.28024
 Alpha  occ. eigenvalues --  -11.28021 -11.27742 -11.27002 -11.26993 -11.20201
 Alpha  occ. eigenvalues --  -11.19951 -11.19694 -11.19590 -11.19547 -11.19485
 Alpha  occ. eigenvalues --   -1.60317  -1.39876  -1.19633  -1.09061  -1.06702
 Alpha  occ. eigenvalues --   -1.05009  -1.01986  -0.95919  -0.94462  -0.86416
 Alpha  occ. eigenvalues --   -0.85494  -0.82757  -0.78048  -0.77825  -0.76492
 Alpha  occ. eigenvalues --   -0.72475  -0.71613  -0.70740  -0.65289  -0.65016
 Alpha  occ. eigenvalues --   -0.63306  -0.62356  -0.59377  -0.57859  -0.56083
 Alpha  occ. eigenvalues --   -0.55518  -0.53743  -0.53345  -0.53099  -0.51245
 Alpha  occ. eigenvalues --   -0.50907  -0.49303  -0.49249  -0.48394  -0.46391
 Alpha  occ. eigenvalues --   -0.45384  -0.44942  -0.44046  -0.43776  -0.42183
 Alpha  occ. eigenvalues --   -0.37604  -0.36603
 Alpha virt. eigenvalues --    0.04662   0.11054   0.16184   0.21188   0.24602
 Alpha virt. eigenvalues --    0.25746   0.27131   0.27974   0.28506   0.29182
 Alpha virt. eigenvalues --    0.29600   0.30835   0.32317   0.32808   0.33193

 Mulliken charges:
               1
     1  C   -0.170088
     2  C   -0.218653
     3  C   -0.170316
     4  C    0.158323
     5  C   -0.170432
     6  C   -0.218606
     7  H    0.226744
     8  H    0.224522
     9  H    0.276218
    10  H    0.276308
    11  H    0.224557
    12  N    0.489193
    13  O   -0.458610
    14  O   -0.458293
    15  C   -0.307171
    16  C   -0.298532
    17  C   -0.474600
    18  H    0.173757
    19  H    0.140654
    20  H    0.152174
    21  H    0.146222
    22  H    0.151958
    23  H    0.155147
    24  H    0.154678
    25  C   -0.296004
    26  C   -0.306136
    27  C   -0.476032
    28  H    0.158651
    29  H    0.139131
    30  H    0.173943
    31  H    0.142090
    32  H    0.148480
    33  H    0.158200
    34  H    0.152522
 Sum of Mulliken charges =  -0.00000

 Dipole moment (field-independent basis, Debye):
    X=             -5.8221    Y=             -0.5724    Z=             -0.2384  Tot=              5.8550
 Quadrupole moment (field-independent basis, Debye-Ang):
   XX=            -70.4901   YY=            -96.8554   ZZ=            -90.7982
   XY=              1.6384   XZ=             -0.2388   YZ=              2.1674

 Normal termination of Gaussian 16 at Wed May  5 20:46:59 2021.
