 Gaussian 16, Revision A.03,
 Gaussian 16:  EM64L-G16RevA.03 25-Dec-2016

 -------------
 #p 6-31g* mp2
 -------------

 ------------------------------------------------------
 Input file generated by CHIRIPA (05-May-2021 14:57:27)
 ------------------------------------------------------
 Symbolic Z-matrix:
 Charge =  0 Multiplicity = 1

                         Standard orientation:
 ---------------------------------------------------------------------
 Center     Atomic      Atomic             Coordinates (Angstroms)
 Number     Number       Type             X           Y           Z
 ---------------------------------------------------------------------
      1          6           0       -2.708545    2.704001    0.538502
      2          6           0       -2.421601    2.222497   -0.743035
      3          6           0       -2.631052    0.876894   -1.059311
      4          6           0       -3.130825    0.036918   -0.065350
      5          6           0       -3.426401    0.486627    1.220607
      6          6           0       -3.209146    1.836060    1.514513
      7          1           0       -2.542807    3.750785    0.775504
      8          1           0       -2.032734    2.894261   -1.503010
      9          1           0       -2.417459    0.477636   -2.043379
     10          1           0       -3.813058   -0.207166    1.957198
     11          1           0       -3.432886    2.207225    2.510616
     12          7           0       -3.356692   -1.389638   -0.388336
     13          8           0       -3.797824   -2.109272    0.505066
     14          8           0       -3.088318   -1.761127   -1.528778
     15          6           0        0.831155   -1.385839    0.094004
     16          6           0        1.128316   -0.478942   -0.928618
     17          6           0        2.378628    0.144126   -0.983897
     18          6           0        3.312323   -0.164354    0.004202
     19          6           0        3.046237   -1.063490    1.035725
     20          6           0        1.789374   -1.674709    1.071189
     21          1           0       -0.142661   -1.865250    0.129249
     22          1           0        0.386093   -0.252690   -1.688854
     23          1           0        2.635134    0.850122   -1.764405
     24          1           0        3.806588   -1.268884    1.779430
     25          1           0        1.561369   -2.378608    1.866541
     26          7           0        4.639440    0.488989   -0.043831
     27          8           0        5.444748    0.200209    0.838622
     28          8           0        4.849196    1.277486   -0.963021
 ---------------------------------------------------------------------

 SCF Done:  E(RHF) =  -868.338411225     A.U. after   16 cycles
 E2 =    -0.2600567201D+01 EUMP2 =    -0.87093897842614D+03

 The electronic state is 1-A.
 Alpha  occ. eigenvalues --  -20.61922 -20.61910 -20.60758 -20.60750 -15.86952
 Alpha  occ. eigenvalues --  -15.85809 -11.32157 -11.31103 -11.28732 -11.28652
 Alpha  occ. eigenvalues --  -11.28317 -11.27685 -11.27652 -11.27645 -11.27597
 Alpha  occ. eigenvalues --  -11.27314 -11.26651 -11.26613  -1.61011  -1.59835
 Alpha  occ. eigenvalues --   -1.40560  -1.39391  -1.20294  -1.19260  -1.09707
 Alpha  occ. eigenvalues --   -1.08650  -1.05664  -1.04660  -0.96573  -0.95502
 Alpha  occ. eigenvalues --   -0.87067  -0.86047  -0.83401  -0.82346  -0.78494
 Alpha  occ. eigenvalues --   -0.77419  -0.73151  -0.72395  -0.72026  -0.71369
 Alpha  occ. eigenvalues --   -0.71159  -0.70299  -0.65933  -0.65647  -0.64905
 Alpha  occ. eigenvalues --   -0.64660  -0.63018  -0.62013  -0.56119  -0.55099
 Alpha  occ. eigenvalues --   -0.54019  -0.53742  -0.52966  -0.52734  -0.49935
 Alpha  occ. eigenvalues --   -0.49900  -0.48788  -0.48777  -0.45985  -0.44813
 Alpha  occ. eigenvalues --   -0.38252  -0.37356  -0.37099  -0.36240
 Alpha virt. eigenvalues --    0.03974   0.05127   0.10287   0.11429   0.15540
 Alpha virt. eigenvalues --    0.16662   0.20018   0.21610   0.25502   0.27024
 Alpha virt. eigenvalues --    0.27955   0.28333   0.30212   0.30637   0.31993

 Mulliken charges:
               1
     1  C   -0.168782
     2  C   -0.216735
     3  C   -0.176983
     4  C    0.155000
     5  C   -0.171312
     6  C   -0.217085
     7  H    0.230404
     8  H    0.226403
     9  H    0.272639
    10  H    0.276907
    11  H    0.227240
    12  N    0.485084
    13  O   -0.457415
    14  O   -0.462256
    15  C   -0.172438
    16  C   -0.216749
    17  C   -0.172788
    18  C    0.158112
    19  C   -0.171466
    20  C   -0.219687
    21  H    0.232898
    22  H    0.220535
    23  H    0.272742
    24  H    0.275019
    25  H    0.225319
    26  N    0.488103
    27  O   -0.460587
    28  O   -0.462122
 Sum of Mulliken charges =  -0.00000

 Dipole moment (field-independent basis, Debye):
    X=             -4.1196    Y=              2.8456    Z=              1.4737  Tot=              5.2193
 Quadrupole moment (field-independent basis, Debye-Ang):
   XX=           -141.2925   YY=           -102.8733   ZZ=            -97.4966
   XY=            -23.7485   XZ=             -3.8400   YZ=             -3.4613

 Normal termination of Gaussian 16 at Thu May  6 05:13:37 2021.
