 Gaussian 16, Revision A.03,
 Gaussian 16:  EM64L-G16RevA.03 25-Dec-2016

 -------------
 #p 6-31g* mp2
 -------------

 ------------------------------------------------------
 Input file generated by CHIRIPA (05-May-2021 14:57:27)
 ------------------------------------------------------
 Symbolic Z-matrix:
 Charge =  0 Multiplicity = 1

                         Standard orientation:
 ---------------------------------------------------------------------
 Center     Atomic      Atomic             Coordinates (Angstroms)
 Number     Number       Type             X           Y           Z
 ---------------------------------------------------------------------
      1          6           0        1.245083    0.079882    0.622263
      2          6           0        2.137622    0.969972    1.228593
      3          6           0        3.507657    0.894542    0.960523
      4          6           0        3.952663   -0.087701    0.077088
      5          6           0        3.088402   -0.988909   -0.542724
      6          6           0        1.722480   -0.894999   -0.259905
      7          1           0        0.182405    0.145655    0.836235
      8          1           0        1.769703    1.728089    1.914113
      9          1           0        4.220688    1.570924    1.416060
     10          1           0        3.485020   -1.733971   -1.221691
     11          1           0        1.031635   -1.587586   -0.732241
     12          7           0        5.400881   -0.177337   -0.214513
     13          8           0        5.767724   -1.051700   -0.996531
     14          8           0        6.141729    0.628467    0.344469
     15          6           0       -2.916802    2.406797   -0.657581
     16          6           0       -4.245471    2.190572   -0.277572
     17          6           0       -4.698150    0.901684    0.019744
     18          6           0       -3.791047   -0.152702   -0.073673
     19          6           0       -2.461199    0.030574   -0.449443
     20          6           0       -2.030469    1.328010   -0.742155
     21          1           0       -2.573676    3.411357   -0.886755
     22          1           0       -4.936031    3.026483   -0.211044
     23          1           0       -5.721410    0.705918    0.316443
     24          1           0       -1.796230   -0.822620   -0.506839
     25          1           0       -0.998047    1.492959   -1.037012
     26          7           0       -4.258660   -1.521715    0.238644
     27          8           0       -3.439733   -2.433815    0.148813
     28          8           0       -5.435247   -1.656724    0.567359
 ---------------------------------------------------------------------

 SCF Done:  E(RHF) =  -868.336628655     A.U. after   16 cycles
 E2 =    -0.2601612954D+01 EUMP2 =    -0.87093824160894D+03

 The electronic state is 1-A.
 Alpha  occ. eigenvalues --  -20.61635 -20.61617 -20.61115 -20.61109 -15.86687
 Alpha  occ. eigenvalues --  -15.86171 -11.32196 -11.31656 -11.28857 -11.28691
 Alpha  occ. eigenvalues --  -11.28438 -11.28223 -11.28219 -11.27971 -11.27784
 Alpha  occ. eigenvalues --  -11.27714 -11.27305 -11.27281  -1.60700  -1.60187
 Alpha  occ. eigenvalues --   -1.40252  -1.39737  -1.20362  -1.19843  -1.09704
 Alpha  occ. eigenvalues --   -1.09236  -1.05800  -1.05253  -0.96534  -0.96042
 Alpha  occ. eigenvalues --   -0.87160  -0.86657  -0.83401  -0.82842  -0.78429
 Alpha  occ. eigenvalues --   -0.77875  -0.72901  -0.72387  -0.72028  -0.71518
 Alpha  occ. eigenvalues --   -0.71511  -0.70919  -0.66005  -0.65769  -0.65492
 Alpha  occ. eigenvalues --   -0.65274  -0.63123  -0.62574  -0.56244  -0.55808
 Alpha  occ. eigenvalues --   -0.54023  -0.53922  -0.53520  -0.53337  -0.49669
 Alpha  occ. eigenvalues --   -0.49647  -0.49156  -0.49134  -0.45627  -0.45115
 Alpha  occ. eigenvalues --   -0.38307  -0.37875  -0.37360  -0.36856
 Alpha virt. eigenvalues --    0.04070   0.04613   0.10231   0.10766   0.15387
 Alpha virt. eigenvalues --    0.16029   0.19035   0.21804   0.24665   0.26962
 Alpha virt. eigenvalues --    0.27705   0.29379   0.30103   0.30866   0.31199

 Mulliken charges:
               1
     1  C   -0.182091
     2  C   -0.221385
     3  C   -0.170442
     4  C    0.159100
     5  C   -0.169604
     6  C   -0.224242
     7  H    0.230735
     8  H    0.224644
     9  H    0.276874
    10  H    0.278363
    11  H    0.225941
    12  N    0.487885
    13  O   -0.458515
    14  O   -0.459387
    15  C   -0.171255
    16  C   -0.217531
    17  C   -0.169874
    18  C    0.160069
    19  C   -0.180524
    20  C   -0.225002
    21  H    0.229437
    22  H    0.227437
    23  H    0.278924
    24  H    0.270862
    25  H    0.229269
    26  N    0.488043
    27  O   -0.461520
    28  O   -0.456210
 Sum of Mulliken charges =  -0.00000

 Dipole moment (field-independent basis, Debye):
    X=             -3.5947    Y=              5.2210    Z=             -0.0783  Tot=              6.3393
 Quadrupole moment (field-independent basis, Debye-Ang):
   XX=           -151.9633   YY=           -103.1735   ZZ=           -103.6911
   XY=            -18.5790   XZ=              7.3948   YZ=              2.8349

 Normal termination of Gaussian 16 at Wed May  5 18:05:25 2021.
