 Gaussian 16, Revision A.03,
 Gaussian 16:  EM64L-G16RevA.03 25-Dec-2016

 -------------
 #p 6-31g* mp2
 -------------

 ------------------------------------------------------
 Input file generated by CHIRIPA (05-May-2021 14:51:11)
 ------------------------------------------------------
 Symbolic Z-matrix:
 Charge =  0 Multiplicity = 1

                         Standard orientation:
 ---------------------------------------------------------------------
 Center     Atomic      Atomic             Coordinates (Angstroms)
 Number     Number       Type             X           Y           Z
 ---------------------------------------------------------------------
      1          6           0        4.481613   -0.169855   -0.353563
      2          6           0        5.869106   -0.408679    0.242934
      3          6           0        6.588040   -1.599940   -0.390964
      4          1           0        3.874040   -1.076365   -0.226914
      5          1           0        4.578513   -0.007215   -1.435946
      6          1           0        5.769759   -0.569447    1.324091
      7          1           0        6.473384    0.498571    0.115021
      8          1           0        6.716450   -1.444301   -1.467016
      9          1           0        6.008827   -2.518387   -0.251077
     10          1           0        7.577928   -1.752600    0.050256
     11          6           0        3.750370    1.017706    0.269905
     12          6           0        2.362877    1.256531   -0.326593
     13          6           0        1.643943    2.447791    0.307306
     14          1           0        3.653471    0.855067    1.352288
     15          1           0        4.357943    1.924217    0.143255
     16          1           0        1.758599    0.349281   -0.198680
     17          1           0        2.462224    1.417298   -1.407749
     18          1           0        2.223156    3.366238    0.167419
     19          1           0        1.515533    2.292152    1.383358
     20          1           0        0.654055    2.600452   -0.133914
     21          6           0       -3.559773   -0.792549    0.413542
     22          6           0       -2.170562   -0.547832   -0.176535
     23          6           0       -1.068365   -1.291997    0.577902
     24          1           0       -3.562784   -0.484273    1.468009
     25          1           0       -3.770410   -1.870931    0.402554
     26          1           0       -1.963171    0.529891   -0.165711
     27          1           0       -2.170911   -0.856549   -1.229773
     28          1           0       -1.247993   -2.371745    0.556025
     29          1           0       -1.039073   -0.977428    1.626133
     30          1           0       -0.083600   -1.102945    0.139316
     31          6           0       -4.672210   -0.055302   -0.329883
     32          6           0       -6.061421   -0.300019    0.260194
     33          6           0       -7.163618    0.444145   -0.494244
     34          1           0       -4.461573    1.023078   -0.318896
     35          1           0       -4.669199   -0.363579   -1.384351
     36          1           0       -6.061072    0.008697    1.313432
     37          1           0       -6.268811   -1.377743    0.249370
     38          1           0       -7.192910    0.129576   -1.542475
     39          1           0       -6.983991    1.523894   -0.472367
     40          1           0       -8.148383    0.255094   -0.055658
 ---------------------------------------------------------------------

 SCF Done:  E(RHF) =  -470.733336116     A.U. after   11 cycles
 E2 =    -0.1582601293D+01 EUMP2 =    -0.47231593740841D+03

 The electronic state is 1-A.
 Alpha  occ. eigenvalues --  -11.21615 -11.21604 -11.21593 -11.21583 -11.21411
 Alpha  occ. eigenvalues --  -11.21396 -11.21352 -11.21337 -11.21086 -11.21074
 Alpha  occ. eigenvalues --  -11.21072 -11.21062  -1.08441  -1.08419  -1.03555
 Alpha  occ. eigenvalues --   -1.03506  -0.96004  -0.95958  -0.87019  -0.86979
 Alpha  occ. eigenvalues --   -0.79635  -0.79556  -0.78248  -0.78238  -0.65084
 Alpha  occ. eigenvalues --   -0.65044  -0.60999  -0.60893  -0.59467  -0.59236
 Alpha  occ. eigenvalues --   -0.57684  -0.57491  -0.55304  -0.55224  -0.52730
 Alpha  occ. eigenvalues --   -0.52650  -0.52433  -0.52381  -0.49932  -0.49906
 Alpha  occ. eigenvalues --   -0.48025  -0.47815  -0.46639  -0.46594  -0.45803
 Alpha  occ. eigenvalues --   -0.45766  -0.45714  -0.45694  -0.43805  -0.43728
 Alpha virt. eigenvalues --    0.21019   0.23069   0.23531   0.25095   0.25931
 Alpha virt. eigenvalues --    0.26446   0.27044   0.27236   0.28031   0.28871
 Alpha virt. eigenvalues --    0.30450   0.30631   0.31466   0.31740   0.32472

 Mulliken charges:
               1
     1  C   -0.298390
     2  C   -0.299647
     3  C   -0.475737
     4  H    0.149482
     5  H    0.149496
     6  H    0.152024
     7  H    0.151924
     8  H    0.155133
     9  H    0.155276
    10  H    0.160232
    11  C   -0.297652
    12  C   -0.307718
    13  C   -0.475793
    14  H    0.149634
    15  H    0.149599
    16  H    0.159276
    17  H    0.151902
    18  H    0.155199
    19  H    0.155236
    20  H    0.160431
    21  C   -0.298445
    22  C   -0.299879
    23  C   -0.482148
    24  H    0.149724
    25  H    0.149568
    26  H    0.152741
    27  H    0.152032
    28  H    0.155230
    29  H    0.155105
    30  H    0.166042
    31  C   -0.298293
    32  C   -0.299664
    33  C   -0.475719
    34  H    0.149571
    35  H    0.149666
    36  H    0.151975
    37  H    0.151920
    38  H    0.155180
    39  H    0.155222
    40  H    0.160266
 Sum of Mulliken charges =  -0.00000

 Dipole moment (field-independent basis, Debye):
    X=             -0.0047    Y=             -0.0022    Z=              0.0012  Tot=              0.0053
 Quadrupole moment (field-independent basis, Debye-Ang):
   XX=            -85.8671   YY=            -84.6748   ZZ=            -84.2294
   XY=              1.3162   XZ=             -0.3693   YZ=             -0.0144

 Normal termination of Gaussian 16 at Wed May  5 16:46:14 2021.
