 Gaussian 16, Revision A.03,
 Gaussian 16:  EM64L-G16RevA.03 25-Dec-2016

 -------------
 #p 6-31g* mp2
 -------------

 ------------------------------------------------------
 Input file generated by CHIRIPA (05-May-2021 14:57:25)
 ------------------------------------------------------
 Symbolic Z-matrix:
 Charge =  0 Multiplicity = 1

                         Standard orientation:
 ---------------------------------------------------------------------
 Center     Atomic      Atomic             Coordinates (Angstroms)
 Number     Number       Type             X           Y           Z
 ---------------------------------------------------------------------
      1          6           0        5.265505   -1.738227    0.244521
      2          6           0        5.714312   -0.420123    0.377542
      3          6           0        4.840983    0.651655    0.169847
      4          6           0        3.519499    0.367693   -0.171233
      5          6           0        3.042307   -0.934601   -0.311272
      6          6           0        3.933284   -1.990814   -0.098856
      7          1           0        5.950783   -2.564765    0.407697
      8          1           0        6.748392   -0.220973    0.644117
      9          1           0        5.161931    1.681764    0.266203
     10          1           0        2.005792   -1.101641   -0.578016
     11          1           0        3.581958   -3.013457   -0.202856
     12          7           0        2.585603    1.494097   -0.393609
     13          8           0        1.426179    1.217346   -0.693248
     14          8           0        3.030722    2.632395   -0.264057
     15          6           0       -6.124293    0.009121   -0.433381
     16          6           0       -5.675618    0.336605    0.850351
     17          6           0       -4.319915    0.234453    1.176210
     18          6           0       -3.436474   -0.200529    0.189491
     19          6           0       -3.852744   -0.534133   -1.098422
     20          6           0       -5.213031   -0.424439   -1.401962
     21          1           0       -7.179215    0.091404   -0.677847
     22          1           0       -6.381052    0.673593    1.604569
     23          1           0       -3.945427    0.481519    2.162179
     24          1           0       -3.125683   -0.867119   -1.829119
     25          1           0       -5.558633   -0.679445   -2.399747
     26          7           0       -1.998827   -0.312665    0.522649
     27          8           0       -1.240649   -0.698365   -0.364503
     28          8           0       -1.657398   -0.012735    1.664623
 ---------------------------------------------------------------------

 SCF Done:  E(RHF) =  -868.337724760     A.U. after   16 cycles
 E2 =    -0.2600027084D+01 EUMP2 =    -0.87093775184471D+03

 The electronic state is 1-A.
 Alpha  occ. eigenvalues --  -20.60317 -20.60256 -20.59507 -20.59406 -15.85327
 Alpha  occ. eigenvalues --  -15.84509 -11.30791 -11.30020 -11.27373 -11.27370
 Alpha  occ. eigenvalues --  -11.27149 -11.26708 -11.26495 -11.26485 -11.26422
 Alpha  occ. eigenvalues --  -11.26412 -11.25763 -11.25666  -1.59324  -1.58545
 Alpha  occ. eigenvalues --   -1.38884  -1.38081  -1.18972  -1.18238  -1.08350
 Alpha  occ. eigenvalues --   -1.07627  -1.04395  -1.03660  -0.95172  -0.94421
 Alpha  occ. eigenvalues --   -0.85789  -0.85054  -0.82011  -0.81242  -0.77035
 Alpha  occ. eigenvalues --   -0.76240  -0.71576  -0.70803  -0.70534  -0.70092
 Alpha  occ. eigenvalues --   -0.69870  -0.69354  -0.64632  -0.64407  -0.63890
 Alpha  occ. eigenvalues --   -0.63681  -0.61744  -0.60977  -0.54903  -0.54205
 Alpha  occ. eigenvalues --   -0.52712  -0.52495  -0.52000  -0.51754  -0.48352
 Alpha  occ. eigenvalues --   -0.48293  -0.47542  -0.47410  -0.44249  -0.43448
 Alpha  occ. eigenvalues --   -0.36959  -0.36269  -0.36001  -0.35273
 Alpha virt. eigenvalues --    0.05518   0.06282   0.11653   0.12377   0.16985
 Alpha virt. eigenvalues --    0.17712   0.21736   0.22447   0.27645   0.28311
 Alpha virt. eigenvalues --    0.28636   0.29416   0.31278   0.31927   0.32868

 Mulliken charges:
               1
     1  C   -0.171365
     2  C   -0.219690
     3  C   -0.171667
     4  C    0.156217
     5  C   -0.172944
     6  C   -0.220469
     7  H    0.221247
     8  H    0.219044
     9  H    0.272449
    10  H    0.294003
    11  H    0.221226
    12  N    0.486993
    13  O   -0.448280
    14  O   -0.469524
    15  C   -0.171140
    16  C   -0.218573
    17  C   -0.170506
    18  C    0.159763
    19  C   -0.170008
    20  C   -0.218558
    21  H    0.224282
    22  H    0.222368
    23  H    0.275457
    24  H    0.275173
    25  H    0.222213
    26  N    0.491600
    27  O   -0.459106
    28  O   -0.460207
 Sum of Mulliken charges =  -0.00000

 Dipole moment (field-independent basis, Debye):
    X=             -2.1083    Y=             -3.5912    Z=             -0.4290  Tot=              4.1863
 Quadrupole moment (field-independent basis, Debye-Ang):
   XX=            -47.4317   YY=           -107.0028   ZZ=           -102.0051
   XY=            -11.1496   XZ=              5.1503   YZ=              3.8041

 Normal termination of Gaussian 16 at Fri May  7 01:56:13 2021.
