 Gaussian 16, Revision A.03,
 Gaussian 16:  EM64L-G16RevA.03 25-Dec-2016

 -------------
 #p 6-31g* mp2
 -------------

 ------------------------------------------------------
 Input file generated by CHIRIPA (05-May-2021 14:55:21)
 ------------------------------------------------------
 Symbolic Z-matrix:
 Charge =  0 Multiplicity = 1

                         Standard orientation:
 ---------------------------------------------------------------------
 Center     Atomic      Atomic             Coordinates (Angstroms)
 Number     Number       Type             X           Y           Z
 ---------------------------------------------------------------------
      1          6           0       -4.905191   -0.139579   -1.358680
      2          6           0       -4.588012   -1.349458   -0.732492
      3          6           0       -3.483348   -1.439683    0.119638
      4          6           0       -2.714128   -0.295201    0.323971
      5          6           0       -3.004411    0.924533   -0.285352
      6          6           0       -4.113774    0.991560   -1.133508
      7          1           0       -5.765146   -0.078500   -2.019091
      8          1           0       -5.200853   -2.229535   -0.905512
      9          1           0       -3.215093   -2.363712    0.617262
     10          1           0       -2.374701    1.784782   -0.093375
     11          1           0       -4.357720    1.932491   -1.618467
     12          7           0       -1.542182   -0.378440    1.223979
     13          8           0       -0.880370    0.644249    1.387532
     14          8           0       -1.307615   -1.464794    1.748811
     15          6           0        4.224300   -0.146375    0.046703
     16          6           0        4.925722   -0.950903   -1.048161
     17          6           0        5.928952   -1.960340   -0.489271
     18          1           0        4.979243    0.379027    0.647501
     19          1           0        3.709179   -0.838211    0.727443
     20          1           0        5.438218   -0.257676   -1.727426
     21          1           0        4.169010   -1.474298   -1.646542
     22          1           0        5.428633   -2.674661    0.172565
     23          1           0        6.705052   -1.451127    0.091222
     24          1           0        6.418749   -2.524480   -1.289086
     25          6           0        3.218334    0.866970   -0.496337
     26          6           0        2.516912    1.671499    0.598526
     27          6           0        1.513681    2.680936    0.039636
     28          1           0        3.733455    1.558807   -1.177078
     29          1           0        2.463391    0.341569   -1.097136
     30          1           0        3.273624    2.194894    1.196908
     31          1           0        2.004416    0.978272    1.277792
     32          1           0        0.737582    2.171722   -0.540858
     33          1           0        2.014002    3.395256   -0.622200
     34          1           0        1.023884    3.245076    0.839451
 ---------------------------------------------------------------------

 SCF Done:  E(RHF) =  -669.536071789     A.U. after   15 cycles
 E2 =    -0.2091884289D+01 EUMP2 =    -0.67162795607876D+03

 The electronic state is 1-A.
 Alpha  occ. eigenvalues --  -20.61013 -20.60997 -15.86024 -11.31321 -11.27881
 Alpha  occ. eigenvalues --  -11.27870 -11.27613 -11.26882 -11.26871 -11.20916
 Alpha  occ. eigenvalues --  -11.20494 -11.20474 -11.20379 -11.20184 -11.19902
 Alpha  occ. eigenvalues --   -1.60067  -1.39623  -1.19487  -1.08899  -1.07465
 Alpha  occ. eigenvalues --   -1.04877  -1.02546  -0.95750  -0.95036  -0.86279
 Alpha  occ. eigenvalues --   -0.86077  -0.82576  -0.78647  -0.77633  -0.77251
 Alpha  occ. eigenvalues --   -0.72264  -0.71382  -0.70594  -0.65148  -0.64879
 Alpha  occ. eigenvalues --   -0.64078  -0.62224  -0.59910  -0.58429  -0.56633
 Alpha  occ. eigenvalues --   -0.55384  -0.54330  -0.53211  -0.52968  -0.51751
 Alpha  occ. eigenvalues --   -0.51481  -0.49228  -0.49005  -0.48822  -0.46971
 Alpha  occ. eigenvalues --   -0.45641  -0.45057  -0.44791  -0.44612  -0.42822
 Alpha  occ. eigenvalues --   -0.37465  -0.36477
 Alpha virt. eigenvalues --    0.04858   0.11160   0.16346   0.21151   0.23795
 Alpha virt. eigenvalues --    0.24952   0.26830   0.27535   0.27946   0.28494
 Alpha virt. eigenvalues --    0.29164   0.30864   0.31666   0.32707   0.32913

 Mulliken charges:
               1
     1  C   -0.170442
     2  C   -0.218610
     3  C   -0.170659
     4  C    0.157335
     5  C   -0.172238
     6  C   -0.218699
     7  H    0.226141
     8  H    0.223895
     9  H    0.275774
    10  H    0.278216
    11  H    0.224277
    12  N    0.490518
    13  O   -0.460594
    14  O   -0.459354
    15  C   -0.298849
    16  C   -0.298660
    17  C   -0.475359
    18  H    0.147716
    19  H    0.154631
    20  H    0.149366
    21  H    0.150282
    22  H    0.156155
    23  H    0.154245
    24  H    0.157362
    25  C   -0.297064
    26  C   -0.305370
    27  C   -0.468027
    28  H    0.143846
    29  H    0.146502
    30  H    0.145253
    31  H    0.176799
    32  H    0.150966
    33  H    0.143946
    34  H    0.160702
 Sum of Mulliken charges =  -0.00000

 Dipole moment (field-independent basis, Debye):
    X=             -4.4306    Y=              0.1820    Z=             -2.9885  Tot=              5.3473
 Quadrupole moment (field-independent basis, Debye-Ang):
   XX=            -73.6797   YY=            -90.9622   ZZ=            -97.5593
   XY=              2.3795   XZ=              7.6388   YZ=              0.3946

 Normal termination of Gaussian 16 at Thu May  6 04:34:39 2021.
