 Gaussian 16, Revision A.03,
 Gaussian 16:  EM64L-G16RevA.03 25-Dec-2016

 -------------
 #p 6-31g* mp2
 -------------

 ------------------------------------------------------
 Input file generated by CHIRIPA (05-May-2021 14:51:11)
 ------------------------------------------------------
 Symbolic Z-matrix:
 Charge =  0 Multiplicity = 1

                         Standard orientation:
 ---------------------------------------------------------------------
 Center     Atomic      Atomic             Coordinates (Angstroms)
 Number     Number       Type             X           Y           Z
 ---------------------------------------------------------------------
      1          6           0       -3.028403    0.805826   -0.741322
      2          6           0       -2.305085    1.885166    0.064794
      3          6           0       -2.178973    3.205812   -0.695327
      4          1           0       -2.489396    0.638052   -1.683802
      5          1           0       -4.028631    1.170065   -1.013847
      6          1           0       -1.307036    1.518462    0.336899
      7          1           0       -2.845770    2.050254    1.005550
      8          1           0       -3.168101    3.597579   -0.953676
      9          1           0       -1.620624    3.062765   -1.626125
     10          1           0       -1.658802    3.963209   -0.100658
     11          6           0       -3.162288   -0.520245    0.005228
     12          6           0       -3.885606   -1.599584   -0.800888
     13          6           0       -4.011719   -2.920230   -0.040768
     14          1           0       -2.162060   -0.884483    0.277753
     15          1           0       -3.701296   -0.352470    0.947707
     16          1           0       -3.344922   -1.764673   -1.741644
     17          1           0       -4.883656   -1.232880   -1.072994
     18          1           0       -4.570068   -2.777183    0.890031
     19          1           0       -3.022590   -3.311997    0.217581
     20          1           0       -4.531890   -3.677628   -0.635437
     21          6           0        2.579827   -0.394493    0.872348
     22          6           0        1.491499    0.631400    1.190261
     23          6           0        0.467609    0.113175    2.200650
     24          1           0        2.110661   -1.309167    0.484795
     25          1           0        3.091744   -0.675970    1.802996
     26          1           0        0.982707    0.911893    0.259095
     27          1           0        1.963325    1.543809    1.576923
     28          1           0        0.956449   -0.148958    3.144537
     29          1           0       -0.029739   -0.784465    1.819222
     30          1           0       -0.301206    0.862516    2.413420
     31          6           0        3.610865    0.108911   -0.136253
     32          6           0        4.699192   -0.916982   -0.454166
     33          6           0        5.723082   -0.398756   -1.464555
     34          1           0        3.098947    0.390388   -1.066902
     35          1           0        4.080031    1.023586    0.251301
     36          1           0        4.227368   -1.829391   -0.840828
     37          1           0        5.207986   -1.197474    0.477000
     38          1           0        6.220432    0.498883   -1.083127
     39          1           0        5.234242   -0.136624   -2.408443
     40          1           0        6.491898   -1.148097   -1.677325
 ---------------------------------------------------------------------

 SCF Done:  E(RHF) =  -470.732144879     A.U. after   11 cycles
 E2 =    -0.1584266290D+01 EUMP2 =    -0.47231641116950D+03

 The electronic state is 1-A.
 Alpha  occ. eigenvalues --  -11.21657 -11.21634 -11.21592 -11.21492 -11.21452
 Alpha  occ. eigenvalues --  -11.21391 -11.21374 -11.21316 -11.21097 -11.21071
 Alpha  occ. eigenvalues --  -11.21053 -11.21038  -1.08494  -1.08392  -1.03607
 Alpha  occ. eigenvalues --   -1.03476  -0.96021  -0.95958  -0.87038  -0.86969
 Alpha  occ. eigenvalues --   -0.79653  -0.79567  -0.78302  -0.78216  -0.65272
 Alpha  occ. eigenvalues --   -0.64920  -0.61147  -0.60788  -0.59529  -0.59190
 Alpha  occ. eigenvalues --   -0.57729  -0.57462  -0.55338  -0.55228  -0.52765
 Alpha  occ. eigenvalues --   -0.52607  -0.52510  -0.52310  -0.50023  -0.49849
 Alpha  occ. eigenvalues --   -0.48005  -0.47831  -0.46855  -0.46420  -0.45912
 Alpha  occ. eigenvalues --   -0.45747  -0.45731  -0.45488  -0.43818  -0.43746
 Alpha virt. eigenvalues --    0.20867   0.23265   0.23768   0.24157   0.26068
 Alpha virt. eigenvalues --    0.26673   0.27161   0.27332   0.28046   0.29525
 Alpha virt. eigenvalues --    0.30581   0.30777   0.31615   0.31966   0.32255

 Mulliken charges:
               1
     1  C   -0.297380
     2  C   -0.312450
     3  C   -0.474822
     4  H    0.148511
     5  H    0.149345
     6  H    0.167549
     7  H    0.150841
     8  H    0.154976
     9  H    0.154404
    10  H    0.159974
    11  C   -0.302289
    12  C   -0.299467
    13  C   -0.475520
    14  H    0.153474
    15  H    0.149753
    16  H    0.151489
    17  H    0.152023
    18  H    0.155406
    19  H    0.154592
    20  H    0.160224
    21  C   -0.297537
    22  C   -0.304853
    23  C   -0.482116
    24  H    0.149183
    25  H    0.149978
    26  H    0.153967
    27  H    0.152685
    28  H    0.156245
    29  H    0.157354
    30  H    0.164206
    31  C   -0.298407
    32  C   -0.299691
    33  C   -0.475733
    34  H    0.149404
    35  H    0.149886
    36  H    0.151896
    37  H    0.152070
    38  H    0.155282
    39  H    0.155176
    40  H    0.160373
 Sum of Mulliken charges =  -0.00000

 Dipole moment (field-independent basis, Debye):
    X=              0.0325    Y=             -0.0005    Z=              0.0313  Tot=              0.0451
 Quadrupole moment (field-independent basis, Debye-Ang):
   XX=            -84.4127   YY=            -85.7343   ZZ=            -84.7342
   XY=             -0.3738   XZ=              0.6972   YZ=              1.0470

 Normal termination of Gaussian 16 at Thu May  6 02:14:46 2021.
