 Gaussian 16, Revision A.03,
 Gaussian 16:  EM64L-G16RevA.03 25-Dec-2016

 -------------
 #p 6-31g* mp2
 -------------

 ------------------------------------------------------
 Input file generated by CHIRIPA (05-May-2021 14:55:20)
 ------------------------------------------------------
 Symbolic Z-matrix:
 Charge =  0 Multiplicity = 1

                         Standard orientation:
 ---------------------------------------------------------------------
 Center     Atomic      Atomic             Coordinates (Angstroms)
 Number     Number       Type             X           Y           Z
 ---------------------------------------------------------------------
      1          6           0       -2.935688    2.518083    0.298475
      2          6           0       -1.641985    2.036718    0.072330
      3          6           0       -1.433000    0.699125   -0.276552
      4          6           0       -2.545491   -0.133070   -0.391036
      5          6           0       -3.846664    0.316716   -0.172103
      6          6           0       -4.031966    1.658062    0.175753
      7          1           0       -3.088834    3.558614    0.569096
      8          1           0       -0.788730    2.702341    0.166917
      9          1           0       -0.442245    0.300166   -0.457256
     10          1           0       -4.677504   -0.370847   -0.273981
     11          1           0       -5.037803    2.029139    0.350791
     12          7           0       -2.336784   -1.551106   -0.759838
     13          8           0       -3.333544   -2.263976   -0.854293
     14          8           0       -1.180391   -1.922841   -0.947468
     15          6           0        3.703168   -0.229178   -0.219639
     16          6           0        4.721366    0.881731   -0.478747
     17          6           0        5.515610    0.666848   -1.767466
     18          1           0        4.226577   -1.193960   -0.172907
     19          1           0        3.011965   -0.289512   -1.071693
     20          1           0        5.409596    0.940872    0.374165
     21          1           0        4.195497    1.844003   -0.524678
     22          1           0        4.844667    0.629346   -2.631776
     23          1           0        6.065665   -0.278916   -1.727826
     24          1           0        6.237602    1.472537   -1.933154
     25          6           0        2.901346   -0.028459    1.065087
     26          6           0        1.883147   -1.139369    1.324194
     27          6           0        1.088904   -0.924486    2.612914
     28          1           0        3.592548    0.031874    1.917140
     29          1           0        2.377937    0.936322    1.018354
     30          1           0        2.409016   -2.101640    1.370125
     31          1           0        1.194918   -1.198510    0.471282
     32          1           0        0.538850    0.021278    2.573273
     33          1           0        1.759846   -0.886984    3.477224
     34          1           0        0.366911   -1.730174    2.778601
 ---------------------------------------------------------------------

 SCF Done:  E(RHF) =  -669.535658395     A.U. after   15 cycles
 E2 =    -0.2092763546D+01 EUMP2 =    -0.67162842194175D+03

 The electronic state is 1-A.
 Alpha  occ. eigenvalues --  -20.60903 -20.60898 -15.85937 -11.31262 -11.27831
 Alpha  occ. eigenvalues --  -11.27826 -11.27569 -11.26845 -11.26833 -11.21679
 Alpha  occ. eigenvalues --  -11.21461 -11.21367 -11.21275 -11.21093 -11.20919
 Alpha  occ. eigenvalues --   -1.59966  -1.39523  -1.19437  -1.08838  -1.08423
 Alpha  occ. eigenvalues --   -1.04838  -1.03469  -0.95944  -0.95678  -0.86957
 Alpha  occ. eigenvalues --   -0.86238  -0.82517  -0.79523  -0.78228  -0.77559
 Alpha  occ. eigenvalues --   -0.72165  -0.71279  -0.70557  -0.65178  -0.65091
 Alpha  occ. eigenvalues --   -0.64774  -0.62232  -0.60821  -0.59291  -0.57523
 Alpha  occ. eigenvalues --   -0.55354  -0.55247  -0.53155  -0.52931  -0.52605
 Alpha  occ. eigenvalues --   -0.52351  -0.49908  -0.48958  -0.48911  -0.47813
 Alpha  occ. eigenvalues --   -0.46551  -0.45772  -0.45685  -0.44870  -0.43737
 Alpha  occ. eigenvalues --   -0.37411  -0.36425
 Alpha virt. eigenvalues --    0.04926   0.11183   0.16401   0.19684   0.22940
 Alpha virt. eigenvalues --    0.24225   0.25962   0.26564   0.27838   0.28081
 Alpha virt. eigenvalues --    0.29555   0.30754   0.31544   0.31798   0.32056

 Mulliken charges:
               1
     1  C   -0.170214
     2  C   -0.221688
     3  C   -0.170017
     4  C    0.156292
     5  C   -0.170226
     6  C   -0.218682
     7  H    0.226042
     8  H    0.224171
     9  H    0.281706
    10  H    0.275806
    11  H    0.223800
    12  N    0.489682
    13  O   -0.459206
    14  O   -0.463391
    15  C   -0.298511
    16  C   -0.298846
    17  C   -0.475699
    18  H    0.153452
    19  H    0.149958
    20  H    0.152231
    21  H    0.147307
    22  H    0.155739
    23  H    0.156902
    24  H    0.159528
    25  C   -0.298055
    26  C   -0.314624
    27  C   -0.476347
    28  H    0.150256
    29  H    0.137395
    30  H    0.156512
    31  H    0.171321
    32  H    0.147609
    33  H    0.153847
    34  H    0.165949
 Sum of Mulliken charges =  -0.00000

 Dipole moment (field-independent basis, Debye):
    X=             -0.8132    Y=              4.8303    Z=              1.2406  Tot=              5.0530
 Quadrupole moment (field-independent basis, Debye-Ang):
   XX=            -85.7774   YY=            -96.1158   ZZ=            -97.3531
   XY=            -12.6909   XZ=             -2.4600   YZ=             -2.5314

 Normal termination of Gaussian 16 at Thu May  6 20:41:50 2021.
