 Gaussian 16, Revision A.03,
 Gaussian 16:  EM64L-G16RevA.03 25-Dec-2016

 -------------
 #p 6-31g* mp2
 -------------

 ------------------------------------------------------
 Input file generated by CHIRIPA (05-May-2021 14:53:15)
 ------------------------------------------------------
 Symbolic Z-matrix:
 Charge =  0 Multiplicity = 1

                         Standard orientation:
 ---------------------------------------------------------------------
 Center     Atomic      Atomic             Coordinates (Angstroms)
 Number     Number       Type             X           Y           Z
 ---------------------------------------------------------------------
      1          6           0       -4.631034    0.652997   -0.131997
      2          6           0       -3.159955    0.395247    0.195842
      3          6           0       -2.261969    1.586294   -0.140049
      4          1           0       -4.725202    0.895513   -1.199360
      5          1           0       -4.973014    1.538710    0.421137
      6          1           0       -2.821234   -0.490533   -0.356677
      7          1           0       -3.069302    0.153129    1.262508
      8          1           0       -2.572255    2.473223    0.421804
      9          1           0       -2.322777    1.825904   -1.206581
     10          1           0       -1.214702    1.380412    0.102241
     11          6           0       -5.541331   -0.528544    0.198229
     12          6           0       -7.012409   -0.270794   -0.129609
     13          6           0       -7.910396   -1.461840    0.206282
     14          1           0       -5.199351   -1.414257   -0.354904
     15          1           0       -5.447162   -0.771059    1.265592
     16          1           0       -7.103063   -0.028676   -1.196275
     17          1           0       -7.351131    0.614986    0.422910
     18          1           0       -7.849587   -1.701451    1.272814
     19          1           0       -7.600110   -2.348770   -0.355572
     20          1           0       -8.957663   -1.255959   -0.036008
     21          6           0        2.581282    2.054230   -0.099851
     22          6           0        3.929530    2.119920    0.266798
     23          6           0        4.710515    0.961196    0.311218
     24          6           0        4.108182   -0.251910   -0.018720
     25          6           0        2.767507   -0.349868   -0.387889
     26          6           0        2.005588    0.821719   -0.425451
     27          1           0        1.982000    2.959351   -0.131694
     28          1           0        4.379281    3.075727    0.520174
     29          1           0        5.756594    0.983365    0.591652
     30          1           0        2.347198   -1.317162   -0.635074
     31          1           0        0.958763    0.767698   -0.710553
     32          7           0        4.924884   -1.485407    0.024675
     33          8           0        4.370569   -2.541916   -0.270555
     34          8           0        6.103864   -1.372357    0.353096
 ---------------------------------------------------------------------

 SCF Done:  E(RHF) =  -669.535589082     A.U. after   15 cycles
 E2 =    -0.2090675796D+01 EUMP2 =    -0.67162626487792D+03

 The electronic state is 1-A.
 Alpha  occ. eigenvalues --  -20.60739 -20.60734 -15.85793 -11.31155 -11.27728
 Alpha  occ. eigenvalues --  -11.27720 -11.27461 -11.26738 -11.26704 -11.22376
 Alpha  occ. eigenvalues --  -11.22145 -11.21979 -11.21963 -11.21815 -11.21356
 Alpha  occ. eigenvalues --   -1.59815  -1.39369  -1.19327  -1.08989  -1.08722
 Alpha  occ. eigenvalues --   -1.04731  -1.04132  -0.96601  -0.95557  -0.87626
 Alpha  occ. eigenvalues --   -0.86128  -0.82389  -0.80200  -0.78761  -0.77440
 Alpha  occ. eigenvalues --   -0.72011  -0.71138  -0.70432  -0.65613  -0.64979
 Alpha  occ. eigenvalues --   -0.64768  -0.62120  -0.61517  -0.59989  -0.58190
 Alpha  occ. eigenvalues --   -0.55874  -0.55227  -0.53427  -0.53078  -0.53039
 Alpha  occ. eigenvalues --   -0.52669  -0.50524  -0.48773  -0.48766  -0.48506
 Alpha  occ. eigenvalues --   -0.47212  -0.46314  -0.46211  -0.44775  -0.44378
 Alpha  occ. eigenvalues --   -0.37306  -0.36332
 Alpha virt. eigenvalues --    0.05098   0.11254   0.16582   0.20115   0.22500
 Alpha virt. eigenvalues --    0.23756   0.26059   0.26184   0.26982   0.28159
 Alpha virt. eigenvalues --    0.28476   0.30548   0.30827   0.31550   0.31773

 Mulliken charges:
               1
     1  C   -0.298975
     2  C   -0.299336
     3  C   -0.482254
     4  H    0.150312
     5  H    0.150569
     6  H    0.152148
     7  H    0.155169
     8  H    0.159152
     9  H    0.156252
    10  H    0.153144
    11  C   -0.298913
    12  C   -0.300088
    13  C   -0.476059
    14  H    0.150595
    15  H    0.150865
    16  H    0.152305
    17  H    0.152263
    18  H    0.155868
    19  H    0.155972
    20  H    0.161296
    21  C   -0.172327
    22  C   -0.218621
    23  C   -0.171074
    24  C    0.158746
    25  C   -0.171687
    26  C   -0.224615
    27  H    0.226199
    28  H    0.223327
    29  H    0.275511
    30  H    0.275781
    31  H    0.231490
    32  N    0.488018
    33  O   -0.460489
    34  O   -0.460546
 Sum of Mulliken charges =  -0.00000

 Dipole moment (field-independent basis, Debye):
    X=             -3.0783    Y=              4.3461    Z=             -0.1325  Tot=              5.3275
 Quadrupole moment (field-independent basis, Debye-Ang):
   XX=           -115.2286   YY=            -96.3971   ZZ=            -94.3148
   XY=             20.5890   XZ=              0.6902   YZ=              1.3829

 Normal termination of Gaussian 16 at Thu May  6 04:16:07 2021.
