 Gaussian 16, Revision A.03,
 Gaussian 16:  EM64L-G16RevA.03 25-Dec-2016

 -------------
 #p 6-31g* mp2
 -------------

 ------------------------------------------------------
 Input file generated by CHIRIPA (05-May-2021 14:57:26)
 ------------------------------------------------------
 Symbolic Z-matrix:
 Charge =  0 Multiplicity = 1

                         Standard orientation:
 ---------------------------------------------------------------------
 Center     Atomic      Atomic             Coordinates (Angstroms)
 Number     Number       Type             X           Y           Z
 ---------------------------------------------------------------------
      1          6           0       -4.465406    1.422506    0.819117
      2          6           0       -3.310722    1.164024    1.565048
      3          6           0       -2.368056    0.234740    1.115204
      4          6           0       -2.613084   -0.420862   -0.090382
      5          6           0       -3.753814   -0.185091   -0.856174
      6          6           0       -4.682883    0.748313   -0.386987
      7          1           0       -5.192410    2.145997    1.176080
      8          1           0       -3.139204    1.686121    2.502087
      9          1           0       -1.465570    0.015429    1.672735
     10          1           0       -3.897162   -0.721248   -1.786446
     11          1           0       -5.578727    0.947041   -0.968378
     12          7           0       -1.622323   -1.406833   -0.576851
     13          8           0       -1.861519   -1.971160   -1.642195
     14          8           0       -0.625328   -1.596642    0.116410
     15          6           0        2.886248   -1.969029    1.190284
     16          6           0        2.764411   -1.919903   -0.202290
     17          6           0        2.702626   -0.691376   -0.866710
     18          6           0        2.765751    0.473697   -0.103880
     19          6           0        2.887143    0.457575    1.284751
     20          6           0        2.947117   -0.782225    1.928059
     21          1           0        2.933540   -2.927756    1.698221
     22          1           0        2.716910   -2.839983   -0.777824
     23          1           0        2.608307   -0.624382   -1.943758
     24          1           0        2.932079    1.391685    1.831413
     25          1           0        3.041737   -0.817341    3.009660
     26          7           0        2.701301    1.780251   -0.796096
     27          8           0        2.758954    2.792392   -0.101196
     28          8           0        2.594352    1.767448   -2.020446
 ---------------------------------------------------------------------

 SCF Done:  E(RHF) =  -868.338538293     A.U. after   16 cycles
 E2 =    -0.2600256858D+01 EUMP2 =    -0.87093879515053D+03

 The electronic state is 1-A.
 Alpha  occ. eigenvalues --  -20.61017 -20.61008 -20.60108 -20.60087 -15.86040
 Alpha  occ. eigenvalues --  -15.85140 -11.31257 -11.30199 -11.27820 -11.27804
 Alpha  occ. eigenvalues --  -11.27525 -11.26814 -11.26797 -11.26784 -11.26638
 Alpha  occ. eigenvalues --  -11.26403 -11.25806 -11.25580  -1.60089  -1.59183
 Alpha  occ. eigenvalues --   -1.39646  -1.38745  -1.19416  -1.18323  -1.08843
 Alpha  occ. eigenvalues --   -1.07787  -1.04800  -1.03695  -0.95705  -0.94681
 Alpha  occ. eigenvalues --   -0.86206  -0.85131  -0.82544  -0.81535  -0.77610
 Alpha  occ. eigenvalues --   -0.76621  -0.72290  -0.71401  -0.71370  -0.70531
 Alpha  occ. eigenvalues --   -0.70499  -0.69482  -0.65077  -0.64808  -0.64005
 Alpha  occ. eigenvalues --   -0.63742  -0.62155  -0.61087  -0.55311  -0.54240
 Alpha  occ. eigenvalues --   -0.53132  -0.52896  -0.52004  -0.51828  -0.49053
 Alpha  occ. eigenvalues --   -0.49017  -0.48140  -0.48100  -0.45075  -0.44218
 Alpha  occ. eigenvalues --   -0.37386  -0.36392  -0.36254  -0.35187
 Alpha virt. eigenvalues --    0.04894   0.05927   0.11265   0.12399   0.16436
 Alpha virt. eigenvalues --    0.17502   0.21393   0.22374   0.27294   0.28248
 Alpha virt. eigenvalues --    0.28293   0.29229   0.30943   0.31885   0.32436

 Mulliken charges:
               1
     1  C   -0.169808
     2  C   -0.217510
     3  C   -0.170199
     4  C    0.158464
     5  C   -0.169942
     6  C   -0.218168
     7  H    0.226516
     8  H    0.223753
     9  H    0.273876
    10  H    0.275623
    11  H    0.224170
    12  N    0.489679
    13  O   -0.461763
    14  O   -0.464164
    15  C   -0.165373
    16  C   -0.198321
    17  C   -0.165524
    18  C    0.157375
    19  C   -0.176149
    20  C   -0.219331
    21  H    0.222685
    22  H    0.225027
    23  H    0.274218
    24  H    0.268670
    25  H    0.216882
    26  N    0.487513
    27  O   -0.466517
    28  O   -0.461681
 Sum of Mulliken charges =  -0.00000

 Dipole moment (field-independent basis, Debye):
    X=             -3.4798    Y=             -1.3895    Z=              4.0202  Tot=              5.4956
 Quadrupole moment (field-independent basis, Debye-Ang):
   XX=            -85.1965   YY=           -112.0685   ZZ=            -99.2242
   XY=            -20.7498   XZ=              5.1761   YZ=              3.9135

 Normal termination of Gaussian 16 at Thu May  6 09:58:48 2021.
