 Gaussian 16, Revision A.03,
 Gaussian 16:  EM64L-G16RevA.03 25-Dec-2016

 -------------
 #p 6-31g* mp2
 -------------

 ------------------------------------------------------
 Input file generated by CHIRIPA (05-May-2021 14:51:11)
 ------------------------------------------------------
 Symbolic Z-matrix:
 Charge =  0 Multiplicity = 1

                         Standard orientation:
 ---------------------------------------------------------------------
 Center     Atomic      Atomic             Coordinates (Angstroms)
 Number     Number       Type             X           Y           Z
 ---------------------------------------------------------------------
      1          6           0        2.724857    0.147472   -0.143449
      2          6           0        4.111155   -0.389860    0.213537
      3          6           0        4.246177   -1.891726   -0.039366
      4          1           0        1.967437   -0.393617    0.440061
      5          1           0        2.517107   -0.067376   -1.200839
      6          1           0        4.316795   -0.172836    1.269581
      7          1           0        4.865377    0.152703   -0.370749
      8          1           0        4.067221   -2.122322   -1.094544
      9          1           0        3.515522   -2.449711    0.555106
     10          1           0        5.244898   -2.254764    0.222591
     11          6           0        2.574357    1.647437    0.103901
     12          6           0        1.188060    2.184769   -0.253085
     13          6           0        1.053037    3.686635   -0.000181
     14          1           0        2.782107    1.862285    1.161292
     15          1           0        3.331777    2.188526   -0.479608
     16          1           0        0.433837    1.642206    0.331201
     17          1           0        0.982419    1.967745   -1.309129
     18          1           0        1.783692    4.244620   -0.594653
     19          1           0        1.231993    3.917231    1.054997
     20          1           0        0.054317    4.049673   -0.262139
     21          6           0       -2.079279   -1.263964    0.371666
     22          6           0       -1.354648   -2.264810   -0.529002
     23          6           0       -0.216262   -2.990076    0.189232
     24          1           0       -1.355171   -0.529218    0.749502
     25          1           0       -2.476013   -1.791940    1.249868
     26          1           0       -0.960591   -1.735346   -1.405931
     27          1           0       -2.080601   -2.997145   -0.904891
     28          1           0       -0.596862   -3.543324    1.053906
     29          1           0        0.529512   -2.274356    0.550020
     30          1           0        0.288049   -3.700684   -0.473013
     31          6           0       -3.219936   -0.530944   -0.332119
     32          6           0       -3.944566    0.469901    0.568549
     33          6           0       -5.082952    1.195167   -0.149685
     34          1           0       -2.823200   -0.002968   -1.210321
     35          1           0       -3.944044   -1.265691   -0.709955
     36          1           0       -3.218614    1.202236    0.944438
     37          1           0       -4.338624   -0.059562    1.445478
     38          1           0       -5.828726    0.479447   -0.510472
     39          1           0       -4.702352    1.748415   -1.014359
     40          1           0       -5.587262    1.905776    0.512560
 ---------------------------------------------------------------------

 SCF Done:  E(RHF) =  -470.733222038     A.U. after   11 cycles
 E2 =    -0.1583794999D+01 EUMP2 =    -0.47231701703693D+03

 The electronic state is 1-A.
 Alpha  occ. eigenvalues --  -11.21689 -11.21626 -11.21595 -11.21569 -11.21460
 Alpha  occ. eigenvalues --  -11.21399 -11.21393 -11.21333 -11.21135 -11.21065
 Alpha  occ. eigenvalues --  -11.21057 -11.21015  -1.08493  -1.08407  -1.03577
 Alpha  occ. eigenvalues --   -1.03506  -0.96020  -0.95959  -0.87038  -0.86976
 Alpha  occ. eigenvalues --   -0.79652  -0.79565  -0.78348  -0.78190  -0.65219
 Alpha  occ. eigenvalues --   -0.64953  -0.61017  -0.60872  -0.59393  -0.59328
 Alpha  occ. eigenvalues --   -0.57648  -0.57557  -0.55352  -0.55213  -0.52712
 Alpha  occ. eigenvalues --   -0.52658  -0.52474  -0.52355  -0.50026  -0.49872
 Alpha  occ. eigenvalues --   -0.47979  -0.47878  -0.46754  -0.46640  -0.46049
 Alpha  occ. eigenvalues --   -0.45804  -0.45713  -0.45287  -0.43831  -0.43764
 Alpha virt. eigenvalues --    0.19826   0.22536   0.23715   0.24446   0.25272
 Alpha virt. eigenvalues --    0.26420   0.27123   0.27627   0.28123   0.29586
 Alpha virt. eigenvalues --    0.31045   0.31666   0.31682   0.31902   0.32075

 Mulliken charges:
               1
     1  C   -0.305016
     2  C   -0.299475
     3  C   -0.477309
     4  H    0.155558
     5  H    0.149626
     6  H    0.151838
     7  H    0.152056
     8  H    0.155170
     9  H    0.157619
    10  H    0.160196
    11  C   -0.297592
    12  C   -0.303289
    13  C   -0.475647
    14  H    0.149672
    15  H    0.150117
    16  H    0.154167
    17  H    0.151870
    18  H    0.155597
    19  H    0.155478
    20  H    0.160261
    21  C   -0.301875
    22  C   -0.299159
    23  C   -0.482380
    24  H    0.152009
    25  H    0.149355
    26  H    0.152621
    27  H    0.151802
    28  H    0.154550
    29  H    0.161214
    30  H    0.160735
    31  C   -0.298139
    32  C   -0.299784
    33  C   -0.475697
    34  H    0.150024
    35  H    0.149631
    36  H    0.151763
    37  H    0.151836
    38  H    0.155186
    39  H    0.155206
    40  H    0.160207
 Sum of Mulliken charges =  -0.00000

 Dipole moment (field-independent basis, Debye):
    X=              0.0282    Y=              0.0087    Z=             -0.0085  Tot=              0.0307
 Quadrupole moment (field-independent basis, Debye-Ang):
   XX=            -85.0249   YY=            -85.7434   ZZ=            -83.9388
   XY=              1.3249   XZ=             -0.7704   YZ=             -0.2966

 Normal termination of Gaussian 16 at Thu May  6 07:03:47 2021.
