 Gaussian 16, Revision A.03,
 Gaussian 16:  EM64L-G16RevA.03 25-Dec-2016

 -------------
 #p 6-31g* mp2
 -------------

 ------------------------------------------------------
 Input file generated by CHIRIPA (05-May-2021 14:53:18)
 ------------------------------------------------------
 Symbolic Z-matrix:
 Charge =  0 Multiplicity = 1

                         Standard orientation:
 ---------------------------------------------------------------------
 Center     Atomic      Atomic             Coordinates (Angstroms)
 Number     Number       Type             X           Y           Z
 ---------------------------------------------------------------------
      1          6           0       -3.501752   -0.645999    0.271425
      2          6           0       -2.362150   -0.332055    1.241337
      3          6           0       -1.235341   -1.363913    1.183322
      4          1           0       -3.903600   -1.643004    0.498239
      5          1           0       -3.100990   -0.695589   -0.750497
      6          1           0       -2.765185   -0.281705    2.260966
      7          1           0       -1.963095    0.664397    1.012310
      8          1           0       -0.806038   -1.409374    0.177224
      9          1           0       -1.612686   -2.360852    1.432974
     10          1           0       -0.431212   -1.120101    1.884601
     11          6           0       -4.635748    0.376564    0.317781
     12          6           0       -5.775350    0.062620   -0.652132
     13          6           0       -6.902159    1.094478   -0.594116
     14          1           0       -5.036510    0.426153    1.339703
     15          1           0       -4.233900    1.373568    0.090966
     16          1           0       -6.174405   -0.933833   -0.423105
     17          1           0       -5.372315    0.012270   -1.671761
     18          1           0       -6.524814    2.091416   -0.843769
     19          1           0       -7.331462    1.139938    0.411982
     20          1           0       -7.706288    0.850665   -1.295395
     21          6           0        2.654208   -2.326210   -0.653039
     22          6           0        3.842700   -1.968381   -0.008087
     23          6           0        4.143655   -0.624284    0.231454
     24          6           0        3.229418    0.340313   -0.189275
     25          6           0        2.037035    0.015496   -0.834261
     26          6           0        1.756750   -1.334877   -1.063344
     27          1           0        2.428448   -3.372775   -0.835058
     28          1           0        4.541535   -2.736127    0.311665
     29          1           0        5.056459   -0.319296    0.728634
     30          1           0        1.359968    0.803329   -1.141377
     31          1           0        0.832987   -1.609842   -1.564445
     32          7           0        3.537084    1.766570    0.058780
     33          8           0        2.715120    2.597381   -0.321701
     34          8           0        4.594370    2.026653    0.628989
 ---------------------------------------------------------------------

 SCF Done:  E(RHF) =  -669.534530606     A.U. after   15 cycles
 E2 =    -0.2092011756D+01 EUMP2 =    -0.67162654236208D+03

 The electronic state is 1-A.
 Alpha  occ. eigenvalues --  -20.60772 -20.60766 -15.85825 -11.31190 -11.27751
 Alpha  occ. eigenvalues --  -11.27743 -11.27484 -11.26773 -11.26763 -11.21923
 Alpha  occ. eigenvalues --  -11.21821 -11.21753 -11.21607 -11.21493 -11.21220
 Alpha  occ. eigenvalues --   -1.59847  -1.39400  -1.19362  -1.08762  -1.08722
 Alpha  occ. eigenvalues --   -1.04775  -1.03818  -0.96281  -0.95589  -0.87307
 Alpha  occ. eigenvalues --   -0.86164  -0.82431  -0.79886  -0.78537  -0.77477
 Alpha  occ. eigenvalues --   -0.72043  -0.71170  -0.70461  -0.65381  -0.65014
 Alpha  occ. eigenvalues --   -0.64795  -0.62171  -0.61196  -0.59636  -0.57881
 Alpha  occ. eigenvalues --   -0.55641  -0.55245  -0.53236  -0.52950  -0.52841
 Alpha  occ. eigenvalues --   -0.52591  -0.50200  -0.48803  -0.48798  -0.48195
 Alpha  occ. eigenvalues --   -0.46916  -0.46078  -0.46002  -0.44806  -0.44069
 Alpha  occ. eigenvalues --   -0.37325  -0.36304
 Alpha virt. eigenvalues --    0.05055   0.11231   0.16472   0.20546   0.22740
 Alpha virt. eigenvalues --    0.24027   0.25804   0.26811   0.27400   0.28331
 Alpha virt. eigenvalues --    0.28527   0.30213   0.31416   0.31661   0.32352

 Mulliken charges:
               1
     1  C   -0.297483
     2  C   -0.301121
     3  C   -0.475089
     4  H    0.149475
     5  H    0.144270
     6  H    0.154499
     7  H    0.154729
     8  H    0.145834
     9  H    0.153497
    10  H    0.164980
    11  C   -0.298764
    12  C   -0.299703
    13  C   -0.475970
    14  H    0.150974
    15  H    0.151700
    16  H    0.151571
    17  H    0.150973
    18  H    0.156414
    19  H    0.155850
    20  H    0.160553
    21  C   -0.171741
    22  C   -0.218549
    23  C   -0.171221
    24  C    0.158200
    25  C   -0.169898
    26  C   -0.214022
    27  H    0.225916
    28  H    0.223470
    29  H    0.275523
    30  H    0.275109
    31  H    0.222914
    32  N    0.488098
    33  O   -0.460619
    34  O   -0.460370
 Sum of Mulliken charges =  -0.00000

 Dipole moment (field-independent basis, Debye):
    X=             -1.1105    Y=             -5.0049    Z=             -0.8142  Tot=              5.1909
 Quadrupole moment (field-independent basis, Debye-Ang):
   XX=            -98.5796   YY=            -98.6088   ZZ=            -93.6070
   XY=            -17.4672   XZ=             -0.9736   YZ=             -0.3353

 Normal termination of Gaussian 16 at Thu May  6 18:59:37 2021.
