 Gaussian 16, Revision A.03,
 Gaussian 16:  EM64L-G16RevA.03 25-Dec-2016

 -------------
 #p 6-31g* mp2
 -------------

 ------------------------------------------------------
 Input file generated by CHIRIPA (05-May-2021 14:53:16)
 ------------------------------------------------------
 Symbolic Z-matrix:
 Charge =  0 Multiplicity = 1

                         Standard orientation:
 ---------------------------------------------------------------------
 Center     Atomic      Atomic             Coordinates (Angstroms)
 Number     Number       Type             X           Y           Z
 ---------------------------------------------------------------------
      1          6           0       -4.448992   -0.433275   -0.067899
      2          6           0       -3.292792    0.264759    0.648993
      3          6           0       -1.952706   -0.439388    0.434191
      4          1           0       -4.517828   -1.471286    0.285285
      5          1           0       -4.228039   -0.482957   -1.143123
      6          1           0       -3.516492    0.314343    1.722359
      7          1           0       -3.226822    1.301286    0.294201
      8          1           0       -1.703199   -0.476052   -0.631174
      9          1           0       -1.994515   -1.468602    0.805099
     10          1           0       -1.140135    0.076312    0.955383
     11          6           0       -5.795297    0.258871    0.137347
     12          6           0       -6.951497   -0.439163   -0.579545
     13          6           0       -8.291583    0.264985   -0.364744
     14          1           0       -6.016250    0.308554    1.212571
     15          1           0       -5.726461    1.296883   -0.215837
     16          1           0       -7.017467   -1.475689   -0.224753
     17          1           0       -6.727797   -0.488747   -1.652912
     18          1           0       -8.249775    1.294198   -0.735652
     19          1           0       -8.541090    0.301649    0.700621
     20          1           0       -9.104155   -0.250716   -0.885935
     21          6           0        6.464084   -0.402716   -0.311332
     22          6           0        5.566609   -1.458936   -0.123033
     23          6           0        4.200101   -1.209810    0.035526
     24          6           0        3.763619    0.113646    0.000348
     25          6           0        4.632964    1.187412   -0.185544
     26          6           0        5.995224    0.914765   -0.341933
     27          1           0        7.523971   -0.605379   -0.433660
     28          1           0        5.927897   -2.483109   -0.098833
     29          1           0        3.483394   -2.008594    0.182814
     30          1           0        4.242939    2.197816   -0.205097
     31          1           0        6.689919    1.737021   -0.488010
     32          7           0        2.319207    0.389835    0.167057
     33          8           0        1.959888    1.564701    0.132208
     34          8           0        1.573744   -0.573785    0.329418
 ---------------------------------------------------------------------

 SCF Done:  E(RHF) =  -669.535958460     A.U. after   15 cycles
 E2 =    -0.2091027311D+01 EUMP2 =    -0.67162698577116D+03

 The electronic state is 1-A.
 Alpha  occ. eigenvalues --  -20.60951 -20.60936 -15.85965 -11.31295 -11.27857
 Alpha  occ. eigenvalues --  -11.27853 -11.27595 -11.26864 -11.26855 -11.20914
 Alpha  occ. eigenvalues --  -11.20521 -11.20503 -11.20288 -11.20135 -11.19014
 Alpha  occ. eigenvalues --   -1.60001  -1.39556  -1.19462  -1.08866  -1.07417
 Alpha  occ. eigenvalues --   -1.04858  -1.02392  -0.95709  -0.94800  -0.86259
 Alpha  occ. eigenvalues --   -0.85808  -0.82537  -0.78501  -0.77592  -0.77178
 Alpha  occ. eigenvalues --   -0.72174  -0.71314  -0.70570  -0.65116  -0.64862
 Alpha  occ. eigenvalues --   -0.64066  -0.62205  -0.59810  -0.58262  -0.56399
 Alpha  occ. eigenvalues --   -0.55362  -0.54120  -0.53191  -0.52951  -0.51491
 Alpha  occ. eigenvalues --   -0.51240  -0.48942  -0.48906  -0.48726  -0.46786
 Alpha  occ. eigenvalues --   -0.45587  -0.44969  -0.44708  -0.44630  -0.42563
 Alpha  occ. eigenvalues --   -0.37442  -0.36460
 Alpha virt. eigenvalues --    0.04936   0.11196   0.16436   0.21335   0.23782
 Alpha virt. eigenvalues --    0.25501   0.27250   0.27589   0.28217   0.28429
 Alpha virt. eigenvalues --    0.29250   0.30899   0.32440   0.32474   0.32667

 Mulliken charges:
               1
     1  C   -0.296849
     2  C   -0.301752
     3  C   -0.471800
     4  H    0.146732
     5  H    0.147588
     6  H    0.146605
     7  H    0.150444
     8  H    0.152339
     9  H    0.145744
    10  H    0.182178
    11  C   -0.297161
    12  C   -0.298745
    13  C   -0.475104
    14  H    0.147812
    15  H    0.148594
    16  H    0.150565
    17  H    0.150829
    18  H    0.154452
    19  H    0.154246
    20  H    0.157985
    21  C   -0.170597
    22  C   -0.218563
    23  C   -0.170854
    24  C    0.158081
    25  C   -0.170750
    26  C   -0.218595
    27  H    0.225977
    28  H    0.223850
    29  H    0.276059
    30  H    0.275820
    31  H    0.223795
    32  N    0.488540
    33  O   -0.459928
    34  O   -0.457537
 Sum of Mulliken charges =  -0.00000

 Dipole moment (field-independent basis, Debye):
    X=              5.5447    Y=             -0.9447    Z=             -0.5748  Tot=              5.6539
 Quadrupole moment (field-independent basis, Debye-Ang):
   XX=            -59.6680   YY=            -90.0939   ZZ=            -95.0379
   XY=             -1.7803   XZ=             -2.4474   YZ=             -1.0967

 Normal termination of Gaussian 16 at Wed May  5 21:59:28 2021.
