 Gaussian 16, Revision A.03,
 Gaussian 16:  EM64L-G16RevA.03 25-Dec-2016

 -------------
 #p 6-31g* mp2
 -------------

 ------------------------------------------------------
 Input file generated by CHIRIPA (05-May-2021 14:55:23)
 ------------------------------------------------------
 Symbolic Z-matrix:
 Charge =  0 Multiplicity = 1

                         Standard orientation:
 ---------------------------------------------------------------------
 Center     Atomic      Atomic             Coordinates (Angstroms)
 Number     Number       Type             X           Y           Z
 ---------------------------------------------------------------------
      1          6           0        0.406315   -1.231210    0.311266
      2          6           0        1.467292   -1.786669    1.033979
      3          6           0        2.770283   -1.310215    0.861488
      4          6           0        2.977215   -0.272535   -0.046085
      5          6           0        1.940973    0.301572   -0.780859
      6          6           0        0.646118   -0.190697   -0.592253
      7          1           0       -0.602720   -1.607474    0.451520
      8          1           0        1.284016   -2.594837    1.736346
      9          1           0        3.610040   -1.721978    1.408002
     10          1           0        2.154848    1.106228   -1.473826
     11          1           0       -0.175923    0.242593   -1.154882
     12          7           0        4.352327    0.240237   -0.237223
     13          8           0        4.508313    1.155250   -1.042864
     14          8           0        5.248115   -0.282575    0.422222
     15          6           0       -4.102070   -0.032543    0.094955
     16          6           0       -3.858826   -1.375023   -0.595379
     17          6           0       -5.030714   -2.343725   -0.433847
     18          1           0       -4.291886   -0.205788    1.163085
     19          1           0       -5.014382    0.422595   -0.314838
     20          1           0       -2.946482   -1.826850   -0.185385
     21          1           0       -3.669378   -1.198547   -1.661954
     22          1           0       -5.944628   -1.917196   -0.859798
     23          1           0       -5.217625   -2.549070    0.625161
     24          1           0       -4.835623   -3.296966   -0.934979
     25          6           0       -2.939415    0.946581   -0.057622
     26          6           0       -3.182659    2.289061    0.632712
     27          6           0       -2.010773    3.257763    0.471180
     28          1           0       -2.027103    0.491443    0.352171
     29          1           0       -2.749599    1.119825   -1.125753
     30          1           0       -3.372107    2.112584    1.699286
     31          1           0       -4.095004    2.740889    0.222718
     32          1           0       -1.823861    3.463108   -0.587829
     33          1           0       -1.096858    2.831233    0.897130
     34          1           0       -2.205862    4.211004    0.972312
 ---------------------------------------------------------------------

 SCF Done:  E(RHF) =  -669.534303938     A.U. after   15 cycles
 E2 =    -0.2093762047D+01 EUMP2 =    -0.67162806598480D+03

 The electronic state is 1-A.
 Alpha  occ. eigenvalues --  -20.60720 -20.60715 -15.85771 -11.31133 -11.27697
 Alpha  occ. eigenvalues --  -11.27669 -11.27396 -11.26717 -11.26617 -11.22838
 Alpha  occ. eigenvalues --  -11.22543 -11.22439 -11.22420 -11.22018 -11.21758
 Alpha  occ. eigenvalues --   -1.59795  -1.39349  -1.19298  -1.09517  -1.08691
 Alpha  occ. eigenvalues --   -1.04696  -1.04491  -0.96924  -0.95536  -0.87941
 Alpha  occ. eigenvalues --   -0.86102  -0.82365  -0.80580  -0.79411  -0.77393
 Alpha  occ. eigenvalues --   -0.71990  -0.71118  -0.70447  -0.66154  -0.64939
 Alpha  occ. eigenvalues --   -0.64680  -0.62064  -0.61882  -0.60298  -0.58541
 Alpha  occ. eigenvalues --   -0.56202  -0.55228  -0.53577  -0.53398  -0.53027
 Alpha  occ. eigenvalues --   -0.52744  -0.50867  -0.48897  -0.48747  -0.48724
 Alpha  occ. eigenvalues --   -0.47620  -0.46817  -0.46777  -0.44770  -0.44755
 Alpha  occ. eigenvalues --   -0.37254  -0.36280
 Alpha virt. eigenvalues --    0.05090   0.11232   0.16544   0.19556   0.22706
 Alpha virt. eigenvalues --    0.22829   0.24697   0.25412   0.27019   0.28038
 Alpha virt. eigenvalues --    0.29581   0.30142   0.30845   0.31213   0.31773

 Mulliken charges:
               1
     1  C   -0.179046
     2  C   -0.220587
     3  C   -0.171026
     4  C    0.158391
     5  C   -0.173003
     6  C   -0.222901
     7  H    0.234369
     8  H    0.223528
     9  H    0.275276
    10  H    0.275756
    11  H    0.231701
    12  N    0.488007
    13  O   -0.460391
    14  O   -0.460646
    15  C   -0.298014
    16  C   -0.305081
    17  C   -0.475703
    18  H    0.151992
    19  H    0.154545
    20  H    0.143398
    21  H    0.154399
    22  H    0.159373
    23  H    0.156771
    24  H    0.162677
    25  C   -0.309292
    26  C   -0.298742
    27  C   -0.479215
    28  H    0.149780
    29  H    0.147063
    30  H    0.154515
    31  H    0.154930
    32  H    0.153731
    33  H    0.158435
    34  H    0.165011
 Sum of Mulliken charges =  -0.00000

 Dipole moment (field-independent basis, Debye):
    X=             -5.0876    Y=             -1.7201    Z=              0.6947  Tot=              5.4153
 Quadrupole moment (field-independent basis, Debye-Ang):
   XX=           -123.0204   YY=            -92.1935   ZZ=            -92.2373
   XY=             -6.1716   XZ=              3.9038   YZ=             -2.8334

 Normal termination of Gaussian 16 at Thu May  6 19:15:16 2021.
