 Gaussian 16, Revision A.03,
 Gaussian 16:  EM64L-G16RevA.03 25-Dec-2016

 -------------
 #p 6-31g* mp2
 -------------

 ------------------------------------------------------
 Input file generated by CHIRIPA (05-May-2021 14:55:22)
 ------------------------------------------------------
 Symbolic Z-matrix:
 Charge =  0 Multiplicity = 1

                         Standard orientation:
 ---------------------------------------------------------------------
 Center     Atomic      Atomic             Coordinates (Angstroms)
 Number     Number       Type             X           Y           Z
 ---------------------------------------------------------------------
      1          6           0        2.530012   -2.143054    1.043520
      2          6           0        2.033708   -1.780240   -0.212892
      3          6           0        2.307301   -0.517433   -0.746756
      4          6           0        3.084005    0.361678    0.006361
      5          6           0        3.592822    0.029610    1.261003
      6          6           0        3.306616   -1.238565    1.775167
      7          1           0        2.312579   -3.126118    1.450587
      8          1           0        1.430314   -2.480638   -0.783333
      9          1           0        1.935730   -0.210602   -1.716915
     10          1           0        4.191436    0.749294    1.806102
     11          1           0        3.693378   -1.517610    2.751176
     12          7           0        3.380322    1.701397   -0.548390
     13          8           0        4.067030    2.457749    0.134985
     14          8           0        2.920257    1.969749   -1.656074
     15          6           0       -4.556604    0.175185   -0.202735
     16          6           0       -4.926831    1.041376    1.001686
     17          6           0       -6.273014    1.746100    0.831547
     18          1           0       -4.532187    0.802836   -1.104069
     19          1           0       -5.345275   -0.572748   -0.363948
     20          1           0       -4.137024    1.786564    1.161423
     21          1           0       -4.950182    0.411627    1.900289
     22          1           0       -7.076144    1.014741    0.694794
     23          1           0       -6.258365    2.397490   -0.048270
     24          1           0       -6.517982    2.359822    1.704011
     25          6           0       -3.213427   -0.535828   -0.047609
     26          6           0       -2.843199   -1.402019   -1.252030
     27          6           0       -1.497016   -2.106742   -1.081890
     28          1           0       -2.424756    0.212104    0.113604
     29          1           0       -3.237844   -1.163478    0.853726
     30          1           0       -2.819849   -0.772270   -2.150632
     31          1           0       -3.633007   -2.147206   -1.411767
     32          1           0       -1.511666   -2.758133   -0.202074
     33          1           0       -0.693887   -1.375384   -0.945137
     34          1           0       -1.252049   -2.720466   -1.954355
 ---------------------------------------------------------------------

 SCF Done:  E(RHF) =  -669.534634729     A.U. after   15 cycles
 E2 =    -0.2092111997D+01 EUMP2 =    -0.67162674672610D+03

 The electronic state is 1-A.
 Alpha  occ. eigenvalues --  -20.60763 -20.60758 -15.85815 -11.31177 -11.27724
 Alpha  occ. eigenvalues --  -11.27712 -11.27442 -11.26757 -11.26668 -11.22084
 Alpha  occ. eigenvalues --  -11.21835 -11.21743 -11.21709 -11.21578 -11.21162
 Alpha  occ. eigenvalues --   -1.59839  -1.39392  -1.19338  -1.08750  -1.08717
 Alpha  occ. eigenvalues --   -1.04748  -1.03883  -0.96371  -0.95570  -0.87422
 Alpha  occ. eigenvalues --   -0.86119  -0.82409  -0.79975  -0.78520  -0.77444
 Alpha  occ. eigenvalues --   -0.72033  -0.71162  -0.70439  -0.65372  -0.64984
 Alpha  occ. eigenvalues --   -0.64737  -0.62135  -0.61252  -0.59749  -0.57953
 Alpha  occ. eigenvalues --   -0.55675  -0.55224  -0.53307  -0.53102  -0.52842
 Alpha  occ. eigenvalues --   -0.52500  -0.50287  -0.48792  -0.48789  -0.48256
 Alpha  occ. eigenvalues --   -0.46967  -0.46069  -0.45965  -0.44799  -0.44130
 Alpha  occ. eigenvalues --   -0.37309  -0.36284
 Alpha virt. eigenvalues --    0.05041   0.11295   0.16448   0.21067   0.22603
 Alpha virt. eigenvalues --    0.24009   0.26178   0.26305   0.27249   0.28038
 Alpha virt. eigenvalues --    0.28874   0.29832   0.31035   0.31605   0.32095

 Mulliken charges:
               1
     1  C   -0.173438
     2  C   -0.218059
     3  C   -0.174413
     4  C    0.158625
     5  C   -0.171609
     6  C   -0.218172
     7  H    0.225583
     8  H    0.232991
     9  H    0.275436
    10  H    0.275410
    11  H    0.223307
    12  N    0.488076
    13  O   -0.460411
    14  O   -0.460664
    15  C   -0.298860
    16  C   -0.300119
    17  C   -0.475970
    18  H    0.151601
    19  H    0.149329
    20  H    0.153876
    21  H    0.151136
    22  H    0.154817
    23  H    0.156405
    24  H    0.161017
    25  C   -0.299079
    26  C   -0.299687
    27  C   -0.485047
    28  H    0.152568
    29  H    0.148510
    30  H    0.155107
    31  H    0.153077
    32  H    0.153331
    33  H    0.158310
    34  H    0.157015
 Sum of Mulliken charges =  -0.00000

 Dipole moment (field-independent basis, Debye):
    X=             -1.1296    Y=             -4.6835    Z=              1.9797  Tot=              5.2087
 Quadrupole moment (field-independent basis, Debye-Ang):
   XX=           -100.8473   YY=            -98.3634   ZZ=            -91.4655
   XY=            -13.6801   XZ=              8.4667   YZ=              1.2488

 Normal termination of Gaussian 16 at Thu May  6 12:34:46 2021.
