 Gaussian 16, Revision A.03,
 Gaussian 16:  EM64L-G16RevA.03 25-Dec-2016

 -------------
 #p 6-31g* mp2
 -------------

 ------------------------------------------------------
 Input file generated by CHIRIPA (05-May-2021 14:57:27)
 ------------------------------------------------------
 Symbolic Z-matrix:
 Charge =  0 Multiplicity = 1

                         Standard orientation:
 ---------------------------------------------------------------------
 Center     Atomic      Atomic             Coordinates (Angstroms)
 Number     Number       Type             X           Y           Z
 ---------------------------------------------------------------------
      1          6           0       -2.042683    2.171713    0.850435
      2          6           0       -1.608357    0.862105    1.080236
      3          6           0       -2.331722   -0.224121    0.578833
      4          6           0       -3.490107    0.036886   -0.151447
      5          6           0       -3.948581    1.330203   -0.397261
      6          6           0       -3.209352    2.401178    0.113719
      7          1           0       -1.474594    3.009596    1.243657
      8          1           0       -0.702677    0.680904    1.652034
      9          1           0       -2.018198   -1.248105    0.741862
     10          1           0       -4.855303    1.479270   -0.970892
     11          1           0       -3.549036    3.417175   -0.066307
     12          7           0       -4.264298   -1.104980   -0.687329
     13          8           0       -5.281549   -0.848384   -1.327640
     14          8           0       -3.839199   -2.234948   -0.456897
     15          6           0        1.956778   -1.395462    1.800955
     16          6           0        2.135701   -0.009572    1.862747
     17          6           0        2.912505    0.649435    0.905233
     18          6           0        3.498412   -0.111931   -0.104879
     19          6           0        3.338852   -1.493956   -0.193413
     20          6           0        2.557865   -2.131932    0.774881
     21          1           0        1.351713   -1.899225    2.548963
     22          1           0        1.670089    0.564933    2.658481
     23          1           0        3.067526    1.721258    0.929273
     24          1           0        3.815639   -2.039752   -0.998522
     25          1           0        2.420641   -3.208346    0.724399
     26          7           0        4.322994    0.574597   -1.124263
     27          8           0        4.828506   -0.118878   -2.004141
     28          8           0        4.448175    1.793174   -1.024075
 ---------------------------------------------------------------------

 SCF Done:  E(RHF) =  -868.336860619     A.U. after   16 cycles
 E2 =    -0.2600716061D+01 EUMP2 =    -0.87093757668066D+03

 The electronic state is 1-A.
 Alpha  occ. eigenvalues --  -20.61322 -20.61307 -20.61077 -20.61062 -15.86378
 Alpha  occ. eigenvalues --  -15.86127 -11.31906 -11.31515 -11.28571 -11.28449
 Alpha  occ. eigenvalues --  -11.28317 -11.28120 -11.28054 -11.27838 -11.27670
 Alpha  occ. eigenvalues --  -11.27469 -11.27114 -11.27075  -1.60388  -1.60146
 Alpha  occ. eigenvalues --   -1.39938  -1.39700  -1.20114  -1.19687  -1.09487
 Alpha  occ. eigenvalues --   -1.09081  -1.05550  -1.05095  -0.96282  -0.95914
 Alpha  occ. eigenvalues --   -0.86959  -0.86491  -0.83114  -0.82749  -0.78138
 Alpha  occ. eigenvalues --   -0.77787  -0.72594  -0.72347  -0.71712  -0.71467
 Alpha  occ. eigenvalues --   -0.71216  -0.70811  -0.65778  -0.65672  -0.65345
 Alpha  occ. eigenvalues --   -0.65046  -0.62911  -0.62423  -0.56046  -0.55619
 Alpha  occ. eigenvalues --   -0.53932  -0.53665  -0.53409  -0.53085  -0.49366
 Alpha  occ. eigenvalues --   -0.49337  -0.49106  -0.49097  -0.45307  -0.45101
 Alpha  occ. eigenvalues --   -0.38116  -0.37677  -0.37147  -0.36655
 Alpha virt. eigenvalues --    0.04411   0.04753   0.10287   0.10975   0.15815
 Alpha virt. eigenvalues --    0.16241   0.19375   0.21944   0.25456   0.26814
 Alpha virt. eigenvalues --    0.28202   0.28689   0.29705   0.31107   0.31905

 Mulliken charges:
               1
     1  C   -0.172124
     2  C   -0.217204
     3  C   -0.172480
     4  C    0.159322
     5  C   -0.170599
     6  C   -0.217715
     7  H    0.224595
     8  H    0.219365
     9  H    0.271716
    10  H    0.276869
    11  H    0.225189
    12  N    0.488276
    13  O   -0.458718
    14  O   -0.461974
    15  C   -0.174234
    16  C   -0.225188
    17  C   -0.169754
    18  C    0.159553
    19  C   -0.168250
    20  C   -0.217288
    21  H    0.227410
    22  H    0.218271
    23  H    0.275587
    24  H    0.279554
    25  H    0.228837
    26  N    0.488133
    27  O   -0.457030
    28  O   -0.460120
 Sum of Mulliken charges =  -0.00000

 Dipole moment (field-independent basis, Debye):
    X=             -0.0036    Y=              1.5225    Z=              5.2825  Tot=              5.4975
 Quadrupole moment (field-independent basis, Debye-Ang):
   XX=           -142.0188   YY=            -98.2013   ZZ=           -105.8250
   XY=            -26.0397   XZ=              6.8634   YZ=              0.0147

 Normal termination of Gaussian 16 at Fri May  7 03:33:40 2021.
