 Gaussian 16, Revision A.03,
 Gaussian 16:  EM64L-G16RevA.03 25-Dec-2016

 -------------
 #p 6-31g* mp2
 -------------

 ------------------------------------------------------
 Input file generated by CHIRIPA (05-May-2021 14:55:22)
 ------------------------------------------------------
 Symbolic Z-matrix:
 Charge =  0 Multiplicity = 1

                         Standard orientation:
 ---------------------------------------------------------------------
 Center     Atomic      Atomic             Coordinates (Angstroms)
 Number     Number       Type             X           Y           Z
 ---------------------------------------------------------------------
      1          6           0        3.566652   -2.615556    0.365387
      2          6           0        2.260227   -2.141456    0.523513
      3          6           0        1.965370   -0.790472    0.317486
      4          6           0        3.005894    0.062378   -0.047544
      5          6           0        4.317577   -0.379704   -0.212899
      6          6           0        4.589354   -1.734720   -0.001667
      7          1           0        3.786740   -3.666599    0.527455
      8          1           0        1.463987   -2.823236    0.808510
      9          1           0        0.962855   -0.396726    0.433011
     10          1           0        5.090276    0.324048   -0.497655
     11          1           0        5.604872   -2.100111   -0.125192
     12          7           0        2.705959    1.494738   -0.268411
     13          8           0        3.640419    2.225735   -0.589447
     14          8           0        1.542088    1.859303   -0.116307
     15          6           0       -4.428335   -0.293592    0.236607
     16          6           0       -4.563848   -1.471491   -0.728884
     17          6           0       -5.602959   -2.495130   -0.270405
     18          1           0       -4.157607   -0.672565    1.231609
     19          1           0       -5.405403    0.197449    0.344366
     20          1           0       -3.586507   -1.959320   -0.835861
     21          1           0       -4.834097   -1.089654   -1.721750
     22          1           0       -6.589668   -2.029163   -0.181630
     23          1           0       -5.334989   -2.903771    0.709291
     24          1           0       -5.683551   -3.328625   -0.975140
     25          6           0       -3.393302    0.738244   -0.208082
     26          6           0       -3.257790    1.916145    0.757410
     27          6           0       -2.218679    2.939784    0.298930
     28          1           0       -2.416234    0.247204   -0.315841
     29          1           0       -3.664031    1.117218   -1.203084
     30          1           0       -2.987540    1.534307    1.750274
     31          1           0       -4.235131    2.403974    0.864387
     32          1           0       -2.486649    3.348425   -0.680767
     33          1           0       -1.231970    2.473816    0.210155
     34          1           0       -2.138087    3.773278    1.003666
 ---------------------------------------------------------------------

 SCF Done:  E(RHF) =  -669.535934327     A.U. after   15 cycles
 E2 =    -0.2091011438D+01 EUMP2 =    -0.67162694576502D+03

 The electronic state is 1-A.
 Alpha  occ. eigenvalues --  -20.60903 -20.60894 -15.85952 -11.31284 -11.27857
 Alpha  occ. eigenvalues --  -11.27843 -11.27586 -11.26861 -11.26850 -11.21602
 Alpha  occ. eigenvalues --  -11.21257 -11.21117 -11.21098 -11.21020 -11.19977
 Alpha  occ. eigenvalues --   -1.59968  -1.39525  -1.19453  -1.08854  -1.08180
 Alpha  occ. eigenvalues --   -1.04853  -1.03174  -0.95701  -0.95587  -0.86602
 Alpha  occ. eigenvalues --   -0.86253  -0.82531  -0.79266  -0.77964  -0.77576
 Alpha  occ. eigenvalues --   -0.72178  -0.71285  -0.70564  -0.65113  -0.64863
 Alpha  occ. eigenvalues --   -0.64819  -0.62203  -0.60572  -0.59028  -0.57199
 Alpha  occ. eigenvalues --   -0.55355  -0.54868  -0.53183  -0.52947  -0.52270
 Alpha  occ. eigenvalues --   -0.51999  -0.49540  -0.48929  -0.48904  -0.47546
 Alpha  occ. eigenvalues --   -0.46315  -0.45486  -0.45415  -0.44935  -0.43449
 Alpha  occ. eigenvalues --   -0.37432  -0.36455
 Alpha virt. eigenvalues --    0.04957   0.11199   0.16457   0.20589   0.22819
 Alpha virt. eigenvalues --    0.24196   0.25938   0.27327   0.27568   0.28374
 Alpha virt. eigenvalues --    0.28992   0.30528   0.31593   0.31972   0.32300

 Mulliken charges:
               1
     1  C   -0.170616
     2  C   -0.218615
     3  C   -0.170928
     4  C    0.157677
     5  C   -0.170721
     6  C   -0.218542
     7  H    0.225994
     8  H    0.223782
     9  H    0.275448
    10  H    0.275903
    11  H    0.223820
    12  N    0.497104
    13  O   -0.459010
    14  O   -0.469041
    15  C   -0.297925
    16  C   -0.298436
    17  C   -0.475395
    18  H    0.146797
    19  H    0.150406
    20  H    0.147289
    21  H    0.153291
    22  H    0.156273
    23  H    0.153477
    24  H    0.159263
    25  C   -0.296375
    26  C   -0.299773
    27  C   -0.485022
    28  H    0.144203
    29  H    0.151111
    30  H    0.147897
    31  H    0.149359
    32  H    0.152626
    33  H    0.180108
    34  H    0.158573
 Sum of Mulliken charges =  -0.00000

 Dipole moment (field-independent basis, Debye):
    X=              1.2510    Y=             -4.9743    Z=              0.7394  Tot=              5.1822
 Quadrupole moment (field-independent basis, Debye-Ang):
   XX=            -84.0712   YY=            -96.2423   ZZ=            -95.3376
   XY=            -15.4060   XZ=              1.7633   YZ=             -0.1487

 Normal termination of Gaussian 16 at Thu May  6 01:28:44 2021.
