 Gaussian 16, Revision A.03,
 Gaussian 16:  EM64L-G16RevA.03 25-Dec-2016

 -------------
 #p 6-31g* mp2
 -------------

 ------------------------------------------------------
 Input file generated by CHIRIPA (05-May-2021 14:57:21)
 ------------------------------------------------------
 Symbolic Z-matrix:
 Charge =  0 Multiplicity = 1

                         Standard orientation:
 ---------------------------------------------------------------------
 Center     Atomic      Atomic             Coordinates (Angstroms)
 Number     Number       Type             X           Y           Z
 ---------------------------------------------------------------------
      1          6           0       -2.555188    2.666875   -0.250329
      2          6           0       -2.961796    1.996150   -1.408483
      3          6           0       -3.159360    0.612192   -1.395139
      4          6           0       -2.940153   -0.072770   -0.200960
      5          6           0       -2.534793    0.567039    0.969347
      6          6           0       -2.343358    1.951440    0.932803
      7          1           0       -2.404097    3.742138   -0.269706
      8          1           0       -3.127061    2.549191   -2.328743
      9          1           0       -3.473925    0.067836   -2.277264
     10          1           0       -2.377998   -0.011394    1.871704
     11          1           0       -2.027558    2.469702    1.833758
     12          7           0       -3.146060   -1.538139   -0.174554
     13          8           0       -2.946228   -2.118683    0.890187
     14          8           0       -3.503384   -2.078403   -1.219097
     15          6           0        0.917360   -0.535201    1.713980
     16          6           0        1.659758    0.646462    1.809033
     17          6           0        2.763644    0.860216    0.978193
     18          6           0        3.098492   -0.133312    0.059460
     19          6           0        2.378640   -1.321175   -0.059220
     20          6           0        1.278533   -1.513524    0.781799
     21          1           0        0.061302   -0.692936    2.363350
     22          1           0        1.381578    1.407980    2.532050
     23          1           0        3.355872    1.765718    1.030625
     24          1           0        2.680306   -2.061971   -0.789724
     25          1           0        0.703808   -2.432194    0.705762
     26          7           0        4.265126    0.081649   -0.825503
     27          8           0        4.539560   -0.809119   -1.626662
     28          8           0        4.883009    1.136831   -0.701219
 ---------------------------------------------------------------------

 SCF Done:  E(RHF) =  -868.337818823     A.U. after   16 cycles
 E2 =    -0.2601035104D+01 EUMP2 =    -0.87093885392731D+03

 The electronic state is 1-A.
 Alpha  occ. eigenvalues --  -20.61655 -20.61602 -20.60799 -20.60785 -15.86671
 Alpha  occ. eigenvalues --  -15.85847 -11.31917 -11.31195 -11.28582 -11.28415
 Alpha  occ. eigenvalues --  -11.28157 -11.27813 -11.27701 -11.27516 -11.27513
 Alpha  occ. eigenvalues --  -11.27385 -11.26869 -11.26639  -1.60700  -1.59871
 Alpha  occ. eigenvalues --   -1.40261  -1.39425  -1.20075  -1.19366  -1.09480
 Alpha  occ. eigenvalues --   -1.08770  -1.05478  -1.04760  -0.96347  -0.95608
 Alpha  occ. eigenvalues --   -0.86882  -0.86158  -0.83190  -0.82437  -0.78271
 Alpha  occ. eigenvalues --   -0.77478  -0.72893  -0.72069  -0.72018  -0.71244
 Alpha  occ. eigenvalues --   -0.71195  -0.70461  -0.65737  -0.65486  -0.65017
 Alpha  occ. eigenvalues --   -0.64755  -0.62851  -0.62098  -0.55976  -0.55293
 Alpha  occ. eigenvalues --   -0.53837  -0.53555  -0.53029  -0.52841  -0.49666
 Alpha  occ. eigenvalues --   -0.49628  -0.48823  -0.48820  -0.45692  -0.44834
 Alpha  occ. eigenvalues --   -0.38055  -0.37649  -0.36713  -0.36347
 Alpha virt. eigenvalues --    0.04186   0.05094   0.10475   0.11341   0.15795
 Alpha virt. eigenvalues --    0.16577   0.19293   0.22080   0.25449   0.26308
 Alpha virt. eigenvalues --    0.27769   0.29386   0.30010   0.31082   0.32738

 Mulliken charges:
               1
     1  C   -0.169166
     2  C   -0.217442
     3  C   -0.169447
     4  C    0.159819
     5  C   -0.171397
     6  C   -0.216868
     7  H    0.228379
     8  H    0.227136
     9  H    0.277920
    10  H    0.267831
    11  H    0.220119
    12  N    0.487953
    13  O   -0.468297
    14  O   -0.455387
    15  C   -0.170572
    16  C   -0.218473
    17  C   -0.171747
    18  C    0.158442
    19  C   -0.170891
    20  C   -0.222976
    21  H    0.224639
    22  H    0.216539
    23  H    0.273725
    24  H    0.277438
    25  H    0.236042
    26  N    0.487960
    27  O   -0.459247
    28  O   -0.462033
 Sum of Mulliken charges =  -0.00000

 Dipole moment (field-independent basis, Debye):
    X=             -3.5281    Y=              4.3776    Z=              2.7568  Tot=              6.2619
 Quadrupole moment (field-independent basis, Debye-Ang):
   XX=           -135.6130   YY=           -101.7107   ZZ=            -99.6237
   XY=            -16.8793   XZ=             11.8597   YZ=              0.4068

 Normal termination of Gaussian 16 at Thu May  6 14:26:49 2021.
