 Gaussian 16, Revision A.03,
 Gaussian 16:  EM64L-G16RevA.03 25-Dec-2016

 -------------
 #p 6-31g* mp2
 -------------

 ------------------------------------------------------
 Input file generated by CHIRIPA (05-May-2021 14:51:09)
 ------------------------------------------------------
 Symbolic Z-matrix:
 Charge =  0 Multiplicity = 1

                         Standard orientation:
 ---------------------------------------------------------------------
 Center     Atomic      Atomic             Coordinates (Angstroms)
 Number     Number       Type             X           Y           Z
 ---------------------------------------------------------------------
      1          6           0       -3.010263    0.522307    0.052500
      2          6           0       -2.670451    1.150041   -1.299706
      3          6           0       -3.574498    2.333512   -1.645955
      4          1           0       -4.058791    0.194486    0.044271
      5          1           0       -2.928541    1.288759    0.835614
      6          1           0       -2.751445    0.382299   -2.079852
      7          1           0       -1.622555    1.476232   -1.288323
      8          1           0       -3.487215    3.119423   -0.888772
      9          1           0       -4.622519    2.019275   -1.684798
     10          1           0       -3.314129    2.767111   -2.616553
     11          6           0       -2.115117   -0.662055    0.412677
     12          6           0       -2.454929   -1.289790    1.764883
     13          6           0       -1.550882   -2.473261    2.111133
     14          1           0       -2.196839   -1.428508   -0.370437
     15          1           0       -1.066589   -0.334235    0.420906
     16          1           0       -3.502825   -1.615981    1.753501
     17          1           0       -2.373935   -0.522048    2.545030
     18          1           0       -0.502861   -2.159024    2.149976
     19          1           0       -1.638166   -3.259172    1.353949
     20          1           0       -1.811251   -2.906859    3.081730
     21          6           0        2.834135    0.772971   -0.108475
     22          6           0        2.621922    1.260576    1.325119
     23          6           0        3.170282    2.668742    1.557850
     24          1           0        3.907744    0.792937   -0.340661
     25          1           0        2.351167    1.474857   -0.802372
     26          1           0        3.103963    0.557238    2.016183
     27          1           0        1.548711    1.239266    1.553985
     28          1           0        2.681844    3.387321    0.891761
     29          1           0        4.245934    2.701419    1.356586
     30          1           0        3.007951    2.997430    2.589097
     31          6           0        2.291245   -0.633223   -0.356702
     32          6           0        2.503458   -1.120827   -1.790297
     33          6           0        1.955098   -2.528993   -2.023026
     34          1           0        2.774212   -1.335108    0.337195
     35          1           0        1.217636   -0.653188   -0.124516
     36          1           0        3.576669   -1.099517   -2.019162
     37          1           0        2.021416   -0.417489   -2.481360
     38          1           0        0.879446   -2.561670   -1.821763
     39          1           0        2.443535   -3.247572   -1.356938
     40          1           0        2.117429   -2.857682   -3.054275
 ---------------------------------------------------------------------

 SCF Done:  E(RHF) =  -470.733416342     A.U. after   11 cycles
 E2 =    -0.1583581886D+01 EUMP2 =    -0.47231699822857D+03

 The electronic state is 1-A.
 Alpha  occ. eigenvalues --  -11.21670 -11.21657 -11.21636 -11.21582 -11.21469
 Alpha  occ. eigenvalues --  -11.21415 -11.21409 -11.21337 -11.21121 -11.21111
 Alpha  occ. eigenvalues --  -11.21067 -11.21033  -1.08500  -1.08434  -1.03572
 Alpha  occ. eigenvalues --   -1.03536  -0.96022  -0.95983  -0.87037  -0.86999
 Alpha  occ. eigenvalues --   -0.79647  -0.79594  -0.78420  -0.78155  -0.65257
 Alpha  occ. eigenvalues --   -0.64952  -0.60971  -0.60932  -0.59397  -0.59344
 Alpha  occ. eigenvalues --   -0.57640  -0.57589  -0.55359  -0.55225  -0.52711
 Alpha  occ. eigenvalues --   -0.52680  -0.52462  -0.52395  -0.50006  -0.49891
 Alpha  occ. eigenvalues --   -0.48005  -0.47891  -0.46740  -0.46642  -0.46310
 Alpha  occ. eigenvalues --   -0.45793  -0.45754  -0.45138  -0.43833  -0.43791
 Alpha virt. eigenvalues --    0.19917   0.23567   0.23637   0.24190   0.25173
 Alpha virt. eigenvalues --    0.26411   0.27025   0.27978   0.28154   0.30448
 Alpha virt. eigenvalues --    0.31129   0.31426   0.31718   0.31780   0.32201

 Mulliken charges:
               1
     1  C   -0.297518
     2  C   -0.299737
     3  C   -0.475738
     4  H    0.150129
     5  H    0.149565
     6  H    0.152112
     7  H    0.150954
     8  H    0.155323
     9  H    0.155477
    10  H    0.160399
    11  C   -0.308004
    12  C   -0.299023
    13  C   -0.477161
    14  H    0.149366
    15  H    0.157842
    16  H    0.152152
    17  H    0.151872
    18  H    0.157027
    19  H    0.155250
    20  H    0.160350
    21  C   -0.297746
    22  C   -0.300492
    23  C   -0.475670
    24  H    0.149985
    25  H    0.149115
    26  H    0.152261
    27  H    0.150968
    28  H    0.155174
    29  H    0.155556
    30  H    0.160307
    31  C   -0.308792
    32  C   -0.298854
    33  C   -0.476318
    34  H    0.149423
    35  H    0.159413
    36  H    0.151777
    37  H    0.151945
    38  H    0.156217
    39  H    0.155150
    40  H    0.159946
 Sum of Mulliken charges =  -0.00000

 Dipole moment (field-independent basis, Debye):
    X=             -0.0163    Y=             -0.0063    Z=              0.0056  Tot=              0.0183
 Quadrupole moment (field-independent basis, Debye-Ang):
   XX=            -83.9121   YY=            -85.9943   ZZ=            -84.7619
   XY=              0.2170   XZ=              0.2394   YZ=              0.1843

 Normal termination of Gaussian 16 at Wed May  5 21:20:23 2021.
