 Gaussian 16, Revision A.03,
 Gaussian 16:  EM64L-G16RevA.03 25-Dec-2016

 -------------
 #p 6-31g* mp2
 -------------

 ------------------------------------------------------
 Input file generated by CHIRIPA (05-May-2021 14:51:08)
 ------------------------------------------------------
 Symbolic Z-matrix:
 Charge =  0 Multiplicity = 1

                         Standard orientation:
 ---------------------------------------------------------------------
 Center     Atomic      Atomic             Coordinates (Angstroms)
 Number     Number       Type             X           Y           Z
 ---------------------------------------------------------------------
      1          6           0        2.977146   -0.709463   -0.390682
      2          6           0        1.947705   -1.338124   -1.330374
      3          6           0        1.995263   -2.866346   -1.321992
      4          1           0        3.981862   -1.048048   -0.678522
      5          1           0        2.803986   -1.077026    0.630253
      6          1           0        2.121887   -0.968414   -2.348996
      7          1           0        0.945339   -0.997852   -1.040383
      8          1           0        1.799565   -3.252349   -0.316356
      9          1           0        2.982798   -3.222744   -1.632404
     10          1           0        1.251176   -3.294889   -2.000627
     11          6           0        2.941886    0.817782   -0.388027
     12          6           0        3.971327    1.446443    0.551664
     13          6           0        3.923769    2.974665    0.543283
     14          1           0        3.115046    1.185346   -1.408962
     15          1           0        1.937170    1.156367   -0.100188
     16          1           0        4.973693    1.106171    0.261673
     17          1           0        3.797145    1.076734    1.570287
     18          1           0        2.936234    3.331064    0.853695
     19          1           0        4.119467    3.360668   -0.462353
     20          1           0        4.667856    3.403209    1.221917
     21          6           0       -3.677202    0.054723    0.151647
     22          6           0       -3.860914    1.342286   -0.652352
     23          6           0       -5.301990    1.546104   -1.120917
     24          1           0       -3.989122   -0.801158   -0.462452
     25          1           0       -4.347336    0.075528    1.022211
     26          1           0       -3.189629    1.319673   -1.520385
     27          1           0       -3.548340    2.195184   -0.036334
     28          1           0       -5.982296    1.594798   -0.264521
     29          1           0       -5.621548    0.714312   -1.757004
     30          1           0       -5.410710    2.472392   -1.693656
     31          6           0       -2.241831   -0.163042    0.627062
     32          6           0       -2.058118   -1.450606    1.431061
     33          6           0       -0.617042   -1.654423    1.899626
     34          1           0       -1.571696   -0.183847   -0.243502
     35          1           0       -1.929910    0.692839    1.241162
     36          1           0       -2.370692   -2.303504    0.815044
     37          1           0       -2.729403   -1.427992    2.299094
     38          1           0       -0.297485   -0.822632    2.535713
     39          1           0        0.063264   -1.703117    1.043231
     40          1           0       -0.508322   -2.580712    2.472366
 ---------------------------------------------------------------------

 SCF Done:  E(RHF) =  -470.732952419     A.U. after   11 cycles
 E2 =    -0.1583890558D+01 EUMP2 =    -0.47231684297707D+03

 The electronic state is 1-A.
 Alpha  occ. eigenvalues --  -11.21646 -11.21624 -11.21617 -11.21576 -11.21456
 Alpha  occ. eigenvalues --  -11.21391 -11.21381 -11.21320 -11.21092 -11.21089
 Alpha  occ. eigenvalues --  -11.21087 -11.21052  -1.08484  -1.08412  -1.03600
 Alpha  occ. eigenvalues --   -1.03503  -0.96027  -0.95966  -0.87038  -0.86990
 Alpha  occ. eigenvalues --   -0.79650  -0.79579  -0.78312  -0.78208  -0.65270
 Alpha  occ. eigenvalues --   -0.64940  -0.61255  -0.60686  -0.59394  -0.59328
 Alpha  occ. eigenvalues --   -0.57618  -0.57582  -0.55428  -0.55127  -0.52709
 Alpha  occ. eigenvalues --   -0.52672  -0.52437  -0.52399  -0.49953  -0.49924
 Alpha  occ. eigenvalues --   -0.48063  -0.47825  -0.46790  -0.46541  -0.45998
 Alpha  occ. eigenvalues --   -0.45789  -0.45706  -0.45421  -0.43821  -0.43776
 Alpha virt. eigenvalues --    0.20167   0.23045   0.23822   0.24636   0.25504
 Alpha virt. eigenvalues --    0.26379   0.26995   0.27973   0.28457   0.29382
 Alpha virt. eigenvalues --    0.30772   0.31081   0.31596   0.31798   0.32016

 Mulliken charges:
               1
     1  C   -0.299608
     2  C   -0.307615
     3  C   -0.477704
     4  H    0.149824
     5  H    0.151714
     6  H    0.153236
     7  H    0.155823
     8  H    0.157112
     9  H    0.155810
    10  H    0.159924
    11  C   -0.298685
    12  C   -0.299723
    13  C   -0.475697
    14  H    0.149228
    15  H    0.150601
    16  H    0.151803
    17  H    0.152214
    18  H    0.155193
    19  H    0.155097
    20  H    0.160144
    21  C   -0.298157
    22  C   -0.299797
    23  C   -0.475747
    24  H    0.149876
    25  H    0.149802
    26  H    0.152211
    27  H    0.151923
    28  H    0.155202
    29  H    0.155256
    30  H    0.160393
    31  C   -0.302785
    32  C   -0.299113
    33  C   -0.485751
    34  H    0.152781
    35  H    0.149484
    36  H    0.152253
    37  H    0.152210
    38  H    0.154608
    39  H    0.166305
    40  H    0.160356
 Sum of Mulliken charges =  -0.00000

 Dipole moment (field-independent basis, Debye):
    X=             -0.0053    Y=             -0.0061    Z=             -0.0000  Tot=              0.0081
 Quadrupole moment (field-independent basis, Debye-Ang):
   XX=            -85.2151   YY=            -85.8268   ZZ=            -83.6821
   XY=              0.0586   XZ=             -1.0915   YZ=              0.4372

 Normal termination of Gaussian 16 at Thu May  6 02:05:01 2021.
