 Gaussian 16, Revision A.03,
 Gaussian 16:  EM64L-G16RevA.03 25-Dec-2016

 -------------
 #p 6-31g* mp2
 -------------

 ------------------------------------------------------
 Input file generated by CHIRIPA (05-May-2021 14:55:24)
 ------------------------------------------------------
 Symbolic Z-matrix:
 Charge =  0 Multiplicity = 1

                         Standard orientation:
 ---------------------------------------------------------------------
 Center     Atomic      Atomic             Coordinates (Angstroms)
 Number     Number       Type             X           Y           Z
 ---------------------------------------------------------------------
      1          6           0       -2.871238   -2.119514   -0.060026
      2          6           0       -2.253847   -1.532292    1.049262
      3          6           0       -2.092283   -0.145435    1.120471
      4          6           0       -2.562037    0.627546    0.059753
      5          6           0       -3.181306    0.072168   -1.058885
      6          6           0       -3.332185   -1.316824   -1.108710
      7          1           0       -2.992595   -3.197688   -0.107037
      8          1           0       -1.894899   -2.153197    1.865154
      9          1           0       -1.617980    0.335367    1.967398
     10          1           0       -3.528890    0.717195   -1.856722
     11          1           0       -3.812043   -1.770123   -1.971440
     12          7           0       -2.396652    2.096880    0.123820
     13          8           0       -2.819146    2.755860   -0.823747
     14          8           0       -1.847662    2.561743    1.120389
     15          6           0        2.896051   -1.048755   -0.379134
     16          6           0        1.812705   -1.596142    0.550765
     17          6           0        0.984371   -2.706726   -0.095966
     18          1           0        2.425576   -0.670172   -1.296887
     19          1           0        3.558011   -1.871253   -0.683604
     20          1           0        1.153806   -0.772603    0.854494
     21          1           0        2.285797   -1.973292    1.466493
     22          1           0        1.624478   -3.547068   -0.383522
     23          1           0        0.486055   -2.339558   -0.998999
     24          1           0        0.215905   -3.083521    0.586197
     25          6           0        3.732541    0.062178    0.253197
     26          6           0        4.815888    0.609565   -0.676702
     27          6           0        5.644222    1.720150   -0.029971
     28          1           0        3.070582    0.884676    0.557667
     29          1           0        4.203018   -0.316405    1.170950
     30          1           0        4.342796    0.986715   -1.592430
     31          1           0        5.474787   -0.213974   -0.980431
     32          1           0        6.142537    1.352981    0.873062
     33          1           0        5.004116    2.560491    0.257585
     34          1           0        6.412688    2.096944   -0.712134
 ---------------------------------------------------------------------

 SCF Done:  E(RHF) =  -669.534849188     A.U. after   15 cycles
 E2 =    -0.2092933292D+01 EUMP2 =    -0.67162778248073D+03

 The electronic state is 1-A.
 Alpha  occ. eigenvalues --  -20.60815 -20.60810 -15.85870 -11.31237 -11.27798
 Alpha  occ. eigenvalues --  -11.27794 -11.27527 -11.26821 -11.26810 -11.21873
 Alpha  occ. eigenvalues --  -11.21538 -11.21510 -11.21462 -11.21351 -11.20940
 Alpha  occ. eigenvalues --   -1.59892  -1.39445  -1.19412  -1.08807  -1.08511
 Alpha  occ. eigenvalues --   -1.04821  -1.03636  -0.96095  -0.95635  -0.87124
 Alpha  occ. eigenvalues --   -0.86205  -0.82470  -0.79717  -0.78307  -0.77520
 Alpha  occ. eigenvalues --   -0.72087  -0.71217  -0.70509  -0.65141  -0.65062
 Alpha  occ. eigenvalues --   -0.64838  -0.62187  -0.61037  -0.59507  -0.57713
 Alpha  occ. eigenvalues --   -0.55406  -0.55305  -0.53234  -0.52942  -0.52661
 Alpha  occ. eigenvalues --   -0.52465  -0.50011  -0.48847  -0.48842  -0.48033
 Alpha  occ. eigenvalues --   -0.46743  -0.45855  -0.45756  -0.44850  -0.43904
 Alpha  occ. eigenvalues --   -0.37332  -0.36370
 Alpha virt. eigenvalues --    0.04992   0.11150   0.16452   0.20636   0.22909
 Alpha virt. eigenvalues --    0.24248   0.26311   0.26466   0.27143   0.28347
 Alpha virt. eigenvalues --    0.28507   0.30308   0.31248   0.31602   0.32164

 Mulliken charges:
               1
     1  C   -0.168519
     2  C   -0.213622
     3  C   -0.172553
     4  C    0.157772
     5  C   -0.171314
     6  C   -0.219264
     7  H    0.226221
     8  H    0.223853
     9  H    0.275851
    10  H    0.275666
    11  H    0.223751
    12  N    0.488066
    13  O   -0.460311
    14  O   -0.460563
    15  C   -0.298222
    16  C   -0.302367
    17  C   -0.471594
    18  H    0.151157
    19  H    0.148974
    20  H    0.152507
    21  H    0.150409
    22  H    0.154162
    23  H    0.158008
    24  H    0.148266
    25  C   -0.299649
    26  C   -0.299828
    27  C   -0.476238
    28  H    0.153963
    29  H    0.148701
    30  H    0.153167
    31  H    0.150688
    32  H    0.154401
    33  H    0.158162
    34  H    0.160298
 Sum of Mulliken charges =  -0.00000

 Dipole moment (field-independent basis, Debye):
    X=             -0.6083    Y=             -5.1110    Z=             -0.2619  Tot=              5.1537
 Quadrupole moment (field-independent basis, Debye-Ang):
   XX=            -91.3401   YY=           -102.3033   ZZ=            -90.9890
   XY=             12.1499   XZ=              2.8490   YZ=             -1.3542

 Normal termination of Gaussian 16 at Wed May  5 20:46:10 2021.
