 Gaussian 16, Revision A.03,
 Gaussian 16:  EM64L-G16RevA.03 25-Dec-2016

 -------------
 #p 6-31g* mp2
 -------------

 ------------------------------------------------------
 Input file generated by CHIRIPA (05-May-2021 14:53:15)
 ------------------------------------------------------
 Symbolic Z-matrix:
 Charge =  0 Multiplicity = 1

                         Standard orientation:
 ---------------------------------------------------------------------
 Center     Atomic      Atomic             Coordinates (Angstroms)
 Number     Number       Type             X           Y           Z
 ---------------------------------------------------------------------
      1          6           0        2.226202    1.243597    0.252118
      2          6           0        1.612633    2.043782   -0.897326
      3          6           0        0.472540    2.954687   -0.441002
      4          1           0        1.442128    0.640597    0.730203
      5          1           0        2.595804    1.939598    1.017868
      6          1           0        1.245542    1.346516   -1.661316
      7          1           0        2.398297    2.644801   -1.372851
      8          1           0        0.828239    3.672879    0.304840
      9          1           0       -0.331066    2.367217    0.014737
     10          1           0        0.048449    3.517328   -1.278523
     11          6           0        3.367258    0.328298   -0.188276
     12          6           0        3.980826   -0.471887    0.961169
     13          6           0        5.120920   -1.382793    0.504844
     14          1           0        2.997655   -0.367703   -0.954025
     15          1           0        4.151331    0.931297   -0.666360
     16          1           0        3.195163   -1.072907    1.436694
     17          1           0        4.347918    0.225379    1.725158
     18          1           0        5.924525   -0.795322    0.049106
     19          1           0        4.765221   -2.100984   -0.240998
     20          1           0        5.545011   -1.945433    1.342366
     21          6           0       -3.359743    1.400635    0.937836
     22          6           0       -3.145873    0.269196    1.731957
     23          6           0       -2.496046   -0.852768    1.209013
     24          6           0       -2.071370   -0.808791   -0.118016
     25          6           0       -2.269694    0.303568   -0.934482
     26          6           0       -2.921743    1.414186   -0.390506
     27          1           0       -3.865407    2.267796    1.352240
     28          1           0       -3.484946    0.255853    2.763895
     29          1           0       -2.317453   -1.741857    1.801502
     30          1           0       -1.920274    0.287167   -1.959691
     31          1           0       -3.086472    2.291496   -1.009567
     32          7           0       -1.382251   -1.990558   -0.682765
     33          8           0       -1.017750   -1.926739   -1.854816
     34          8           0       -1.219671   -2.958270    0.057328
 ---------------------------------------------------------------------

 SCF Done:  E(RHF) =  -669.534824348     A.U. after   15 cycles
 E2 =    -0.2093433860D+01 EUMP2 =    -0.67162825820789D+03

 The electronic state is 1-A.
 Alpha  occ. eigenvalues --  -20.60890 -20.60884 -15.85942 -11.31318 -11.27858
 Alpha  occ. eigenvalues --  -11.27842 -11.27583 -11.26881 -11.26843 -11.21546
 Alpha  occ. eigenvalues --  -11.21249 -11.21237 -11.21104 -11.21033 -11.20664
 Alpha  occ. eigenvalues --   -1.59965  -1.39517  -1.19485  -1.08872  -1.08214
 Alpha  occ. eigenvalues --   -1.04885  -1.03338  -0.95807  -0.95700  -0.86832
 Alpha  occ. eigenvalues --   -0.86263  -0.82531  -0.79418  -0.78007  -0.77582
 Alpha  occ. eigenvalues --   -0.72156  -0.71291  -0.70565  -0.65124  -0.64864
 Alpha  occ. eigenvalues --   -0.64847  -0.62220  -0.60762  -0.59193  -0.57417
 Alpha  occ. eigenvalues --   -0.55361  -0.55211  -0.53224  -0.52960  -0.52506
 Alpha  occ. eigenvalues --   -0.52166  -0.49702  -0.48916  -0.48912  -0.47721
 Alpha  occ. eigenvalues --   -0.46427  -0.45555  -0.45451  -0.44916  -0.43597
 Alpha  occ. eigenvalues --   -0.37450  -0.36376
 Alpha virt. eigenvalues --    0.04934   0.11112   0.16423   0.21042   0.22980
 Alpha virt. eigenvalues --    0.24424   0.26639   0.26910   0.27530   0.28348
 Alpha virt. eigenvalues --    0.28647   0.30356   0.31632   0.31759   0.32210

 Mulliken charges:
               1
     1  C   -0.297747
     2  C   -0.300420
     3  C   -0.484872
     4  H    0.148351
     5  H    0.147607
     6  H    0.154492
     7  H    0.152036
     8  H    0.153503
     9  H    0.164306
    10  H    0.151955
    11  C   -0.300286
    12  C   -0.299765
    13  C   -0.476202
    14  H    0.157254
    15  H    0.148138
    16  H    0.154378
    17  H    0.149001
    18  H    0.153405
    19  H    0.159623
    20  H    0.159419
    21  C   -0.170615
    22  C   -0.217912
    23  C   -0.171890
    24  C    0.159456
    25  C   -0.170785
    26  C   -0.218824
    27  H    0.226668
    28  H    0.224175
    29  H    0.275965
    30  H    0.276402
    31  H    0.225870
    32  N    0.487895
    33  O   -0.460600
    34  O   -0.459982
 Sum of Mulliken charges =  -0.00000

 Dipole moment (field-independent basis, Debye):
    X=             -2.5215    Y=              4.0304    Z=              1.9840  Tot=              5.1515
 Quadrupole moment (field-independent basis, Debye-Ang):
   XX=            -85.4843   YY=           -101.2890   ZZ=            -91.5755
   XY=             -5.8319   XZ=             -4.3081   YZ=             -4.3839

 Normal termination of Gaussian 16 at Thu May  6 10:36:33 2021.
