 Gaussian 16, Revision A.03,
 Gaussian 16:  EM64L-G16RevA.03 25-Dec-2016

 -------------
 #p 6-31g* mp2
 -------------

 ------------------------------------------------------
 Input file generated by CHIRIPA (05-May-2021 14:53:13)
 ------------------------------------------------------
 Symbolic Z-matrix:
 Charge =  0 Multiplicity = 1

                         Standard orientation:
 ---------------------------------------------------------------------
 Center     Atomic      Atomic             Coordinates (Angstroms)
 Number     Number       Type             X           Y           Z
 ---------------------------------------------------------------------
      1          6           0       -3.879543    0.693851    0.230629
      2          6           0       -2.689133    1.246345   -0.554011
      3          6           0       -2.038582    2.449986    0.128504
      4          1           0       -4.625182    1.489894    0.362096
      5          1           0       -3.545462    0.409048    1.237938
      6          1           0       -3.025069    1.528735   -1.560002
      7          1           0       -1.946327    0.448842   -0.683791
      8          1           0       -1.676252    2.178317    1.125256
      9          1           0       -2.761123    3.264346    0.244066
     10          1           0       -1.189861    2.828924   -0.449369
     11          6           0       -4.540471   -0.509691   -0.438990
     12          6           0       -5.730881   -1.062186    0.345649
     13          6           0       -6.381432   -2.265826   -0.336865
     14          1           0       -4.874552   -0.224888   -1.446299
     15          1           0       -3.794833   -1.305735   -0.570457
     16          1           0       -6.473687   -0.264682    0.475430
     17          1           0       -5.394945   -1.344575    1.351641
     18          1           0       -5.658891   -3.080186   -0.452427
     19          1           0       -6.743762   -1.994157   -1.333617
     20          1           0       -7.230153   -2.644764    0.241008
     21          6           0        1.669995    1.832074    0.426746
     22          6           0        1.717159    0.778019    1.345041
     23          6           0        2.610279   -0.282176    1.163734
     24          6           0        3.445594   -0.256010    0.048004
     25          6           0        3.422307    0.779861   -0.884584
     26          6           0        2.521219    1.829635   -0.683179
     27          1           0        0.973104    2.651611    0.575396
     28          1           0        1.057270    0.777268    2.207937
     29          1           0        2.667707   -1.110815    1.859058
     30          1           0        4.092573    0.752741   -1.735128
     31          1           0        2.486783    2.646903   -1.397973
     32          7           0        4.395318   -1.372875   -0.154577
     33          8           0        5.120715   -1.326295   -1.145670
     34          8           0        4.396331   -2.273704    0.681570
 ---------------------------------------------------------------------

 SCF Done:  E(RHF) =  -669.535131114     A.U. after   15 cycles
 E2 =    -0.2091488307D+01 EUMP2 =    -0.67162661942063D+03

 The electronic state is 1-A.
 Alpha  occ. eigenvalues --  -20.60743 -20.60737 -15.85797 -11.31151 -11.27734
 Alpha  occ. eigenvalues --  -11.27729 -11.27398 -11.26732 -11.26719 -11.22378
 Alpha  occ. eigenvalues --  -11.22222 -11.22020 -11.21985 -11.21836 -11.21362
 Alpha  occ. eigenvalues --   -1.59819  -1.39373  -1.19327  -1.09019  -1.08715
 Alpha  occ. eigenvalues --   -1.04733  -1.04161  -0.96649  -0.95548  -0.87670
 Alpha  occ. eigenvalues --   -0.86127  -0.82391  -0.80231  -0.78786  -0.77443
 Alpha  occ. eigenvalues --   -0.72015  -0.71143  -0.70446  -0.65646  -0.64976
 Alpha  occ. eigenvalues --   -0.64741  -0.62087  -0.61550  -0.60073  -0.58230
 Alpha  occ. eigenvalues --   -0.55992  -0.55205  -0.53314  -0.53089  -0.52968
 Alpha  occ. eigenvalues --   -0.52822  -0.50561  -0.48774  -0.48770  -0.48538
 Alpha  occ. eigenvalues --   -0.47236  -0.46340  -0.46237  -0.44781  -0.44402
 Alpha  occ. eigenvalues --   -0.37274  -0.36345
 Alpha virt. eigenvalues --    0.05081   0.11269   0.16516   0.20328   0.22550
 Alpha virt. eigenvalues --    0.24052   0.25633   0.26474   0.26596   0.27314
 Alpha virt. eigenvalues --    0.29164   0.29796   0.31103   0.31229   0.32121

 Mulliken charges:
               1
     1  C   -0.298790
     2  C   -0.300376
     3  C   -0.477614
     4  H    0.150658
     5  H    0.148287
     6  H    0.154780
     7  H    0.156203
     8  H    0.148654
     9  H    0.159615
    10  H    0.154308
    11  C   -0.299072
    12  C   -0.300017
    13  C   -0.476120
    14  H    0.150716
    15  H    0.151445
    16  H    0.152208
    17  H    0.151945
    18  H    0.156402
    19  H    0.155801
    20  H    0.161367
    21  C   -0.169639
    22  C   -0.221202
    23  C   -0.171021
    24  C    0.158126
    25  C   -0.170614
    26  C   -0.220670
    27  H    0.231125
    28  H    0.222887
    29  H    0.275294
    30  H    0.275452
    31  H    0.222987
    32  N    0.488121
    33  O   -0.460560
    34  O   -0.460687
 Sum of Mulliken charges =  -0.00000

 Dipole moment (field-independent basis, Debye):
    X=             -3.5292    Y=              3.8962    Z=              0.6632  Tot=              5.2986
 Quadrupole moment (field-independent basis, Debye-Ang):
   XX=           -117.4344   YY=            -96.8427   ZZ=            -91.3466
   XY=             14.5321   XZ=              0.9294   YZ=             -2.8043

 Normal termination of Gaussian 16 at Thu May  6 05:47:53 2021.
