 Gaussian 16, Revision A.03,
 Gaussian 16:  EM64L-G16RevA.03 25-Dec-2016

 -------------
 #p 6-31g* mp2
 -------------

 ------------------------------------------------------
 Input file generated by CHIRIPA (05-May-2021 14:55:21)
 ------------------------------------------------------
 Symbolic Z-matrix:
 Charge =  0 Multiplicity = 1

                         Standard orientation:
 ---------------------------------------------------------------------
 Center     Atomic      Atomic             Coordinates (Angstroms)
 Number     Number       Type             X           Y           Z
 ---------------------------------------------------------------------
      1          6           0       -3.771849   -2.332013    0.156199
      2          6           0       -3.908263   -1.500868    1.272940
      3          6           0       -3.559082   -0.149153    1.198880
      4          6           0       -3.074595    0.340337   -0.013128
      5          6           0       -2.927270   -0.462405   -1.143257
      6          6           0       -3.282651   -1.811047   -1.046216
      7          1           0       -4.045510   -3.380864    0.222656
      8          1           0       -4.287911   -1.902724    2.208047
      9          1           0       -3.654618    0.516658    2.047990
     10          1           0       -2.545978   -0.033006   -2.061761
     11          1           0       -3.175655   -2.454180   -1.915109
     12          7           0       -2.701651    1.769711   -0.103696
     13          8           0       -2.277216    2.176629   -1.183006
     14          8           0       -2.840835    2.456071    0.906341
     15          6           0        4.665773    0.212060    0.195206
     16          6           0        5.906281   -0.649885   -0.041813
     17          6           0        7.202065    0.056346    0.358156
     18          1           0        4.764290    1.148625   -0.370553
     19          1           0        4.619461    0.491602    1.256858
     20          1           0        5.949491   -0.928868   -1.102435
     21          1           0        5.804713   -1.584591    0.524424
     22          1           0        7.184784    0.320438    1.420492
     23          1           0        7.330386    0.979887   -0.215609
     24          1           0        8.076246   -0.577738    0.180378
     25          6           0        3.362543   -0.480242   -0.199812
     26          6           0        2.122035    0.381701    0.037207
     27          6           0        0.826251   -0.324529   -0.362762
     28          1           0        3.408856   -0.759785   -1.261464
     29          1           0        3.264026   -1.416808    0.365947
     30          1           0        2.223604    1.316408   -0.529030
     31          1           0        2.078825    0.660686    1.097828
     32          1           0        0.697930   -1.248070    0.211004
     33          1           0        0.843532   -0.588622   -1.425098
     34          1           0       -0.047930    0.309555   -0.184984
 ---------------------------------------------------------------------

 SCF Done:  E(RHF) =  -669.535242498     A.U. after   15 cycles
 E2 =    -0.2092264353D+01 EUMP2 =    -0.67162750685045D+03

 The electronic state is 1-A.
 Alpha  occ. eigenvalues --  -20.60835 -20.60818 -15.85859 -11.31163 -11.27754
 Alpha  occ. eigenvalues --  -11.27741 -11.27495 -11.26757 -11.26745 -11.21465
 Alpha  occ. eigenvalues --  -11.21290 -11.21208 -11.21150 -11.20937 -11.20872
 Alpha  occ. eigenvalues --   -1.59899  -1.39452  -1.19356  -1.08766  -1.08229
 Alpha  occ. eigenvalues --   -1.04751  -1.03330  -0.95802  -0.95602  -0.86830
 Alpha  occ. eigenvalues --   -0.86150  -0.82435  -0.79398  -0.78039  -0.77486
 Alpha  occ. eigenvalues --   -0.72085  -0.71245  -0.70469  -0.65011  -0.64861
 Alpha  occ. eigenvalues --   -0.64756  -0.62102  -0.60726  -0.59175  -0.57404
 Alpha  occ. eigenvalues --   -0.55264  -0.55091  -0.53245  -0.52846  -0.52333
 Alpha  occ. eigenvalues --   -0.52228  -0.49746  -0.48847  -0.48840  -0.47719
 Alpha  occ. eigenvalues --   -0.46422  -0.45584  -0.45506  -0.44863  -0.43580
 Alpha  occ. eigenvalues --   -0.37304  -0.36327
 Alpha virt. eigenvalues --    0.05028   0.11287   0.16525   0.21391   0.23044
 Alpha virt. eigenvalues --    0.24398   0.26796   0.27217   0.27718   0.27844
 Alpha virt. eigenvalues --    0.28539   0.30761   0.31530   0.31757   0.32048

 Mulliken charges:
               1
     1  C   -0.170590
     2  C   -0.218676
     3  C   -0.171155
     4  C    0.154774
     5  C   -0.167836
     6  C   -0.218029
     7  H    0.225537
     8  H    0.223262
     9  H    0.275503
    10  H    0.275637
    11  H    0.223475
    12  N    0.490178
    13  O   -0.459362
    14  O   -0.459520
    15  C   -0.298286
    16  C   -0.299375
    17  C   -0.475630
    18  H    0.151234
    19  H    0.149794
    20  H    0.151334
    21  H    0.150690
    22  H    0.155224
    23  H    0.155826
    24  H    0.159416
    25  C   -0.298466
    26  C   -0.299821
    27  C   -0.475192
    28  H    0.148228
    29  H    0.147116
    30  H    0.157801
    31  H    0.152715
    32  H    0.151141
    33  H    0.151088
    34  H    0.161966
 Sum of Mulliken charges =  -0.00000

 Dipole moment (field-independent basis, Debye):
    X=             -1.3752    Y=             -4.9833    Z=              0.3100  Tot=              5.1788
 Quadrupole moment (field-independent basis, Debye-Ang):
   XX=            -88.3117   YY=            -98.7514   ZZ=            -89.3877
   XY=             14.9676   XZ=             -2.7377   YZ=              0.4147

 Normal termination of Gaussian 16 at Thu May  6 10:54:47 2021.
