 Gaussian 16, Revision A.03,
 Gaussian 16:  EM64L-G16RevA.03 25-Dec-2016

 -------------
 #p 6-31g* mp2
 -------------

 ------------------------------------------------------
 Input file generated by CHIRIPA (05-May-2021 14:53:15)
 ------------------------------------------------------
 Symbolic Z-matrix:
 Charge =  0 Multiplicity = 1

                         Standard orientation:
 ---------------------------------------------------------------------
 Center     Atomic      Atomic             Coordinates (Angstroms)
 Number     Number       Type             X           Y           Z
 ---------------------------------------------------------------------
      1          6           0        3.571071   -0.778808   -0.083450
      2          6           0        2.100240   -0.362844   -0.123632
      3          6           0        1.155337   -1.549493   -0.315502
      4          1           0        3.822908   -1.302906   -1.015568
      5          1           0        3.718405   -1.501464    0.731079
      6          1           0        1.955998    0.359863   -0.936962
      7          1           0        1.851926    0.160493    0.808609
      8          1           0        1.269993   -2.269256    0.501442
      9          1           0        1.374657   -2.068753   -1.254048
     10          1           0        0.109027   -1.229447   -0.341329
     11          6           0        4.528027    0.396509    0.107844
     12          6           0        5.998858   -0.019456    0.148027
     13          6           0        6.943761    1.167194    0.339896
     14          1           0        4.380693    1.119165   -0.706684
     15          1           0        4.276190    0.920606    1.039963
     16          1           0        6.247172   -0.542792   -0.784215
     17          1           0        6.143100   -0.742163    0.961357
     18          1           0        6.724441    1.686453    1.278442
     19          1           0        6.829105    1.886956   -0.477047
     20          1           0        7.990071    0.847147    0.365724
     21          6           0       -3.016437   -2.365887    0.124211
     22          6           0       -2.557524   -1.697435   -1.015566
     23          6           0       -2.634173   -0.304078   -1.100596
     24          6           0       -3.177948    0.392498   -0.022459
     25          6           0       -3.643623   -0.244759    1.126601
     26          6           0       -3.557069   -1.638698    1.189778
     27          1           0       -2.953047   -3.448507    0.181776
     28          1           0       -2.137187   -2.259596   -1.844624
     29          1           0       -2.286352    0.238773   -1.971085
     30          1           0       -4.057636    0.342859    1.936982
     31          1           0       -3.914249   -2.155169    2.076189
     32          7           0       -3.264336    1.867890   -0.100909
     33          8           0       -3.747623    2.458587    0.862497
     34          8           0       -2.847124    2.405671   -1.124316
 ---------------------------------------------------------------------

 SCF Done:  E(RHF) =  -669.534739119     A.U. after   15 cycles
 E2 =    -0.2092295672D+01 EUMP2 =    -0.67162703479116D+03

 The electronic state is 1-A.
 Alpha  occ. eigenvalues --  -20.60808 -20.60803 -15.85862 -11.31257 -11.27805
 Alpha  occ. eigenvalues --  -11.27800 -11.27538 -11.26834 -11.26811 -11.21675
 Alpha  occ. eigenvalues --  -11.21616 -11.21459 -11.21367 -11.21195 -11.21052
 Alpha  occ. eigenvalues --   -1.59882  -1.39435  -1.19432  -1.08813  -1.08476
 Alpha  occ. eigenvalues --   -1.04843  -1.03589  -0.96053  -0.95642  -0.87081
 Alpha  occ. eigenvalues --   -0.86218  -0.82475  -0.79659  -0.78283  -0.77520
 Alpha  occ. eigenvalues --   -0.72078  -0.71206  -0.70514  -0.65111  -0.65073
 Alpha  occ. eigenvalues --   -0.64824  -0.62176  -0.60993  -0.59469  -0.57688
 Alpha  occ. eigenvalues --   -0.55354  -0.55307  -0.53553  -0.52916  -0.52555
 Alpha  occ. eigenvalues --   -0.52258  -0.50001  -0.48840  -0.48833  -0.47967
 Alpha  occ. eigenvalues --   -0.46689  -0.45828  -0.45751  -0.44835  -0.43858
 Alpha  occ. eigenvalues --   -0.37389  -0.36342
 Alpha virt. eigenvalues --    0.05000   0.11179   0.16474   0.21271   0.22836
 Alpha virt. eigenvalues --    0.24282   0.26550   0.27010   0.27455   0.28261
 Alpha virt. eigenvalues --    0.28345   0.30714   0.31412   0.31866   0.32267

 Mulliken charges:
               1
     1  C   -0.298200
     2  C   -0.298700
     3  C   -0.486019
     4  H    0.148318
     5  H    0.148424
     6  H    0.153485
     7  H    0.154029
     8  H    0.152454
     9  H    0.148945
    10  H    0.169916
    11  C   -0.298573
    12  C   -0.299607
    13  C   -0.475786
    14  H    0.150883
    15  H    0.150744
    16  H    0.151333
    17  H    0.151254
    18  H    0.155755
    19  H    0.155918
    20  H    0.159971
    21  C   -0.169372
    22  C   -0.218790
    23  C   -0.173205
    24  C    0.160226
    25  C   -0.171298
    26  C   -0.218109
    27  H    0.226399
    28  H    0.225882
    29  H    0.276322
    30  H    0.275830
    31  H    0.223819
    32  N    0.488134
    33  O   -0.460190
    34  O   -0.460192
 Sum of Mulliken charges =  -0.00000

 Dipole moment (field-independent basis, Debye):
    X=              0.2101    Y=             -5.1653    Z=              0.2949  Tot=              5.1779
 Quadrupole moment (field-independent basis, Debye-Ang):
   XX=            -97.1463   YY=           -100.1142   ZZ=            -89.7153
   XY=             16.4897   XZ=             -3.2114   YZ=              0.0961

 Normal termination of Gaussian 16 at Thu May  6 13:49:32 2021.
