 Gaussian 16, Revision A.03,
 Gaussian 16:  EM64L-G16RevA.03 25-Dec-2016

 -------------
 #p 6-31g* mp2
 -------------

 ------------------------------------------------------
 Input file generated by CHIRIPA (05-May-2021 14:53:18)
 ------------------------------------------------------
 Symbolic Z-matrix:
 Charge =  0 Multiplicity = 1

                         Standard orientation:
 ---------------------------------------------------------------------
 Center     Atomic      Atomic             Coordinates (Angstroms)
 Number     Number       Type             X           Y           Z
 ---------------------------------------------------------------------
      1          6           0       -4.083276    0.214914   -0.508013
      2          6           0       -3.050499    1.270809   -0.112485
      3          6           0       -1.886816    1.358704   -1.100366
      4          1           0       -3.588475   -0.763175   -0.581889
      5          1           0       -4.468851    0.446661   -1.510520
      6          1           0       -2.668000    1.037915    0.889549
      7          1           0       -3.547855    2.246465   -0.039355
      8          1           0       -2.249606    1.614120   -2.101239
      9          1           0       -1.364752    0.398703   -1.167057
     10          1           0       -1.160431    2.119643   -0.798375
     11          6           0       -5.252696    0.115149    0.469858
     12          6           0       -6.285474   -0.940746    0.074329
     13          6           0       -7.449157   -1.028641    1.062210
     14          1           0       -4.867122   -0.116598    1.472365
     15          1           0       -5.747498    1.093238    0.543734
     16          1           0       -5.788118   -1.916402    0.001199
     17          1           0       -6.667973   -0.707852   -0.927705
     18          1           0       -7.971220   -0.068640    1.128901
     19          1           0       -7.086367   -1.284057    2.063083
     20          1           0       -8.175542   -1.789580    0.760219
     21          6           0        6.055687   -0.352441    0.731520
     22          6           0        5.459966   -1.353458   -0.042820
     23          6           0        4.125992   -1.240147   -0.445589
     24          6           0        3.413989   -0.107322   -0.054375
     25          6           0        3.979394    0.906973    0.716864
     26          6           0        5.314807    0.772596    1.108227
     27          1           0        7.092509   -0.448646    1.039971
     28          1           0        6.032924   -2.228279   -0.336846
     29          1           0        3.639986   -2.000136   -1.045284
     30          1           0        3.382752    1.767420    0.994475
     31          1           0        5.774851    1.551566    1.709566
     32          7           0        2.001009    0.023786   -0.474731
     33          8           0        1.395251    1.031615   -0.116995
     34          8           0        1.526027   -0.883764   -1.153983
 ---------------------------------------------------------------------

 SCF Done:  E(RHF) =  -669.535894122     A.U. after   15 cycles
 E2 =    -0.2091593816D+01 EUMP2 =    -0.67162748793771D+03

 The electronic state is 1-A.
 Alpha  occ. eigenvalues --  -20.61012 -20.60986 -15.86021 -11.31332 -11.27891
 Alpha  occ. eigenvalues --  -11.27887 -11.27625 -11.26894 -11.26884 -11.20829
 Alpha  occ. eigenvalues --  -11.20450 -11.20428 -11.20138 -11.20018 -11.18771
 Alpha  occ. eigenvalues --   -1.60050  -1.39608  -1.19496  -1.08904  -1.07301
 Alpha  occ. eigenvalues --   -1.04890  -1.02268  -0.95752  -0.94673  -0.86292
 Alpha  occ. eigenvalues --   -0.85688  -0.82582  -0.78397  -0.77638  -0.77046
 Alpha  occ. eigenvalues --   -0.72239  -0.71361  -0.70605  -0.65152  -0.64894
 Alpha  occ. eigenvalues --   -0.63947  -0.62237  -0.59677  -0.58167  -0.56271
 Alpha  occ. eigenvalues --   -0.55402  -0.53987  -0.53223  -0.52982  -0.51382
 Alpha  occ. eigenvalues --   -0.51110  -0.49206  -0.48983  -0.48340  -0.46669
 Alpha  occ. eigenvalues --   -0.45434  -0.45025  -0.44578  -0.44456  -0.42483
 Alpha  occ. eigenvalues --   -0.37475  -0.36490
 Alpha virt. eigenvalues --    0.04893   0.11165   0.16397   0.21301   0.23895
 Alpha virt. eigenvalues --    0.25675   0.27222   0.27718   0.28179   0.28538
 Alpha virt. eigenvalues --    0.29476   0.30884   0.32384   0.32636   0.32763

 Mulliken charges:
               1
     1  C   -0.297505
     2  C   -0.300262
     3  C   -0.475049
     4  H    0.150828
     5  H    0.146578
     6  H    0.149856
     7  H    0.143929
     8  H    0.141186
     9  H    0.172811
    10  H    0.169240
    11  C   -0.297075
    12  C   -0.298766
    13  C   -0.475002
    14  H    0.147653
    15  H    0.147143
    16  H    0.151357
    17  H    0.150734
    18  H    0.153916
    19  H    0.153943
    20  H    0.157868
    21  C   -0.170535
    22  C   -0.218588
    23  C   -0.170552
    24  C    0.158621
    25  C   -0.170839
    26  C   -0.218555
    27  H    0.226119
    28  H    0.223942
    29  H    0.275903
    30  H    0.275743
    31  H    0.223950
    32  N    0.489747
    33  O   -0.458397
    34  O   -0.459944
 Sum of Mulliken charges =  -0.00000

 Dipole moment (field-independent basis, Debye):
    X=              5.4737    Y=             -0.5030    Z=              1.4799  Tot=              5.6925
 Quadrupole moment (field-independent basis, Debye-Ang):
   XX=            -63.6056   YY=            -90.7099   ZZ=            -94.7936
   XY=             -2.8064   XZ=              5.6413   YZ=              2.1964

 Normal termination of Gaussian 16 at Thu May  6 04:26:18 2021.
