 Gaussian 16, Revision A.03,
 Gaussian 16:  EM64L-G16RevA.03 25-Dec-2016

 -------------
 #p 6-31g* mp2
 -------------

 ------------------------------------------------------
 Input file generated by CHIRIPA (05-May-2021 14:51:13)
 ------------------------------------------------------
 Symbolic Z-matrix:
 Charge =  0 Multiplicity = 1

                         Standard orientation:
 ---------------------------------------------------------------------
 Center     Atomic      Atomic             Coordinates (Angstroms)
 Number     Number       Type             X           Y           Z
 ---------------------------------------------------------------------
      1          6           0       -2.642108    0.784568   -0.144983
      2          6           0       -3.893050    1.302562    0.565516
      3          6           0       -3.752305    2.753116    1.027986
      4          1           0       -1.780825    0.873403    0.531216
      5          1           0       -2.427779    1.427092   -1.010212
      6          1           0       -4.105751    0.658431    1.428343
      7          1           0       -4.751490    1.212306   -0.112385
      8          1           0       -3.563249    3.412805    0.174950
      9          1           0       -2.913841    2.855783    1.724433
     10          1           0       -4.657872    3.103043    1.533316
     11          6           0       -2.767456   -0.664139   -0.613242
     12          6           0       -1.516513   -1.182133   -1.323741
     13          6           0       -1.657258   -2.632687   -1.786211
     14          1           0       -2.981784   -1.306663    0.251987
     15          1           0       -3.628738   -0.752974   -1.289441
     16          1           0       -0.658073   -1.091876   -0.645840
     17          1           0       -1.303812   -0.538002   -2.186568
     18          1           0       -2.495722   -2.735354   -2.482658
     19          1           0       -1.846314   -3.292376   -0.933175
     20          1           0       -0.751691   -2.982614   -2.291541
     21          6           0        2.120781   -0.549639    0.432401
     22          6           0        2.140275   -1.379414    1.716565
     23          6           0        0.965644   -2.353868    1.808625
     24          1           0        1.175365    0.007250    0.377550
     25          1           0        2.135707   -1.226191   -0.433306
     26          1           0        2.126714   -0.701463    2.579592
     27          1           0        3.085837   -1.934243    1.768459
     28          1           0        0.978421   -3.053292    0.966460
     29          1           0        0.013848   -1.813508    1.782201
     30          1           0        0.999224   -2.936819    2.734314
     31          6           0        3.288782    0.429209    0.325824
     32          6           0        3.269288    1.258984   -0.958340
     33          6           0        4.443918    2.233439   -1.050400
     34          1           0        3.273856    1.105762    1.191531
     35          1           0        4.234198   -0.127679    0.380675
     36          1           0        2.323726    1.813814   -1.010235
     37          1           0        3.282849    0.581034   -1.821368
     38          1           0        5.395714    1.693079   -1.023977
     39          1           0        4.431142    2.932863   -0.208235
     40          1           0        4.410339    2.816390   -1.976090
 ---------------------------------------------------------------------

 SCF Done:  E(RHF) =  -470.732617243     A.U. after   11 cycles
 E2 =    -0.1584339113D+01 EUMP2 =    -0.47231695635520D+03

 The electronic state is 1-A.
 Alpha  occ. eigenvalues --  -11.21666 -11.21613 -11.21606 -11.21437 -11.21418
 Alpha  occ. eigenvalues --  -11.21399 -11.21376 -11.21308 -11.21151 -11.21089
 Alpha  occ. eigenvalues --  -11.21076 -11.20987  -1.08493  -1.08383  -1.03593
 Alpha  occ. eigenvalues --   -1.03465  -0.96025  -0.95945  -0.87044  -0.86960
 Alpha  occ. eigenvalues --   -0.79705  -0.79512  -0.78442  -0.78057  -0.65192
 Alpha  occ. eigenvalues --   -0.64960  -0.61009  -0.60873  -0.59433  -0.59262
 Alpha  occ. eigenvalues --   -0.57636  -0.57553  -0.55325  -0.55226  -0.52720
 Alpha  occ. eigenvalues --   -0.52636  -0.52459  -0.52367  -0.49996  -0.49870
 Alpha  occ. eigenvalues --   -0.48154  -0.47771  -0.46811  -0.46583  -0.46193
 Alpha  occ. eigenvalues --   -0.45755  -0.45707  -0.45014  -0.43824  -0.43741
 Alpha virt. eigenvalues --    0.20229   0.23087   0.23523   0.24425   0.25368
 Alpha virt. eigenvalues --    0.26485   0.26717   0.27973   0.28560   0.29794
 Alpha virt. eigenvalues --    0.30917   0.31294   0.31514   0.31908   0.32115

 Mulliken charges:
               1
     1  C   -0.299927
     2  C   -0.299563
     3  C   -0.475683
     4  H    0.148901
     5  H    0.149744
     6  H    0.151962
     7  H    0.152347
     8  H    0.155201
     9  H    0.154778
    10  H    0.160384
    11  C   -0.298337
    12  C   -0.310918
    13  C   -0.475451
    14  H    0.149202
    15  H    0.149455
    16  H    0.167030
    17  H    0.150618
    18  H    0.154537
    19  H    0.155584
    20  H    0.158972
    21  C   -0.304187
    22  C   -0.299321
    23  C   -0.479019
    24  H    0.153882
    25  H    0.150554
    26  H    0.151787
    27  H    0.152318
    28  H    0.157098
    29  H    0.155879
    30  H    0.160793
    31  C   -0.297371
    32  C   -0.299795
    33  C   -0.475755
    34  H    0.149419
    35  H    0.149671
    36  H    0.152546
    37  H    0.152007
    38  H    0.155126
    39  H    0.155190
    40  H    0.160344
 Sum of Mulliken charges =  -0.00000

 Dipole moment (field-independent basis, Debye):
    X=              0.0466    Y=             -0.0028    Z=              0.0165  Tot=              0.0495
 Quadrupole moment (field-independent basis, Debye-Ang):
   XX=            -84.9968   YY=            -85.8344   ZZ=            -84.0237
   XY=             -1.1395   XZ=              0.2251   YZ=             -0.2703

 Normal termination of Gaussian 16 at Thu May  6 02:22:30 2021.
