 Gaussian 16, Revision A.03,
 Gaussian 16:  EM64L-G16RevA.03 25-Dec-2016

 -------------
 #p 6-31g* mp2
 -------------

 ------------------------------------------------------
 Input file generated by CHIRIPA (05-May-2021 14:53:12)
 ------------------------------------------------------
 Symbolic Z-matrix:
 Charge =  0 Multiplicity = 1

                         Standard orientation:
 ---------------------------------------------------------------------
 Center     Atomic      Atomic             Coordinates (Angstroms)
 Number     Number       Type             X           Y           Z
 ---------------------------------------------------------------------
      1          6           0       -2.793349    0.890672   -0.204160
      2          6           0       -1.990813    1.810378    0.716742
      3          6           0       -2.425988    3.272732    0.617065
      4          1           0       -2.686268    1.236701   -1.241340
      5          1           0       -3.860323    0.974459    0.044718
      6          1           0       -0.925535    1.723839    0.467122
      7          1           0       -2.099661    1.462005    1.751829
      8          1           0       -3.481741    3.379703    0.886403
      9          1           0       -2.300944    3.643025   -0.405603
     10          1           0       -1.839299    3.912516    1.283648
     11          6           0       -2.369931   -0.574469   -0.115796
     12          6           0       -3.172467   -1.494175   -1.036698
     13          6           0       -2.737292   -2.956530   -0.937021
     14          1           0       -1.302957   -0.658256   -0.364675
     15          1           0       -2.477012   -0.920499    0.921384
     16          1           0       -3.063619   -1.145802   -2.071785
     17          1           0       -4.237745   -1.407636   -0.787079
     18          1           0       -2.862336   -3.326822    0.085646
     19          1           0       -1.681539   -3.063500   -1.206359
     20          1           0       -3.323981   -3.596313   -1.603604
     21          6           0        2.614681    1.406744   -1.789931
     22          6           0        2.768807    0.023101   -1.925208
     23          6           0        2.440760   -0.834296   -0.870788
     24          6           0        1.959116   -0.271457    0.310110
     25          6           0        1.794474    1.102887    0.475520
     26          6           0        2.128863    1.941278   -0.592109
     27          1           0        2.871979    2.065408   -2.614160
     28          1           0        3.145879   -0.394825   -2.854293
     29          1           0        2.550301   -1.909184   -0.948489
     30          1           0        1.416263    1.489998    1.413880
     31          1           0        2.008142    3.015444   -0.484218
     32          7           0        1.608470   -1.169084    1.433369
     33          8           0        1.186106   -0.648316    2.463440
     34          8           0        1.762637   -2.376417    1.262440
 ---------------------------------------------------------------------

 SCF Done:  E(RHF) =  -669.534951273     A.U. after   15 cycles
 E2 =    -0.2093975316D+01 EUMP2 =    -0.67162892658920D+03

 The electronic state is 1-A.
 Alpha  occ. eigenvalues --  -20.60807 -20.60797 -15.85860 -11.31270 -11.27855
 Alpha  occ. eigenvalues --  -11.27825 -11.27590 -11.26861 -11.26851 -11.21498
 Alpha  occ. eigenvalues --  -11.21354 -11.21270 -11.21208 -11.21099 -11.20702
 Alpha  occ. eigenvalues --   -1.59876  -1.39428  -1.19461  -1.08835  -1.08265
 Alpha  occ. eigenvalues --   -1.04870  -1.03390  -0.95842  -0.95664  -0.86855
 Alpha  occ. eigenvalues --   -0.86254  -0.82493  -0.79466  -0.78085  -0.77517
 Alpha  occ. eigenvalues --   -0.72077  -0.71198  -0.70556  -0.65109  -0.64935
 Alpha  occ. eigenvalues --   -0.64825  -0.62222  -0.60789  -0.59228  -0.57448
 Alpha  occ. eigenvalues --   -0.55353  -0.55126  -0.53237  -0.52949  -0.52540
 Alpha  occ. eigenvalues --   -0.52254  -0.49776  -0.48841  -0.48827  -0.47769
 Alpha  occ. eigenvalues --   -0.46499  -0.45617  -0.45514  -0.44801  -0.43635
 Alpha  occ. eigenvalues --   -0.37412  -0.36389
 Alpha virt. eigenvalues --    0.04968   0.11142   0.16412   0.21129   0.23019
 Alpha virt. eigenvalues --    0.24308   0.26480   0.27003   0.27503   0.27921
 Alpha virt. eigenvalues --    0.28831   0.30860   0.31409   0.31716   0.32084

 Mulliken charges:
               1
     1  C   -0.296878
     2  C   -0.307315
     3  C   -0.475515
     4  H    0.146309
     5  H    0.149789
     6  H    0.150824
     7  H    0.159497
     8  H    0.157615
     9  H    0.151742
    10  H    0.156117
    11  C   -0.300448
    12  C   -0.299727
    13  C   -0.475363
    14  H    0.145901
    15  H    0.158158
    16  H    0.148430
    17  H    0.151521
    18  H    0.160334
    19  H    0.155397
    20  H    0.157944
    21  C   -0.170640
    22  C   -0.218294
    23  C   -0.172774
    24  C    0.159924
    25  C   -0.172319
    26  C   -0.218657
    27  H    0.226107
    28  H    0.223875
    29  H    0.276129
    30  H    0.278467
    31  H    0.224761
    32  N    0.489556
    33  O   -0.459988
    34  O   -0.460481
 Sum of Mulliken charges =  -0.00000

 Dipole moment (field-independent basis, Debye):
    X=              1.2949    Y=              3.0584    Z=             -3.8606  Tot=              5.0926
 Quadrupole moment (field-independent basis, Debye-Ang):
   XX=            -89.7901   YY=            -94.9880   ZZ=            -95.6008
   XY=              5.3010   XZ=             -9.1921   YZ=              4.2641

 Normal termination of Gaussian 16 at Thu May  6 10:23:43 2021.
