 Gaussian 16, Revision A.03,
 Gaussian 16:  EM64L-G16RevA.03 25-Dec-2016

 -------------
 #p 6-31g* mp2
 -------------

 ------------------------------------------------------
 Input file generated by CHIRIPA (05-May-2021 14:51:12)
 ------------------------------------------------------
 Symbolic Z-matrix:
 Charge =  0 Multiplicity = 1

                         Standard orientation:
 ---------------------------------------------------------------------
 Center     Atomic      Atomic             Coordinates (Angstroms)
 Number     Number       Type             X           Y           Z
 ---------------------------------------------------------------------
      1          6           0        4.068472   -0.661776    0.040661
      2          6           0        5.390426   -0.089627   -0.472242
      3          6           0        6.344879   -1.170626   -0.980428
      4          1           0        4.274909   -1.379090    0.846757
      5          1           0        3.584853   -1.229269   -0.766470
      6          1           0        5.870744    0.477776    0.335201
      7          1           0        5.180806    0.626551   -1.277081
      8          1           0        5.889270   -1.730968   -1.803252
      9          1           0        6.583128   -1.880588   -0.181809
     10          1           0        7.283534   -0.739562   -1.342326
     11          6           0        3.103760    0.406640    0.552075
     12          6           0        1.781807   -0.165510    1.064978
     13          6           0        0.827354    0.915490    1.573164
     14          1           0        3.587379    0.974133    1.359206
     15          1           0        2.897324    1.123953   -0.254020
     16          1           0        1.991427   -0.881687    1.869817
     17          1           0        1.301489   -0.732913    0.257536
     18          1           0        0.589104    1.625452    0.774545
     19          1           0        1.282962    1.475832    2.395988
     20          1           0       -0.111301    0.484426    1.935063
     21          6           0       -3.629007   -0.626313   -0.411503
     22          6           0       -4.879936   -1.262249    0.195741
     23          6           0       -4.951477   -2.770795   -0.042931
     24          1           0       -3.609263   -0.829539   -1.490972
     25          1           0       -2.737828   -1.108415    0.013671
     26          1           0       -5.768472   -0.778145   -0.229423
     27          1           0       -4.896803   -1.057322    1.273858
     28          1           0       -4.082973   -3.271967    0.396531
     29          1           0       -4.959595   -2.991204   -1.115291
     30          1           0       -5.853511   -3.204917    0.399486
     31          6           0       -3.543226    0.881449   -0.181233
     32          6           0       -2.292296    1.517386   -0.788477
     33          6           0       -2.220756    3.025931   -0.549805
     34          1           0       -4.434406    1.363551   -0.606406
     35          1           0       -3.562969    1.084675    0.898236
     36          1           0       -2.275429    1.312459   -1.866594
     37          1           0       -1.403760    1.033282   -0.363313
     38          1           0       -2.212639    3.246340    0.522555
     39          1           0       -3.089260    3.527104   -0.989267
     40          1           0       -1.318722    3.460054   -0.992222
 ---------------------------------------------------------------------

 SCF Done:  E(RHF) =  -470.732838066     A.U. after   11 cycles
 E2 =    -0.1583119328D+01 EUMP2 =    -0.47231595739420D+03

 The electronic state is 1-A.
 Alpha  occ. eigenvalues --  -11.21659 -11.21619 -11.21587 -11.21475 -11.21436
 Alpha  occ. eigenvalues --  -11.21375 -11.21375 -11.21310 -11.21115 -11.21084
 Alpha  occ. eigenvalues --  -11.21062 -11.21032  -1.08468  -1.08389  -1.03592
 Alpha  occ. eigenvalues --   -1.03472  -0.96039  -0.95934  -0.87044  -0.86961
 Alpha  occ. eigenvalues --   -0.79666  -0.79526  -0.78277  -0.78205  -0.65179
 Alpha  occ. eigenvalues --   -0.64967  -0.61189  -0.60715  -0.59385  -0.59312
 Alpha  occ. eigenvalues --   -0.57648  -0.57551  -0.55431  -0.55108  -0.52723
 Alpha  occ. eigenvalues --   -0.52638  -0.52441  -0.52366  -0.50027  -0.49840
 Alpha  occ. eigenvalues --   -0.47953  -0.47858  -0.46776  -0.46455  -0.45839
 Alpha  occ. eigenvalues --   -0.45746  -0.45734  -0.45587  -0.43816  -0.43747
 Alpha virt. eigenvalues --    0.20874   0.23067   0.23681   0.24693   0.26362
 Alpha virt. eigenvalues --    0.26465   0.26927   0.27483   0.27985   0.29346
 Alpha virt. eigenvalues --    0.30876   0.31402   0.31771   0.31960   0.32033

 Mulliken charges:
               1
     1  C   -0.298380
     2  C   -0.299703
     3  C   -0.475735
     4  H    0.149685
     5  H    0.149713
     6  H    0.151960
     7  H    0.152019
     8  H    0.155254
     9  H    0.155194
    10  H    0.160323
    11  C   -0.298359
    12  C   -0.301588
    13  C   -0.480563
    14  H    0.149732
    15  H    0.149961
    16  H    0.152326
    17  H    0.152667
    18  H    0.160164
    19  H    0.156252
    20  H    0.159643
    21  C   -0.298517
    22  C   -0.299591
    23  C   -0.475700
    24  H    0.149548
    25  H    0.149183
    26  H    0.151977
    27  H    0.151850
    28  H    0.155133
    29  H    0.155120
    30  H    0.160214
    31  C   -0.297849
    32  C   -0.307938
    33  C   -0.475917
    34  H    0.149253
    35  H    0.149393
    36  H    0.150723
    37  H    0.162378
    38  H    0.156145
    39  H    0.155114
    40  H    0.158914
 Sum of Mulliken charges =  -0.00000

 Dipole moment (field-independent basis, Debye):
    X=              0.0388    Y=              0.0030    Z=              0.0149  Tot=              0.0417
 Quadrupole moment (field-independent basis, Debye-Ang):
   XX=            -85.1113   YY=            -86.4383   ZZ=            -83.3317
   XY=              0.2184   XZ=              1.0941   YZ=             -0.5505

 Normal termination of Gaussian 16 at Thu May  6 05:31:42 2021.
