 Gaussian 16, Revision A.03,
 Gaussian 16:  EM64L-G16RevA.03 25-Dec-2016

 -------------
 #p 6-31g* mp2
 -------------

 ------------------------------------------------------
 Input file generated by CHIRIPA (05-May-2021 14:55:24)
 ------------------------------------------------------
 Symbolic Z-matrix:
 Charge =  0 Multiplicity = 1

                         Standard orientation:
 ---------------------------------------------------------------------
 Center     Atomic      Atomic             Coordinates (Angstroms)
 Number     Number       Type             X           Y           Z
 ---------------------------------------------------------------------
      1          6           0        1.848676    1.919404    0.289852
      2          6           0        1.953990    1.153213   -0.875644
      3          6           0        2.898005    0.126083   -0.967224
      4          6           0        3.724365   -0.108585    0.130661
      5          6           0        3.643724    0.637394    1.305524
      6          6           0        2.692392    1.659507    1.374804
      7          1           0        1.112501    2.715355    0.352332
      8          1           0        1.300068    1.352807   -1.719796
      9          1           0        3.000964   -0.482427   -1.857467
     10          1           0        4.309478    0.414772    2.130526
     11          1           0        2.612850    2.252933    2.281206
     12          7           0        4.727624   -1.193307    0.045514
     13          8           0        5.443919   -1.380077    1.026674
     14          8           0        4.778687   -1.836202   -1.000773
     15          6           0       -5.113039   -0.605956   -0.106120
     16          6           0       -6.232887   -0.150258    0.829971
     17          6           0       -7.340825   -1.193499    0.978009
     18          1           0       -5.538626   -0.833499   -1.093056
     19          1           0       -4.685970   -1.544314    0.274000
     20          1           0       -6.656790    0.787689    0.448951
     21          1           0       -5.804555    0.076410    1.814740
     22          1           0       -6.938078   -2.128779    1.380061
     23          1           0       -7.795155   -1.413458    0.006512
     24          1           0       -8.131005   -0.847146    1.651445
     25          6           0       -3.998041    0.426269   -0.264298
     26          6           0       -2.878193   -0.029428   -1.200389
     27          6           0       -1.770254    1.013812   -1.348426
     28          1           0       -4.425109    1.364628   -0.644417
     29          1           0       -3.572454    0.653813    0.722638
     30          1           0       -3.306525   -0.256096   -2.185158
     31          1           0       -2.454290   -0.967375   -0.819369
     32          1           0       -1.315925    1.233772   -0.376930
     33          1           0       -2.173002    1.949093   -1.750479
     34          1           0       -0.980075    0.667459   -2.021863
 ---------------------------------------------------------------------

 SCF Done:  E(RHF) =  -669.534995780     A.U. after   15 cycles
 E2 =    -0.2091548368D+01 EUMP2 =    -0.67162654414883D+03

 The electronic state is 1-A.
 Alpha  occ. eigenvalues --  -20.60733 -20.60727 -15.85784 -11.31143 -11.27703
 Alpha  occ. eigenvalues --  -11.27682 -11.27424 -11.26728 -11.26659 -11.22306
 Alpha  occ. eigenvalues --  -11.22096 -11.21986 -11.21972 -11.21814 -11.21374
 Alpha  occ. eigenvalues --   -1.59808  -1.39362  -1.19307  -1.08978  -1.08703
 Alpha  occ. eigenvalues --   -1.04710  -1.04113  -0.96598  -0.95540  -0.87639
 Alpha  occ. eigenvalues --   -0.86094  -0.82374  -0.80195  -0.78759  -0.77423
 Alpha  occ. eigenvalues --   -0.72003  -0.71131  -0.70413  -0.65602  -0.64956
 Alpha  occ. eigenvalues --   -0.64739  -0.62103  -0.61494  -0.59962  -0.58187
 Alpha  occ. eigenvalues --   -0.55882  -0.55206  -0.53477  -0.53078  -0.52964
 Alpha  occ. eigenvalues --   -0.52620  -0.50513  -0.48761  -0.48758  -0.48499
 Alpha  occ. eigenvalues --   -0.47192  -0.46313  -0.46209  -0.44769  -0.44360
 Alpha  occ. eigenvalues --   -0.37269  -0.36295
 Alpha virt. eigenvalues --    0.05082   0.11294   0.16515   0.20663   0.22451
 Alpha virt. eigenvalues --    0.23917   0.25894   0.26102   0.26583   0.27547
 Alpha virt. eigenvalues --    0.28830   0.29504   0.31037   0.31626   0.32247

 Mulliken charges:
               1
     1  C   -0.173521
     2  C   -0.216362
     3  C   -0.173119
     4  C    0.158807
     5  C   -0.171413
     6  C   -0.218896
     7  H    0.226355
     8  H    0.228214
     9  H    0.275108
    10  H    0.275301
    11  H    0.223087
    12  N    0.488063
    13  O   -0.460616
    14  O   -0.460542
    15  C   -0.298942
    16  C   -0.299966
    17  C   -0.476038
    18  H    0.150758
    19  H    0.151276
    20  H    0.151925
    21  H    0.151943
    22  H    0.156176
    23  H    0.155821
    24  H    0.161133
    25  C   -0.299176
    26  C   -0.299434
    27  C   -0.480204
    28  H    0.149521
    29  H    0.149238
    30  H    0.154429
    31  H    0.156049
    32  H    0.154366
    33  H    0.155579
    34  H    0.155080
 Sum of Mulliken charges =  -0.00000

 Dipole moment (field-independent basis, Debye):
    X=             -3.7132    Y=              3.7789    Z=              0.3110  Tot=              5.3070
 Quadrupole moment (field-independent basis, Debye-Ang):
   XX=           -121.4253   YY=            -96.3780   ZZ=            -89.9216
   XY=             14.4695   XZ=              2.8744   YZ=              1.4703

 Normal termination of Gaussian 16 at Thu May  6 11:04:07 2021.
