 Gaussian 16, Revision A.03,
 Gaussian 16:  EM64L-G16RevA.03 25-Dec-2016

 -------------
 #p 6-31g* mp2
 -------------

 ------------------------------------------------------
 Input file generated by CHIRIPA (05-May-2021 14:57:27)
 ------------------------------------------------------
 Symbolic Z-matrix:
 Charge =  0 Multiplicity = 1

                         Standard orientation:
 ---------------------------------------------------------------------
 Center     Atomic      Atomic             Coordinates (Angstroms)
 Number     Number       Type             X           Y           Z
 ---------------------------------------------------------------------
      1          6           0        3.691954   -2.340780    0.298782
      2          6           0        2.440381   -1.928771    0.768181
      3          6           0        1.991018   -0.624541    0.541011
      4          6           0        2.822784    0.245375   -0.162339
      5          6           0        4.074842   -0.135260   -0.642711
      6          6           0        4.503758   -1.444290   -0.403927
      7          1           0        4.033088   -3.355802    0.479764
      8          1           0        1.807801   -2.622844    1.314212
      9          1           0        1.026580   -0.279230    0.893199
     10          1           0        4.683068    0.579313   -1.183880
     11          1           0        5.476216   -1.761501   -0.769643
     12          7           0        2.357886    1.628646   -0.408981
     13          8           0        3.109551    2.375890   -1.031286
     14          8           0        1.250638    1.939417    0.024676
     15          6           0       -1.885247    1.035090    2.178309
     16          6           0       -2.310912   -0.296923    2.211109
     17          6           0       -2.874270   -0.890394    1.077546
     18          6           0       -2.997449   -0.119146   -0.077137
     19          6           0       -2.582816    1.210240   -0.141186
     20          6           0       -2.022317    1.783101    1.004336
     21          1           0       -1.448727    1.488107    3.063533
     22          1           0       -2.205699   -0.880241    3.121447
     23          1           0       -3.212157   -1.919591    1.075260
     24          1           0       -2.700743    1.766396   -1.063249
     25          1           0       -1.692617    2.817768    0.975962
     26          7           0       -3.592339   -0.736518   -1.283519
     27          8           0       -3.689845   -0.035666   -2.288475
     28          8           0       -3.949843   -1.909576   -1.201284
 ---------------------------------------------------------------------

 SCF Done:  E(RHF) =  -868.339303531     A.U. after   16 cycles
 E2 =    -0.2600525304D+01 EUMP2 =    -0.87093982883474D+03

 The electronic state is 1-A.
 Alpha  occ. eigenvalues --  -20.61221 -20.61172 -20.60556 -20.60531 -15.86245
 Alpha  occ. eigenvalues --  -15.85593 -11.31440 -11.30890 -11.27998 -11.27967
 Alpha  occ. eigenvalues --  -11.27723 -11.27505 -11.27280 -11.27134 -11.26987
 Alpha  occ. eigenvalues --  -11.26973 -11.26592 -11.26251  -1.60273  -1.59623
 Alpha  occ. eigenvalues --   -1.39832  -1.39177  -1.19605  -1.19046  -1.09035
 Alpha  occ. eigenvalues --   -1.08456  -1.04985  -1.04406  -0.95897  -0.95299
 Alpha  occ. eigenvalues --   -0.86391  -0.85807  -0.82741  -0.82111  -0.77804
 Alpha  occ. eigenvalues --   -0.77171  -0.72494  -0.71811  -0.71583  -0.70947
 Alpha  occ. eigenvalues --   -0.70711  -0.70135  -0.65267  -0.64993  -0.64680
 Alpha  occ. eigenvalues --   -0.64377  -0.62336  -0.61734  -0.55499  -0.54914
 Alpha  occ. eigenvalues --   -0.53324  -0.53153  -0.52688  -0.52471  -0.49232
 Alpha  occ. eigenvalues --   -0.49215  -0.48573  -0.48560  -0.45280  -0.44597
 Alpha  occ. eigenvalues --   -0.37582  -0.37040  -0.36581  -0.35956
 Alpha virt. eigenvalues --    0.04690   0.05358   0.11073   0.11655   0.16225
 Alpha virt. eigenvalues --    0.16863   0.21144   0.21856   0.27011   0.27761
 Alpha virt. eigenvalues --    0.28029   0.28684   0.30677   0.31381   0.32086

 Mulliken charges:
               1
     1  C   -0.169696
     2  C   -0.219148
     3  C   -0.174068
     4  C    0.157168
     5  C   -0.170073
     6  C   -0.218745
     7  H    0.226666
     8  H    0.222777
     9  H    0.278214
    10  H    0.275947
    11  H    0.224484
    12  N    0.491700
    13  O   -0.458429
    14  O   -0.470407
    15  C   -0.177700
    16  C   -0.225846
    17  C   -0.176497
    18  C    0.156997
    19  C   -0.170791
    20  C   -0.199755
    21  H    0.226392
    22  H    0.219214
    23  H    0.272034
    24  H    0.278436
    25  H    0.235394
    26  N    0.488007
    27  O   -0.458464
    28  O   -0.463813
 Sum of Mulliken charges =  -0.00000

 Dipole moment (field-independent basis, Debye):
    X=              3.8578    Y=             -2.4110    Z=              5.0055  Tot=              6.7639
 Quadrupole moment (field-independent basis, Debye-Ang):
   XX=           -105.4676   YY=           -104.1583   ZZ=           -104.7306
   XY=            -19.6641   XZ=            -13.4287   YZ=             -2.4885

 Normal termination of Gaussian 16 at Thu May  6 13:10:59 2021.
