 Gaussian 16, Revision A.03,
 Gaussian 16:  EM64L-G16RevA.03 25-Dec-2016

 -------------
 #p 6-31g* mp2
 -------------

 ------------------------------------------------------
 Input file generated by CHIRIPA (05-May-2021 14:55:21)
 ------------------------------------------------------
 Symbolic Z-matrix:
 Charge =  0 Multiplicity = 1

                         Standard orientation:
 ---------------------------------------------------------------------
 Center     Atomic      Atomic             Coordinates (Angstroms)
 Number     Number       Type             X           Y           Z
 ---------------------------------------------------------------------
      1          6           0        5.034099   -1.310487   -0.338616
      2          6           0        5.323077    0.056257   -0.267752
      3          6           0        4.297531    0.990854   -0.096482
      4          6           0        2.988464    0.521603    0.000663
      5          6           0        2.668577   -0.833566   -0.066252
      6          6           0        3.710106   -1.750262   -0.237818
      7          1           0        5.836976   -2.029551   -0.471778
      8          1           0        6.350377    0.400668   -0.345730
      9          1           0        4.493037    2.054723   -0.038366
     10          1           0        1.634708   -1.146590    0.014679
     11          1           0        3.482725   -2.811088   -0.292511
     12          7           0        1.894305    1.501543    0.182136
     13          8           0        0.749293    1.062550    0.265020
     14          8           0        2.202432    2.690058    0.238053
     15          6           0       -3.451928   -0.847266   -0.225623
     16          6           0       -2.423085   -1.174520    0.857137
     17          6           0       -1.220303   -1.947590    0.315406
     18          1           0       -3.794276   -1.781444   -0.691517
     19          1           0       -2.965857   -0.262297   -1.018681
     20          1           0       -2.911284   -1.757518    1.648587
     21          1           0       -2.083288   -0.239468    1.320637
     22          1           0       -0.707485   -1.368644   -0.459475
     23          1           0       -1.540184   -2.895319   -0.129663
     24          1           0       -0.497407   -2.171044    1.106197
     25          6           0       -4.660188   -0.074582    0.300492
     26          6           0       -5.689031    0.252671   -0.782269
     27          6           0       -6.891813    1.025741   -0.240538
     28          1           0       -5.146259   -0.659552    1.093550
     29          1           0       -4.317840    0.859595    0.766384
     30          1           0       -6.028827   -0.682380   -1.245769
     31          1           0       -5.200832    0.835668   -1.573718
     32          1           0       -6.571930    1.973470    0.204532
     33          1           0       -7.404630    0.446795    0.534344
     34          1           0       -7.614707    1.249195   -1.031329
 ---------------------------------------------------------------------

 SCF Done:  E(RHF) =  -669.535721079     A.U. after   15 cycles
 E2 =    -0.2092124589D+01 EUMP2 =    -0.67162784566758D+03

 The electronic state is 1-A.
 Alpha  occ. eigenvalues --  -20.60865 -20.60845 -15.85899 -11.31177 -11.27761
 Alpha  occ. eigenvalues --  -11.27670 -11.27496 -11.26763 -11.26734 -11.21078
 Alpha  occ. eigenvalues --  -11.20928 -11.20783 -11.20761 -11.20714 -11.20604
 Alpha  occ. eigenvalues --   -1.59928  -1.39484  -1.19354  -1.08770  -1.07828
 Alpha  occ. eigenvalues --   -1.04745  -1.02997  -0.95651  -0.95465  -0.86557
 Alpha  occ. eigenvalues --   -0.86134  -0.82449  -0.79087  -0.77646  -0.77490
 Alpha  occ. eigenvalues --   -0.72135  -0.71242  -0.70471  -0.65018  -0.64775
 Alpha  occ. eigenvalues --   -0.64412  -0.62132  -0.60332  -0.58870  -0.57102
 Alpha  occ. eigenvalues --   -0.55285  -0.54752  -0.53084  -0.52892  -0.52176
 Alpha  occ. eigenvalues --   -0.51923  -0.49471  -0.48874  -0.48800  -0.47396
 Alpha  occ. eigenvalues --   -0.46043  -0.45193  -0.45091  -0.44869  -0.43265
 Alpha  occ. eigenvalues --   -0.37343  -0.36345
 Alpha virt. eigenvalues --    0.04997   0.11281   0.16511   0.21189   0.23495
 Alpha virt. eigenvalues --    0.24595   0.26699   0.27325   0.27907   0.28135
 Alpha virt. eigenvalues --    0.29467   0.31090   0.31695   0.31866   0.32280

 Mulliken charges:
               1
     1  C   -0.170097
     2  C   -0.219343
     3  C   -0.169799
     4  C    0.154103
     5  C   -0.177284
     6  C   -0.223396
     7  H    0.225573
     8  H    0.223320
     9  H    0.275349
    10  H    0.292475
    11  H    0.224342
    12  N    0.490013
    13  O   -0.465845
    14  O   -0.459648
    15  C   -0.299699
    16  C   -0.299336
    17  C   -0.483443
    18  H    0.144781
    19  H    0.155344
    20  H    0.147274
    21  H    0.169355
    22  H    0.165398
    23  H    0.149491
    24  H    0.152071
    25  C   -0.299014
    26  C   -0.299481
    27  C   -0.475587
    28  H    0.146971
    29  H    0.154383
    30  H    0.149591
    31  H    0.153214
    32  H    0.156464
    33  H    0.153794
    34  H    0.158667
 Sum of Mulliken charges =  -0.00000

 Dipole moment (field-independent basis, Debye):
    X=              3.9061    Y=             -3.2798    Z=             -0.6278  Tot=              5.1389
 Quadrupole moment (field-independent basis, Debye-Ang):
   XX=            -70.9910   YY=            -95.8704   ZZ=            -95.7412
   XY=             -5.0739   XZ=             -1.9714   YZ=             -0.5794

 Normal termination of Gaussian 16 at Wed May  5 22:13:18 2021.
