 Gaussian 16, Revision A.03,
 Gaussian 16:  EM64L-G16RevA.03 25-Dec-2016

 -------------
 #p 6-31g* mp2
 -------------

 ------------------------------------------------------
 Input file generated by CHIRIPA (05-May-2021 14:51:11)
 ------------------------------------------------------
 Symbolic Z-matrix:
 Charge =  0 Multiplicity = 1

                         Standard orientation:
 ---------------------------------------------------------------------
 Center     Atomic      Atomic             Coordinates (Angstroms)
 Number     Number       Type             X           Y           Z
 ---------------------------------------------------------------------
      1          6           0       -3.821516   -0.716028   -0.181102
      2          6           0       -4.518127    0.627938   -0.396678
      3          6           0       -5.940577    0.476600   -0.936610
      4          1           0       -3.797797   -1.266171   -1.131746
      5          1           0       -4.416751   -1.322006    0.515950
      6          1           0       -3.921043    1.231741   -1.092040
      7          1           0       -4.540020    1.175027    0.554548
      8          1           0       -6.556492   -0.103932   -0.242180
      9          1           0       -5.933999   -0.046896   -1.898124
     10          1           0       -6.419940    1.449510   -1.083299
     11          6           0       -2.398671   -0.581233    0.358409
     12          6           0       -1.702059   -1.925198    0.573985
     13          6           0       -0.279609   -1.773860    1.113917
     14          1           0       -1.803435    0.024745   -0.338642
     15          1           0       -2.422389   -0.031089    1.309053
     16          1           0       -1.680167   -2.472288   -0.377241
     17          1           0       -2.299143   -2.529001    1.269347
     18          1           0       -0.286187   -1.250364    2.075431
     19          1           0        0.336306   -1.193328    0.419488
     20          1           0        0.199754   -2.746770    1.260607
     21          6           0        3.333477   -0.077649   -0.166438
     22          6           0        4.792399   -0.220046   -0.601471
     23          6           0        5.224458   -1.678890   -0.752777
     24          1           0        3.188411   -0.605207    0.786233
     25          1           0        2.688310   -0.577696   -0.902039
     26          1           0        5.434523    0.281313    0.134010
     27          1           0        4.934052    0.308074   -1.553122
     28          1           0        4.608306   -2.187498   -1.501293
     29          1           0        5.111619   -2.214411    0.195424
     30          1           0        6.270684   -1.757485   -1.064376
     31          6           0        2.886709    1.374909   -0.010869
     32          6           0        1.427788    1.517307    0.424164
     33          6           0        0.995729    2.976151    0.575470
     34          1           0        3.531877    1.874956    0.724732
     35          1           0        3.031776    1.902467   -0.963541
     36          1           0        1.286134    0.989186    1.375814
     37          1           0        0.785663    1.015948   -0.311318
     38          1           0        1.108567    3.511672   -0.372732
     39          1           0        1.611880    3.484758    1.323986
     40          1           0       -0.050497    3.054745    0.887069
 ---------------------------------------------------------------------

 SCF Done:  E(RHF) =  -470.731825509     A.U. after   11 cycles
 E2 =    -0.1584380361D+01 EUMP2 =    -0.47231620586957D+03

 The electronic state is 1-A.
 Alpha  occ. eigenvalues --  -11.21596 -11.21593 -11.21531 -11.21529 -11.21392
 Alpha  occ. eigenvalues --  -11.21381 -11.21332 -11.21320 -11.21065 -11.21062
 Alpha  occ. eigenvalues --  -11.21030 -11.20861  -1.08451  -1.08372  -1.03549
 Alpha  occ. eigenvalues --   -1.03445  -0.95965  -0.95926  -0.87006  -0.86926
 Alpha  occ. eigenvalues --   -0.79745  -0.79450  -0.78383  -0.78034  -0.65122
 Alpha  occ. eigenvalues --   -0.64970  -0.60987  -0.60815  -0.59445  -0.59204
 Alpha  occ. eigenvalues --   -0.57578  -0.57542  -0.55255  -0.55223  -0.52721
 Alpha  occ. eigenvalues --   -0.52619  -0.52442  -0.52267  -0.49921  -0.49880
 Alpha  occ. eigenvalues --   -0.48233  -0.47631  -0.46816  -0.46516  -0.46008
 Alpha  occ. eigenvalues --   -0.45801  -0.45583  -0.45105  -0.43758  -0.43738
 Alpha virt. eigenvalues --    0.21506   0.23114   0.23734   0.24541   0.25185
 Alpha virt. eigenvalues --    0.25951   0.26852   0.27231   0.28479   0.29607
 Alpha virt. eigenvalues --    0.30413   0.31496   0.31702   0.31935   0.32102

 Mulliken charges:
               1
     1  C   -0.298099
     2  C   -0.299605
     3  C   -0.475671
     4  H    0.149434
     5  H    0.149627
     6  H    0.151768
     7  H    0.151823
     8  H    0.155201
     9  H    0.155121
    10  H    0.160218
    11  C   -0.300486
    12  C   -0.299939
    13  C   -0.481833
    14  H    0.151428
    15  H    0.149395
    16  H    0.151053
    17  H    0.151254
    18  H    0.153169
    19  H    0.167033
    20  H    0.158515
    21  C   -0.300598
    22  C   -0.299519
    23  C   -0.475639
    24  H    0.152236
    25  H    0.149062
    26  H    0.152006
    27  H    0.151756
    28  H    0.155083
    29  H    0.155415
    30  H    0.160168
    31  C   -0.297761
    32  C   -0.304685
    33  C   -0.475610
    34  H    0.149404
    35  H    0.149031
    36  H    0.156916
    37  H    0.153097
    38  H    0.154486
    39  H    0.154844
    40  H    0.160903
 Sum of Mulliken charges =  -0.00000

 Dipole moment (field-independent basis, Debye):
    X=              0.0340    Y=              0.0152    Z=              0.0087  Tot=              0.0383
 Quadrupole moment (field-independent basis, Debye-Ang):
   XX=            -85.9491   YY=            -85.9774   ZZ=            -83.0699
   XY=              0.4572   XZ=             -0.3321   YZ=             -0.1153

 Normal termination of Gaussian 16 at Wed May  5 23:07:26 2021.
