 Gaussian 16, Revision A.03,
 Gaussian 16:  EM64L-G16RevA.03 25-Dec-2016

 -------------
 #p 6-31g* mp2
 -------------

 ------------------------------------------------------
 Input file generated by CHIRIPA (05-May-2021 14:57:25)
 ------------------------------------------------------
 Symbolic Z-matrix:
 Charge =  0 Multiplicity = 1

                         Standard orientation:
 ---------------------------------------------------------------------
 Center     Atomic      Atomic             Coordinates (Angstroms)
 Number     Number       Type             X           Y           Z
 ---------------------------------------------------------------------
      1          6           0        4.867469    1.284487    0.124379
      2          6           0        3.531947    1.698595    0.162033
      3          6           0        2.496160    0.767203    0.042867
      4          6           0        2.833481   -0.576331   -0.113399
      5          6           0        4.154350   -1.020056   -0.154686
      6          6           0        5.173867   -0.071127   -0.033582
      7          1           0        5.665774    2.014826    0.217703
      8          1           0        3.291030    2.750727    0.284604
      9          1           0        1.453646    1.060317    0.068689
     10          1           0        4.363275   -2.075789   -0.277958
     11          1           0        6.210150   -0.395609   -0.063173
     12          7           0        1.745552   -1.571637   -0.240581
     13          8           0        2.069102   -2.749453   -0.377335
     14          8           0        0.589882   -1.155096   -0.201104
     15          6           0       -1.405416    2.357092    0.098881
     16          6           0       -2.373190    2.252139   -0.905569
     17          6           0       -3.268981    1.178862   -0.919073
     18          6           0       -3.168180    0.224277    0.091815
     19          6           0       -2.214983    0.301028    1.106120
     20          6           0       -1.329535    1.382919    1.099755
     21          1           0       -0.713561    3.194186    0.101653
     22          1           0       -2.434452    3.007216   -1.684127
     23          1           0       -4.027925    1.073067   -1.684730
     24          1           0       -2.178473   -0.467269    1.868882
     25          1           0       -0.578966    1.461854    1.881076
     26          7           0       -4.111039   -0.916513    0.088036
     27          8           0       -4.001499   -1.744333    0.989898
     28          8           0       -4.941737   -0.961244   -0.816715
 ---------------------------------------------------------------------

 SCF Done:  E(RHF) =  -868.336121298     A.U. after   16 cycles
 E2 =    -0.2602576648D+01 EUMP2 =    -0.87093869794599D+03

 The electronic state is 1-A.
 Alpha  occ. eigenvalues --  -20.61125 -20.61093 -20.60086 -20.60062 -15.86165
 Alpha  occ. eigenvalues --  -15.85134 -11.31651 -11.30580 -11.28239 -11.28201
 Alpha  occ. eigenvalues --  -11.27990 -11.27326 -11.27230 -11.27216 -11.27159
 Alpha  occ. eigenvalues --  -11.27151 -11.26330 -11.26322  -1.60191  -1.59141
 Alpha  occ. eigenvalues --   -1.39742  -1.38695  -1.19836  -1.18802  -1.09206
 Alpha  occ. eigenvalues --   -1.08242  -1.05266  -1.04231  -0.96023  -0.95045
 Alpha  occ. eigenvalues --   -0.86657  -0.85673  -0.82863  -0.81871  -0.77902
 Alpha  occ. eigenvalues --   -0.76854  -0.72398  -0.71524  -0.71373  -0.70944
 Alpha  occ. eigenvalues --   -0.70441  -0.70036  -0.65490  -0.65295  -0.64506
 Alpha  occ. eigenvalues --   -0.64320  -0.62617  -0.61581  -0.55745  -0.54895
 Alpha  occ. eigenvalues --   -0.53580  -0.53410  -0.52456  -0.52377  -0.49153
 Alpha  occ. eigenvalues --   -0.49119  -0.48136  -0.48101  -0.45131  -0.44082
 Alpha  occ. eigenvalues --   -0.37814  -0.36878  -0.36854  -0.35702
 Alpha virt. eigenvalues --    0.04600   0.05715   0.10736   0.11701   0.16102
 Alpha virt. eigenvalues --    0.17100   0.20254   0.22037   0.26229   0.27397
 Alpha virt. eigenvalues --    0.28049   0.29551   0.30555   0.31280   0.32209

 Mulliken charges:
               1
     1  C   -0.170129
     2  C   -0.221262
     3  C   -0.178035
     4  C    0.155487
     5  C   -0.169297
     6  C   -0.218739
     7  H    0.226522
     8  H    0.219218
     9  H    0.279704
    10  H    0.277724
    11  H    0.225327
    12  N    0.489132
    13  O   -0.456790
    14  O   -0.463327
    15  C   -0.177905
    16  C   -0.217211
    17  C   -0.169594
    18  C    0.160464
    19  C   -0.150376
    20  C   -0.214064
    21  H    0.214998
    22  H    0.220105
    23  H    0.274618
    24  H    0.278176
    25  H    0.217081
    26  N    0.488715
    27  O   -0.457669
    28  O   -0.462874
 Sum of Mulliken charges =  -0.00000

 Dipole moment (field-independent basis, Debye):
    X=              7.1118    Y=              7.1231    Z=              0.4817  Tot=             10.0772
 Quadrupole moment (field-independent basis, Debye-Ang):
   XX=           -101.2172   YY=           -105.2809   ZZ=           -102.6138
   XY=             -7.8230   XZ=              2.6117   YZ=             -1.7475

 Normal termination of Gaussian 16 at Wed May  5 17:59:11 2021.
