 Gaussian 16, Revision A.03,
 Gaussian 16:  EM64L-G16RevA.03 25-Dec-2016

 -------------
 #p 6-31g* mp2
 -------------

 ------------------------------------------------------
 Input file generated by CHIRIPA (05-May-2021 14:55:19)
 ------------------------------------------------------
 Symbolic Z-matrix:
 Charge =  0 Multiplicity = 1

                         Standard orientation:
 ---------------------------------------------------------------------
 Center     Atomic      Atomic             Coordinates (Angstroms)
 Number     Number       Type             X           Y           Z
 ---------------------------------------------------------------------
      1          6           0       -0.917877   -1.864987    1.518127
      2          6           0       -0.493314   -1.682007    0.197981
      3          6           0       -1.264934   -0.937664   -0.699294
      4          6           0       -2.461096   -0.388002   -0.240646
      5          6           0       -2.911025   -0.552545    1.068468
      6          6           0       -2.123253   -1.300667    1.948399
      7          1           0       -0.312191   -2.444678    2.208415
      8          1           0        0.442354   -2.119101   -0.138944
      9          1           0       -0.960009   -0.780333   -1.726760
     10          1           0       -3.848407   -0.104564    1.375136
     11          1           0       -2.455465   -1.441128    2.973070
     12          7           0       -3.286526    0.402000   -1.181370
     13          8           0       -4.336410    0.875899   -0.752651
     14          8           0       -2.867984    0.532347   -2.329616
     15          6           0        3.315594   -0.020674    0.091313
     16          6           0        4.420402   -0.121316   -0.960950
     17          6           0        5.090178   -1.495580   -0.985295
     18          1           0        3.739132   -0.241312    1.080696
     19          1           0        2.560329   -0.794266   -0.104963
     20          1           0        5.172659    0.653128   -0.763566
     21          1           0        3.994225    0.099774   -1.947920
     22          1           0        4.356442   -2.277900   -1.204859
     23          1           0        5.541572   -1.721401   -0.013775
     24          1           0        5.876772   -1.545429   -1.744667
     25          6           0        2.636547    1.347277    0.127831
     26          6           0        1.531740    1.447919    1.180094
     27          6           0        0.861964    2.822183    1.204439
     28          1           0        3.391812    2.120869    0.324107
     29          1           0        2.213011    1.567914   -0.861553
     30          1           0        1.957916    1.226829    2.167063
     31          1           0        0.779483    0.673474    0.982709
     32          1           0        0.410571    3.048003    0.232919
     33          1           0        1.595699    3.604502    1.424002
     34          1           0        0.075370    2.872031    1.963810
 ---------------------------------------------------------------------

 SCF Done:  E(RHF) =  -669.534312744     A.U. after   15 cycles
 E2 =    -0.2094174578D+01 EUMP2 =    -0.67162848732202D+03

 The electronic state is 1-A.
 Alpha  occ. eigenvalues --  -20.60844 -20.60838 -15.85898 -11.31301 -11.27862
 Alpha  occ. eigenvalues --  -11.27858 -11.27586 -11.26878 -11.26850 -11.22094
 Alpha  occ. eigenvalues --  -11.21981 -11.21700 -11.21623 -11.21613 -11.21116
 Alpha  occ. eigenvalues --   -1.59918  -1.39470  -1.19481  -1.08891  -1.08800
 Alpha  occ. eigenvalues --   -1.04890  -1.03848  -0.96325  -0.95685  -0.87333
 Alpha  occ. eigenvalues --   -0.86276  -0.82521  -0.79938  -0.78658  -0.77559
 Alpha  occ. eigenvalues --   -0.72115  -0.71242  -0.70560  -0.65546  -0.65120
 Alpha  occ. eigenvalues --   -0.64840  -0.62226  -0.61275  -0.59705  -0.57934
 Alpha  occ. eigenvalues --   -0.55644  -0.55353  -0.53327  -0.53015  -0.52925
 Alpha  occ. eigenvalues --   -0.52710  -0.50258  -0.48879  -0.48868  -0.48234
 Alpha  occ. eigenvalues --   -0.46970  -0.46165  -0.46081  -0.44867  -0.44129
 Alpha  occ. eigenvalues --   -0.37406  -0.36401
 Alpha virt. eigenvalues --    0.04960   0.11071   0.16370   0.20135   0.22902
 Alpha virt. eigenvalues --    0.23819   0.25342   0.26703   0.27489   0.28317
 Alpha virt. eigenvalues --    0.29191   0.30387   0.31329   0.31741   0.31899

 Mulliken charges:
               1
     1  C   -0.169175
     2  C   -0.222406
     3  C   -0.171870
     4  C    0.160253
     5  C   -0.170790
     6  C   -0.217748
     7  H    0.227007
     8  H    0.227119
     9  H    0.275834
    10  H    0.276167
    11  H    0.224158
    12  N    0.488099
    13  O   -0.459895
    14  O   -0.460367
    15  C   -0.299361
    16  C   -0.300007
    17  C   -0.475155
    18  H    0.149530
    19  H    0.138955
    20  H    0.155022
    21  H    0.153387
    22  H    0.150165
    23  H    0.155435
    24  H    0.163196
    25  C   -0.298154
    26  C   -0.310249
    27  C   -0.475591
    28  H    0.151277
    29  H    0.151007
    30  H    0.146988
    31  H    0.164216
    32  H    0.158612
    33  H    0.154719
    34  H    0.159622
 Sum of Mulliken charges =  -0.00000

 Dipole moment (field-independent basis, Debye):
    X=              2.8411    Y=             -2.7665    Z=              3.3135  Tot=              5.1677
 Quadrupole moment (field-independent basis, Debye-Ang):
   XX=           -106.8793   YY=            -93.9895   ZZ=            -93.6099
   XY=              6.0349   XZ=            -11.3910   YZ=             -0.1053

 Normal termination of Gaussian 16 at Wed May  5 17:21:15 2021.
