 Gaussian 16, Revision A.03,
 Gaussian 16:  EM64L-G16RevA.03 25-Dec-2016

 -------------
 #p 6-31g* mp2
 -------------

 ------------------------------------------------------
 Input file generated by CHIRIPA (05-May-2021 14:51:09)
 ------------------------------------------------------
 Symbolic Z-matrix:
 Charge =  0 Multiplicity = 1

                         Standard orientation:
 ---------------------------------------------------------------------
 Center     Atomic      Atomic             Coordinates (Angstroms)
 Number     Number       Type             X           Y           Z
 ---------------------------------------------------------------------
      1          6           0       -1.796349   -1.332773   -0.131475
      2          6           0       -1.400022   -2.321520    0.965471
      3          6           0       -0.095988   -3.057106    0.655305
      4          1           0       -1.895224   -1.871639   -1.083732
      5          1           0       -0.986195   -0.603093   -0.267901
      6          1           0       -2.211270   -3.048288    1.100745
      7          1           0       -1.302266   -1.780270    1.915265
      8          1           0        0.729180   -2.346755    0.540857
      9          1           0       -0.184989   -3.621977   -0.278290
     10          1           0        0.168524   -3.758807    1.452494
     11          6           0       -3.097911   -0.589632    0.164171
     12          6           0       -3.494239    0.399114   -0.932775
     13          6           0       -4.798272    1.134701   -0.622610
     14          1           0       -3.908065   -1.319312    0.300596
     15          1           0       -2.999036   -0.050767    1.116427
     16          1           0       -3.591995   -0.142135   -1.882569
     17          1           0       -2.682990    1.125883   -1.068050
     18          1           0       -4.709271    1.699572    0.310986
     19          1           0       -5.623441    0.424350   -0.508162
     20          1           0       -5.062784    1.836402   -1.419799
     21          6           0        1.833335    1.387059   -0.175513
     22          6           0        1.480362    2.379992    0.932402
     23          6           0        0.250194    3.224695    0.599300
     24          1           0        2.006734    1.937133   -1.110550
     25          1           0        0.972697    0.728057   -0.355553
     26          1           0        2.341897    3.036030    1.111256
     27          1           0        1.307969    1.827506    1.864956
     28          1           0       -0.624601    2.585676    0.441220
     29          1           0        0.415201    3.801067   -0.316762
     30          1           0        0.015759    3.927608    1.404790
     31          6           0        3.060925    0.535347    0.142818
     32          6           0        3.413899   -0.457587   -0.965098
     33          6           0        4.644067   -1.302290   -0.631995
     34          1           0        3.921564    1.194348    0.322857
     35          1           0        2.887526   -0.014728    1.077855
     36          1           0        3.586290    0.094899   -1.897652
     37          1           0        2.552363   -1.113625   -1.143951
     38          1           0        4.479060   -1.878662    0.284067
     39          1           0        5.518861   -0.663270   -0.473916
     40          1           0        4.878500   -2.005202   -1.437486
 ---------------------------------------------------------------------

 SCF Done:  E(RHF) =  -470.733260903     A.U. after   11 cycles
 E2 =    -0.1584395964D+01 EUMP2 =    -0.47231765686743D+03

 The electronic state is 1-A.
 Alpha  occ. eigenvalues --  -11.21668 -11.21660 -11.21627 -11.21602 -11.21453
 Alpha  occ. eigenvalues --  -11.21442 -11.21393 -11.21383 -11.21149 -11.21145
 Alpha  occ. eigenvalues --  -11.21077 -11.21060  -1.08509  -1.08448  -1.03582
 Alpha  occ. eigenvalues --   -1.03558  -0.96029  -0.96012  -0.87068  -0.87005
 Alpha  occ. eigenvalues --   -0.79649  -0.79616  -0.78408  -0.78182  -0.65371
 Alpha  occ. eigenvalues --   -0.64878  -0.61053  -0.60892  -0.59402  -0.59372
 Alpha  occ. eigenvalues --   -0.57669  -0.57590  -0.55357  -0.55270  -0.52717
 Alpha  occ. eigenvalues --   -0.52703  -0.52513  -0.52384  -0.50134  -0.49788
 Alpha  occ. eigenvalues --   -0.48025  -0.47895  -0.46740  -0.46709  -0.46268
 Alpha  occ. eigenvalues --   -0.45805  -0.45793  -0.45122  -0.43830  -0.43817
 Alpha virt. eigenvalues --    0.18847   0.21197   0.24420   0.24595   0.25141
 Alpha virt. eigenvalues --    0.26896   0.27085   0.27566   0.28157   0.29725
 Alpha virt. eigenvalues --    0.31219   0.31564   0.31625   0.31913   0.32158

 Mulliken charges:
               1
     1  C   -0.308886
     2  C   -0.298984
     3  C   -0.480384
     4  H    0.150123
     5  H    0.158193
     6  H    0.152501
     7  H    0.151678
     8  H    0.158527
     9  H    0.155700
    10  H    0.160729
    11  C   -0.297698
    12  C   -0.302735
    13  C   -0.475627
    14  H    0.149913
    15  H    0.149562
    16  H    0.152232
    17  H    0.154323
    18  H    0.155420
    19  H    0.155162
    20  H    0.160562
    21  C   -0.308824
    22  C   -0.299042
    23  C   -0.478844
    24  H    0.150240
    25  H    0.158166
    26  H    0.152478
    27  H    0.151597
    28  H    0.156739
    29  H    0.155747
    30  H    0.160695
    31  C   -0.298356
    32  C   -0.303087
    33  C   -0.475693
    34  H    0.149946
    35  H    0.149684
    36  H    0.152131
    37  H    0.155029
    38  H    0.155531
    39  H    0.155051
    40  H    0.160498
 Sum of Mulliken charges =  -0.00000

 Dipole moment (field-independent basis, Debye):
    X=             -0.0036    Y=             -0.0035    Z=             -0.0118  Tot=              0.0128
 Quadrupole moment (field-independent basis, Debye-Ang):
   XX=            -85.6994   YY=            -84.5136   ZZ=            -84.3656
   XY=              2.0009   XZ=             -0.0187   YZ=              0.0584

 Normal termination of Gaussian 16 at Thu May  6 03:42:59 2021.
