 Gaussian 16, Revision A.03,
 Gaussian 16:  EM64L-G16RevA.03 25-Dec-2016

 -------------
 #p 6-31g* mp2
 -------------

 ------------------------------------------------------
 Input file generated by CHIRIPA (05-May-2021 14:53:15)
 ------------------------------------------------------
 Symbolic Z-matrix:
 Charge =  0 Multiplicity = 1

                         Standard orientation:
 ---------------------------------------------------------------------
 Center     Atomic      Atomic             Coordinates (Angstroms)
 Number     Number       Type             X           Y           Z
 ---------------------------------------------------------------------
      1          6           0       -3.986370    0.984773   -0.160181
      2          6           0       -2.795839    1.861848    0.228867
      3          6           0       -3.102282    3.355965    0.121620
      4          1           0       -4.290445    1.225303   -1.188106
      5          1           0       -4.841136    1.231909    0.484562
      6          1           0       -1.943159    1.612162   -0.415500
      7          1           0       -2.494442    1.619068    1.255918
      8          1           0       -3.936337    3.626192    0.777311
      9          1           0       -3.381921    3.619247   -0.903604
     10          1           0       -2.237582    3.964440    0.404309
     11          6           0       -3.695521   -0.511458   -0.058069
     12          6           0       -4.886052   -1.388534   -0.447117
     13          6           0       -4.579610   -2.882650   -0.339870
     14          1           0       -2.840755   -0.758594   -0.702812
     15          1           0       -3.391447   -0.751988    0.969856
     16          1           0       -5.187449   -1.145753   -1.474168
     17          1           0       -5.738732   -1.138847    0.197250
     18          1           0       -4.299970   -3.145932    0.685354
     19          1           0       -3.745554   -3.152877   -0.995561
     20          1           0       -5.444309   -3.491125   -0.622559
     21          6           0        0.575309   -0.512123    0.698548
     22          6           0        1.036660    0.752328    0.317968
     23          6           0        2.378459    0.945274   -0.023935
     24          6           0        3.235220   -0.153253    0.025963
     25          6           0        2.805766   -1.425312    0.401094
     26          6           0        1.459774   -1.594998    0.738826
     27          1           0       -0.468661   -0.652972    0.962526
     28          1           0        0.352034    1.595119    0.285784
     29          1           0        2.762270    1.913353   -0.322143
     30          1           0        3.512067   -2.246316    0.423656
     31          1           0        1.104276   -2.578120    1.034015
     32          7           0        4.657941    0.038698   -0.333786
     33          8           0        5.392629   -0.945257   -0.281789
     34          8           0        5.011443    1.169468   -0.660944
 ---------------------------------------------------------------------

 SCF Done:  E(RHF) =  -669.535569965     A.U. after   15 cycles
 E2 =    -0.2092242131D+01 EUMP2 =    -0.67162781209526D+03

 The electronic state is 1-A.
 Alpha  occ. eigenvalues --  -20.60690 -20.60685 -15.85743 -11.31083 -11.27655
 Alpha  occ. eigenvalues --  -11.27641 -11.27328 -11.26651 -11.26591 -11.22914
 Alpha  occ. eigenvalues --  -11.22576 -11.22495 -11.22457 -11.22116 -11.21899
 Alpha  occ. eigenvalues --   -1.59767  -1.39321  -1.19248  -1.09547  -1.08638
 Alpha  occ. eigenvalues --   -1.04663  -1.04568  -0.97000  -0.95481  -0.88015
 Alpha  occ. eigenvalues --   -0.86049  -0.82317  -0.80686  -0.79409  -0.77370
 Alpha  occ. eigenvalues --   -0.71961  -0.71090  -0.70330  -0.66169  -0.64894
 Alpha  occ. eigenvalues --   -0.64665  -0.62101  -0.61882  -0.60365  -0.58640
 Alpha  occ. eigenvalues --   -0.56264  -0.55123  -0.53678  -0.53422  -0.52981
 Alpha  occ. eigenvalues --   -0.52747  -0.50926  -0.48985  -0.48718  -0.48694
 Alpha  occ. eigenvalues --   -0.47691  -0.46887  -0.46816  -0.44844  -0.44732
 Alpha  occ. eigenvalues --   -0.37213  -0.36256
 Alpha virt. eigenvalues --    0.05148   0.11315   0.16617   0.19804   0.22310
 Alpha virt. eigenvalues --    0.22936   0.24579   0.25596   0.25975   0.28190
 Alpha virt. eigenvalues --    0.29648   0.30393   0.30607   0.31227   0.31822

 Mulliken charges:
               1
     1  C   -0.297009
     2  C   -0.310035
     3  C   -0.476505
     4  H    0.154417
     5  H    0.153735
     6  H    0.150017
     7  H    0.149563
     8  H    0.159935
     9  H    0.159770
    10  H    0.159901
    11  C   -0.304133
    12  C   -0.299878
    13  C   -0.476974
    14  H    0.149981
    15  H    0.145275
    16  H    0.155528
    17  H    0.154744
    18  H    0.153865
    19  H    0.155523
    20  H    0.164318
    21  C   -0.177066
    22  C   -0.225005
    23  C   -0.171619
    24  C    0.158453
    25  C   -0.171033
    26  C   -0.219807
    27  H    0.233426
    28  H    0.230563
    29  H    0.275206
    30  H    0.275109
    31  H    0.223236
    32  N    0.488029
    33  O   -0.460775
    34  O   -0.460754
 Sum of Mulliken charges =  -0.00000

 Dipole moment (field-independent basis, Debye):
    X=             -5.3510    Y=             -0.6326    Z=              1.2029  Tot=              5.5209
 Quadrupole moment (field-independent basis, Debye-Ang):
   XX=           -126.4256   YY=            -90.6874   ZZ=            -94.4320
   XY=             -2.4919   XZ=              4.1089   YZ=             -1.1567

 Normal termination of Gaussian 16 at Wed May  5 21:53:58 2021.
