 Gaussian 16, Revision A.03,
 Gaussian 16:  EM64L-G16RevA.03 25-Dec-2016

 -------------
 #p 6-31g* mp2
 -------------

 ------------------------------------------------------
 Input file generated by CHIRIPA (05-May-2021 14:53:13)
 ------------------------------------------------------
 Symbolic Z-matrix:
 Charge =  0 Multiplicity = 1

                         Standard orientation:
 ---------------------------------------------------------------------
 Center     Atomic      Atomic             Coordinates (Angstroms)
 Number     Number       Type             X           Y           Z
 ---------------------------------------------------------------------
      1          6           0        2.691703   -0.139984   -0.091149
      2          6           0        3.562549   -0.973835   -1.031524
      3          6           0        3.764071   -2.406193   -0.536010
      4          1           0        3.152141   -0.123107    0.906175
      5          1           0        1.714955   -0.630037    0.023770
      6          1           0        4.536874   -0.481632   -1.145727
      7          1           0        3.100083   -0.988570   -2.026774
      8          1           0        2.801830   -2.919384   -0.439425
      9          1           0        4.246785   -2.409566    0.446628
     10          1           0        4.389511   -2.984483   -1.223225
     11          6           0        2.481094    1.294319   -0.572965
     12          6           0        1.610248    2.128170    0.367410
     13          6           0        1.408726    3.560528   -0.128104
     14          1           0        3.457842    1.784373   -0.687884
     15          1           0        2.020656    1.277442   -1.570289
     16          1           0        2.072714    2.142905    1.362661
     17          1           0        0.635922    1.635968    0.481613
     18          1           0        0.926011    3.563902   -1.110742
     19          1           0        2.370967    4.073720   -0.224688
     20          1           0        0.783286    4.138819    0.559111
     21          6           0       -0.418522   -1.044300    2.116053
     22          6           0       -1.083838    0.185993    2.132097
     23          6           0       -1.973726    0.525339    1.108627
     24          6           0       -2.175509   -0.393546    0.079927
     25          6           0       -1.527690   -1.627107    0.035808
     26          6           0       -0.642177   -1.945335    1.069803
     27          1           0        0.271065   -1.299710    2.915197
     28          1           0       -0.912092    0.887705    2.943360
     29          1           0       -2.502072    1.470916    1.096223
     30          1           0       -1.719410   -2.305985   -0.786254
     31          1           0       -0.126876   -2.901516    1.054741
     32          7           0       -3.115278   -0.045474   -1.009146
     33          8           0       -3.275728   -0.872424   -1.904157
     34          8           0       -3.673624    1.047706   -0.947129
 ---------------------------------------------------------------------

 SCF Done:  E(RHF) =  -669.533548210     A.U. after   15 cycles
 E2 =    -0.2095798090D+01 EUMP2 =    -0.67162934630039D+03

 The electronic state is 1-A.
 Alpha  occ. eigenvalues --  -20.60886 -20.60881 -15.85941 -11.31356 -11.27914
 Alpha  occ. eigenvalues --  -11.27892 -11.27603 -11.26919 -11.26882 -11.21906
 Alpha  occ. eigenvalues --  -11.21661 -11.21595 -11.21568 -11.21504 -11.21187
 Alpha  occ. eigenvalues --   -1.59962  -1.39513  -1.19539  -1.08924  -1.08634
 Alpha  occ. eigenvalues --   -1.04951  -1.03785  -0.96250  -0.95729  -0.87267
 Alpha  occ. eigenvalues --   -0.86317  -0.82563  -0.79862  -0.78498  -0.77602
 Alpha  occ. eigenvalues --   -0.72155  -0.71288  -0.70597  -0.65328  -0.65158
 Alpha  occ. eigenvalues --   -0.64911  -0.62272  -0.61206  -0.59631  -0.57874
 Alpha  occ. eigenvalues --   -0.55556  -0.55395  -0.53480  -0.53004  -0.52878
 Alpha  occ. eigenvalues --   -0.52688  -0.50208  -0.48920  -0.48910  -0.48213
 Alpha  occ. eigenvalues --   -0.46934  -0.46013  -0.45770  -0.44907  -0.44015
 Alpha  occ. eigenvalues --   -0.37404  -0.36406
 Alpha virt. eigenvalues --    0.04897   0.11005   0.16324   0.20672   0.22991
 Alpha virt. eigenvalues --    0.23536   0.26016   0.27058   0.27479   0.27831
 Alpha virt. eigenvalues --    0.28463   0.30088   0.31473   0.31755   0.31850

 Mulliken charges:
               1
     1  C   -0.307024
     2  C   -0.299310
     3  C   -0.474725
     4  H    0.142632
     5  H    0.158880
     6  H    0.152962
     7  H    0.154344
     8  H    0.147501
     9  H    0.153345
    10  H    0.162935
    11  C   -0.296995
    12  C   -0.308979
    13  C   -0.475238
    14  H    0.148908
    15  H    0.152184
    16  H    0.144027
    17  H    0.162706
    18  H    0.159408
    19  H    0.155146
    20  H    0.156508
    21  C   -0.165954
    22  C   -0.216512
    23  C   -0.174601
    24  C    0.161018
    25  C   -0.171664
    26  C   -0.221408
    27  H    0.227416
    28  H    0.225457
    29  H    0.276745
    30  H    0.276336
    31  H    0.225757
    32  N    0.488031
    33  O   -0.459976
    34  O   -0.459859
 Sum of Mulliken charges =  -0.00000

 Dipole moment (field-independent basis, Debye):
    X=              3.1529    Y=             -1.2626    Z=              3.8373  Tot=              5.1245
 Quadrupole moment (field-independent basis, Debye-Ang):
   XX=           -109.4844   YY=            -91.3864   ZZ=            -93.3148
   XY=              0.8652   XZ=             -8.4544   YZ=              0.8274

 Normal termination of Gaussian 16 at Thu May  6 04:09:16 2021.
