 Gaussian 16, Revision A.03,
 Gaussian 16:  EM64L-G16RevA.03 25-Dec-2016

 -------------
 #p 6-31g* mp2
 -------------

 ------------------------------------------------------
 Input file generated by CHIRIPA (05-May-2021 14:53:16)
 ------------------------------------------------------
 Symbolic Z-matrix:
 Charge =  0 Multiplicity = 1

                         Standard orientation:
 ---------------------------------------------------------------------
 Center     Atomic      Atomic             Coordinates (Angstroms)
 Number     Number       Type             X           Y           Z
 ---------------------------------------------------------------------
      1          6           0       -4.190938    0.152274    0.116010
      2          6           0       -5.205974   -0.064836   -1.006733
      3          6           0       -6.146749    1.126196   -1.191605
      4          1           0       -4.727860    0.346393    1.054614
      5          1           0       -3.602983    1.055021   -0.100210
      6          1           0       -5.790906   -0.967681   -0.789152
      7          1           0       -4.666574   -0.258650   -1.942735
      8          1           0       -5.579784    2.031100   -1.433059
      9          1           0       -6.710504    1.318040   -0.272922
     10          1           0       -6.864025    0.949658   -1.999200
     11          6           0       -3.243419   -1.029728    0.313005
     12          6           0       -2.228383   -0.812617    1.435747
     13          6           0       -1.287608   -2.003649    1.620619
     14          1           0       -3.831374   -1.932475    0.529225
     15          1           0       -2.706497   -1.223846   -0.625599
     16          1           0       -2.767783   -0.618803    2.371749
     17          1           0       -1.643451    0.090228    1.218167
     18          1           0       -0.723853   -2.195493    0.701937
     19          1           0       -1.854574   -2.908553    1.862074
     20          1           0       -0.570332   -1.827111    2.428214
     21          6           0        4.410849   -1.538965   -0.912296
     22          6           0        4.963304   -0.363372   -0.393360
     23          6           0        4.138023    0.685738    0.022369
     24          6           0        2.758373    0.524673   -0.095588
     25          6           0        2.177788   -0.634277   -0.608469
     26          6           0        3.022303   -1.670433   -1.018008
     27          1           0        5.059418   -2.348907   -1.232840
     28          1           0        6.041317   -0.258490   -0.310094
     29          1           0        4.539103    1.606716    0.427772
     30          1           0        1.099474   -0.709514   -0.679160
     31          1           0        2.590469   -2.582275   -1.420637
     32          7           0        1.874505    1.628462    0.341249
     33          8           0        0.662153    1.461815    0.226935
     34          8           0        2.410818    2.639358    0.789685
 ---------------------------------------------------------------------

 SCF Done:  E(RHF) =  -669.536100731     A.U. after   15 cycles
 E2 =    -0.2091677798D+01 EUMP2 =    -0.67162777852837D+03

 The electronic state is 1-A.
 Alpha  occ. eigenvalues --  -20.60939 -20.60923 -15.85972 -11.31263 -11.27829
 Alpha  occ. eigenvalues --  -11.27819 -11.27563 -11.26832 -11.26820 -11.21157
 Alpha  occ. eigenvalues --  -11.20909 -11.20876 -11.20807 -11.20774 -11.20642
 Alpha  occ. eigenvalues --   -1.59996  -1.39553  -1.19433  -1.08842  -1.07895
 Alpha  occ. eigenvalues --   -1.04826  -1.03051  -0.95694  -0.95547  -0.86572
 Alpha  occ. eigenvalues --   -0.86226  -0.82528  -0.79096  -0.77706  -0.77571
 Alpha  occ. eigenvalues --   -0.72204  -0.71308  -0.70546  -0.65095  -0.64843
 Alpha  occ. eigenvalues --   -0.64504  -0.62190  -0.60431  -0.58903  -0.57143
 Alpha  occ. eigenvalues --   -0.55344  -0.54858  -0.53157  -0.52916  -0.52250
 Alpha  occ. eigenvalues --   -0.51975  -0.49504  -0.48955  -0.48944  -0.47428
 Alpha  occ. eigenvalues --   -0.46107  -0.45281  -0.45204  -0.44832  -0.43296
 Alpha  occ. eigenvalues --   -0.37410  -0.36420
 Alpha virt. eigenvalues --    0.04915   0.11211   0.16406   0.20226   0.23060
 Alpha virt. eigenvalues --    0.24223   0.26462   0.27439   0.28140   0.28202
 Alpha virt. eigenvalues --    0.29169   0.30838   0.31526   0.32062   0.32407

 Mulliken charges:
               1
     1  C   -0.299976
     2  C   -0.299064
     3  C   -0.475672
     4  H    0.148950
     5  H    0.158174
     6  H    0.149542
     7  H    0.150202
     8  H    0.157181
     9  H    0.154816
    10  H    0.158127
    11  C   -0.295887
    12  C   -0.312914
    13  C   -0.472975
    14  H    0.145491
    15  H    0.143739
    16  H    0.150282
    17  H    0.181519
    18  H    0.140996
    19  H    0.153024
    20  H    0.161265
    21  C   -0.170491
    22  C   -0.218674
    23  C   -0.170645
    24  C    0.157584
    25  C   -0.172003
    26  C   -0.219218
    27  H    0.225979
    28  H    0.223709
    29  H    0.275669
    30  H    0.279227
    31  H    0.223950
    32  N    0.492219
    33  O   -0.465222
    34  O   -0.458902
 Sum of Mulliken charges =  -0.00000

 Dipole moment (field-independent basis, Debye):
    X=              3.2589    Y=             -3.6852    Z=             -1.4954  Tot=              5.1417
 Quadrupole moment (field-independent basis, Debye-Ang):
   XX=            -75.0027   YY=            -98.6213   ZZ=            -94.6107
   XY=             -6.3786   XZ=             -4.2337   YZ=              0.5204

 Normal termination of Gaussian 16 at Thu May  6 01:09:21 2021.
