 Gaussian 16, Revision A.03,
 Gaussian 16:  EM64L-G16RevA.03 25-Dec-2016

 -------------
 #p 6-31g* mp2
 -------------

 ------------------------------------------------------
 Input file generated by CHIRIPA (05-May-2021 14:55:19)
 ------------------------------------------------------
 Symbolic Z-matrix:
 Charge =  0 Multiplicity = 1

                         Standard orientation:
 ---------------------------------------------------------------------
 Center     Atomic      Atomic             Coordinates (Angstroms)
 Number     Number       Type             X           Y           Z
 ---------------------------------------------------------------------
      1          6           0        1.900693    2.055391    0.642295
      2          6           0        2.777528    1.968958   -0.444079
      3          6           0        3.434942    0.769229   -0.732186
      4          6           0        3.191089   -0.329317    0.090629
      5          6           0        2.323257   -0.274722    1.180205
      6          6           0        1.676750    0.935250    1.449547
      7          1           0        1.394234    2.991348    0.858815
      8          1           0        2.953363    2.837257   -1.072715
      9          1           0        4.118860    0.674502   -1.566872
     10          1           0        2.168183   -1.157320    1.788802
     11          1           0        0.996323    0.999460    2.293905
     12          7           0        3.881290   -1.604838   -0.204444
     13          8           0        3.649395   -2.558276    0.535702
     14          8           0        4.641095   -1.627001   -1.170281
     15          6           0       -3.297492    0.407728   -0.504967
     16          6           0       -2.798520    1.726145    0.087308
     17          6           0       -1.514362    2.224011   -0.576666
     18          1           0       -2.511650   -0.353237   -0.403331
     19          1           0       -3.467894    0.539094   -1.582511
     20          1           0       -2.630429    1.592714    1.163671
     21          1           0       -3.585713    2.484009   -0.015576
     22          1           0       -1.672068    2.385082   -1.648014
     23          1           0       -0.711356    1.488723   -0.462066
     24          1           0       -1.175407    3.167694   -0.137994
     25          6           0       -4.580487   -0.102844    0.148461
     26          6           0       -5.079459   -1.421261   -0.443814
     27          6           0       -6.363617   -1.919127    0.220159
     28          1           0       -4.410085   -0.234210    1.226005
     29          1           0       -5.366329    0.658121    0.046825
     30          1           0       -4.292266   -2.179125   -0.340930
     31          1           0       -5.247549   -1.287830   -1.520178
     32          1           0       -7.166623   -1.183839    0.105559
     33          1           0       -6.205912   -2.080198    1.291507
     34          1           0       -6.702572   -2.862809   -0.218512
 ---------------------------------------------------------------------

 SCF Done:  E(RHF) =  -669.534724436     A.U. after   15 cycles
 E2 =    -0.2092113882D+01 EUMP2 =    -0.67162683831760D+03

 The electronic state is 1-A.
 Alpha  occ. eigenvalues --  -20.60771 -20.60766 -15.85827 -11.31187 -11.27790
 Alpha  occ. eigenvalues --  -11.27781 -11.27497 -11.26771 -11.26754 -11.22190
 Alpha  occ. eigenvalues --  -11.21845 -11.21807 -11.21708 -11.21685 -11.21270
 Alpha  occ. eigenvalues --   -1.59848  -1.39401  -1.19384  -1.08847  -1.08762
 Alpha  occ. eigenvalues --   -1.04786  -1.03949  -0.96414  -0.95596  -0.87429
 Alpha  occ. eigenvalues --   -0.86178  -0.82433  -0.80020  -0.78624  -0.77480
 Alpha  occ. eigenvalues --   -0.72045  -0.71173  -0.70488  -0.65471  -0.65028
 Alpha  occ. eigenvalues --   -0.64779  -0.62131  -0.61354  -0.59808  -0.58012
 Alpha  occ. eigenvalues --   -0.55759  -0.55267  -0.53329  -0.53014  -0.52871
 Alpha  occ. eigenvalues --   -0.52703  -0.50294  -0.48803  -0.48799  -0.48326
 Alpha  occ. eigenvalues --   -0.47041  -0.46169  -0.46084  -0.44808  -0.44210
 Alpha  occ. eigenvalues --   -0.37258  -0.36400
 Alpha virt. eigenvalues --    0.05058   0.11203   0.16523   0.20577   0.22653
 Alpha virt. eigenvalues --    0.24035   0.26112   0.26500   0.27030   0.27481
 Alpha virt. eigenvalues --    0.28645   0.30021   0.31110   0.31638   0.32404

 Mulliken charges:
               1
     1  C   -0.166419
     2  C   -0.219448
     3  C   -0.170508
     4  C    0.157912
     5  C   -0.171192
     6  C   -0.221008
     7  H    0.228157
     8  H    0.223891
     9  H    0.275798
    10  H    0.275558
    11  H    0.223787
    12  N    0.488170
    13  O   -0.460675
    14  O   -0.460436
    15  C   -0.299061
    16  C   -0.298403
    17  C   -0.483185
    18  H    0.151344
    19  H    0.151284
    20  H    0.146939
    21  H    0.153171
    22  H    0.157600
    23  H    0.165773
    24  H    0.148790
    25  C   -0.298383
    26  C   -0.300193
    27  C   -0.475917
    28  H    0.148483
    29  H    0.149974
    30  H    0.153402
    31  H    0.152800
    32  H    0.155151
    33  H    0.155092
    34  H    0.161751
 Sum of Mulliken charges =  -0.00000

 Dipole moment (field-independent basis, Debye):
    X=             -2.4639    Y=              4.4499    Z=              0.9887  Tot=              5.1817
 Quadrupole moment (field-independent basis, Debye-Ang):
   XX=           -110.2484   YY=            -97.5234   ZZ=            -91.5005
   XY=             15.9558   XZ=              1.9039   YZ=             -2.0632

 Normal termination of Gaussian 16 at Wed May  5 23:44:15 2021.
