 Gaussian 16, Revision A.03,
 Gaussian 16:  EM64L-G16RevA.03 25-Dec-2016

 -------------
 #p 6-31g* mp2
 -------------

 ------------------------------------------------------
 Input file generated by CHIRIPA (05-May-2021 14:51:13)
 ------------------------------------------------------
 Symbolic Z-matrix:
 Charge =  0 Multiplicity = 1

                         Standard orientation:
 ---------------------------------------------------------------------
 Center     Atomic      Atomic             Coordinates (Angstroms)
 Number     Number       Type             X           Y           Z
 ---------------------------------------------------------------------
      1          6           0       -4.258424    0.343253   -0.284852
      2          6           0       -4.606379   -1.071413   -0.749213
      3          6           0       -6.105766   -1.267233   -0.975678
      4          1           0       -4.802618    0.561611    0.644189
      5          1           0       -4.614588    1.065167   -1.032772
      6          1           0       -4.248437   -1.790527   -0.001303
      7          1           0       -4.061146   -1.286499   -1.677155
      8          1           0       -6.474293   -0.572517   -1.737361
      9          1           0       -6.662649   -1.079409   -0.051987
     10          1           0       -6.332107   -2.285427   -1.307205
     11          6           0       -2.763140    0.554550   -0.054191
     12          6           0       -2.415185    1.969217    0.410170
     13          6           0       -0.915798    2.165036    0.636635
     14          1           0       -2.406976   -0.167363    0.693729
     15          1           0       -2.218946    0.336192   -0.983233
     16          1           0       -2.960418    2.184303    1.338111
     17          1           0       -2.773127    2.688330   -0.337740
     18          1           0       -0.358915    1.977213   -0.287056
     19          1           0       -0.547271    1.470321    1.398317
     20          1           0       -0.689457    3.183231    0.968162
     21          6           0        3.057196   -0.975642    0.486123
     22          6           0        1.860047   -0.378839    1.226828
     23          6           0        0.961981   -1.445110    1.854791
     24          1           0        2.694179   -1.657681   -0.294893
     25          1           0        3.645117   -1.586012    1.185547
     26          1           0        1.275324    0.231343    0.526547
     27          1           0        2.225952    0.302006    2.006046
     28          1           0        1.525141   -2.047967    2.574524
     29          1           0        0.569113   -2.119030    1.086619
     30          1           0        0.112503   -0.996489    2.379183
     31          6           0        3.964368    0.077838   -0.147080
     32          6           0        5.161518   -0.518965   -0.887785
     33          6           0        6.059583    0.547307   -1.515747
     34          1           0        3.376447    0.688207   -0.846503
     35          1           0        4.327385    0.759877    0.633936
     36          1           0        4.795612   -1.199810   -1.667003
     37          1           0        5.746240   -1.129148   -0.187504
     38          1           0        6.452452    1.221227   -0.747576
     39          1           0        5.496422    1.150163   -2.235480
     40          1           0        6.909060    0.098686   -2.040139
 ---------------------------------------------------------------------

 SCF Done:  E(RHF) =  -470.732224685     A.U. after   11 cycles
 E2 =    -0.1583662833D+01 EUMP2 =    -0.47231588751791D+03

 The electronic state is 1-A.
 Alpha  occ. eigenvalues --  -11.21604 -11.21600 -11.21566 -11.21432 -11.21411
 Alpha  occ. eigenvalues --  -11.21352 -11.21344 -11.21279 -11.21073 -11.21056
 Alpha  occ. eigenvalues --  -11.21045 -11.21038  -1.08444  -1.08363  -1.03575
 Alpha  occ. eigenvalues --   -1.03445  -0.96019  -0.95914  -0.87028  -0.86940
 Alpha  occ. eigenvalues --   -0.79726  -0.79442  -0.78296  -0.78126  -0.65074
 Alpha  occ. eigenvalues --   -0.65005  -0.60972  -0.60883  -0.59451  -0.59242
 Alpha  occ. eigenvalues --   -0.57772  -0.57389  -0.55267  -0.55223  -0.52679
 Alpha  occ. eigenvalues --   -0.52654  -0.52437  -0.52364  -0.49925  -0.49869
 Alpha  occ. eigenvalues --   -0.48154  -0.47689  -0.46626  -0.46518  -0.45912
 Alpha  occ. eigenvalues --   -0.45723  -0.45678  -0.45404  -0.43789  -0.43731
 Alpha virt. eigenvalues --    0.21215   0.23061   0.23474   0.24960   0.25558
 Alpha virt. eigenvalues --    0.26474   0.26930   0.27412   0.28254   0.29378
 Alpha virt. eigenvalues --    0.30201   0.31381   0.31660   0.31849   0.32347

 Mulliken charges:
               1
     1  C   -0.298144
     2  C   -0.299689
     3  C   -0.475712
     4  H    0.149687
     5  H    0.149536
     6  H    0.152210
     7  H    0.151746
     8  H    0.155142
     9  H    0.155222
    10  H    0.160273
    11  C   -0.300014
    12  C   -0.299674
    13  C   -0.481094
    14  H    0.151488
    15  H    0.148916
    16  H    0.151739
    17  H    0.151688
    18  H    0.154451
    19  H    0.163751
    20  H    0.160259
    21  C   -0.297871
    22  C   -0.306350
    23  C   -0.477848
    24  H    0.149074
    25  H    0.148773
    26  H    0.161820
    27  H    0.150880
    28  H    0.155230
    29  H    0.155702
    30  H    0.159391
    31  C   -0.298021
    32  C   -0.299580
    33  C   -0.475644
    34  H    0.149043
    35  H    0.149675
    36  H    0.151745
    37  H    0.151892
    38  H    0.155167
    39  H    0.155039
    40  H    0.160102
 Sum of Mulliken charges =  -0.00000

 Dipole moment (field-independent basis, Debye):
    X=             -0.0226    Y=              0.0236    Z=              0.0027  Tot=              0.0328
 Quadrupole moment (field-independent basis, Debye-Ang):
   XX=            -86.3140   YY=            -85.2687   ZZ=            -83.4181
   XY=             -0.6700   XZ=              0.5144   YZ=              0.0688

 Normal termination of Gaussian 16 at Thu May  6 05:35:20 2021.
