 Gaussian 16, Revision A.03,
 Gaussian 16:  EM64L-G16RevA.03 25-Dec-2016

 -------------
 #p 6-31g* mp2
 -------------

 ------------------------------------------------------
 Input file generated by CHIRIPA (05-May-2021 14:53:13)
 ------------------------------------------------------
 Symbolic Z-matrix:
 Charge =  0 Multiplicity = 1

                         Standard orientation:
 ---------------------------------------------------------------------
 Center     Atomic      Atomic             Coordinates (Angstroms)
 Number     Number       Type             X           Y           Z
 ---------------------------------------------------------------------
      1          6           0       -3.314029   -0.184779    0.060258
      2          6           0       -2.994359   -1.491401   -0.666745
      3          6           0       -4.006306   -2.597651   -0.366797
      4          1           0       -3.344215   -0.372534    1.142284
      5          1           0       -4.320427    0.149852   -0.227111
      6          1           0       -1.988317   -1.822742   -0.379152
      7          1           0       -2.964742   -1.300473   -1.747155
      8          1           0       -5.012752   -2.291722   -0.670236
      9          1           0       -4.030780   -2.816958    0.705540
     10          1           0       -3.758689   -3.522716   -0.896703
     11          6           0       -2.311336    0.930723   -0.229553
     12          6           0       -2.631006    2.237346    0.497450
     13          6           0       -1.619059    3.343596    0.197502
     14          1           0       -1.304938    0.596092    0.057816
     15          1           0       -2.281150    1.118479   -1.311580
     16          1           0       -2.660623    2.046418    1.577860
     17          1           0       -3.637047    2.568687    0.209857
     18          1           0       -1.594585    3.562903   -0.874835
     19          1           0       -0.612613    3.037666    0.500940
     20          1           0       -1.866676    4.268661    0.727407
     21          6           0        1.896917   -2.731274    0.634082
     22          6           0        2.367868   -2.359532   -0.629458
     23          6           0        2.538206   -1.010650   -0.955111
     24          6           0        2.226458   -0.055505    0.011224
     25          6           0        1.755359   -0.394245    1.278745
     26          6           0        1.592702   -1.749176    1.582479
     27          1           0        1.767577   -3.781467    0.878543
     28          1           0        2.604925   -3.120084   -1.367977
     29          1           0        2.901142   -0.694945   -1.925691
     30          1           0        1.527479    0.386661    1.994059
     31          1           0        1.226781   -2.034949    2.564559
     32          7           0        2.402722    1.375698   -0.321928
     33          8           0        2.120954    2.197973    0.547041
     34          8           0        2.819309    1.648098   -1.445713
 ---------------------------------------------------------------------

 SCF Done:  E(RHF) =  -669.536545552     A.U. after   15 cycles
 E2 =    -0.2092548291D+01 EUMP2 =    -0.67162909384257D+03

 The electronic state is 1-A.
 Alpha  occ. eigenvalues --  -20.60981 -20.60970 -15.85998 -11.31343 -11.27913
 Alpha  occ. eigenvalues --  -11.27881 -11.27636 -11.26919 -11.26896 -11.21654
 Alpha  occ. eigenvalues --  -11.21313 -11.21232 -11.21142 -11.21082 -11.20099
 Alpha  occ. eigenvalues --   -1.60027  -1.39585  -1.19505  -1.08904  -1.08239
 Alpha  occ. eigenvalues --   -1.04902  -1.03261  -0.95747  -0.95682  -0.86695
 Alpha  occ. eigenvalues --   -0.86300  -0.82577  -0.79349  -0.78026  -0.77627
 Alpha  occ. eigenvalues --   -0.72222  -0.71335  -0.70607  -0.65162  -0.64907
 Alpha  occ. eigenvalues --   -0.64874  -0.62247  -0.60659  -0.59122  -0.57292
 Alpha  occ. eigenvalues --   -0.55401  -0.54972  -0.53235  -0.52991  -0.52373
 Alpha  occ. eigenvalues --   -0.52091  -0.49628  -0.48988  -0.48973  -0.47649
 Alpha  occ. eigenvalues --   -0.46421  -0.45612  -0.45525  -0.44795  -0.43529
 Alpha  occ. eigenvalues --   -0.37468  -0.36489
 Alpha virt. eigenvalues --    0.04861   0.11097   0.16324   0.21214   0.22904
 Alpha virt. eigenvalues --    0.24474   0.26496   0.27292   0.27471   0.28025
 Alpha virt. eigenvalues --    0.28575   0.30692   0.31640   0.31870   0.32216

 Mulliken charges:
               1
     1  C   -0.297177
     2  C   -0.300179
     3  C   -0.475233
     4  H    0.146395
     5  H    0.150090
     6  H    0.150070
     7  H    0.152602
     8  H    0.156575
     9  H    0.152972
    10  H    0.157793
    11  C   -0.299513
    12  C   -0.299251
    13  C   -0.485405
    14  H    0.146355
    15  H    0.150966
    16  H    0.147360
    17  H    0.149583
    18  H    0.154841
    19  H    0.175076
    20  H    0.157644
    21  C   -0.170806
    22  C   -0.218084
    23  C   -0.170455
    24  C    0.159821
    25  C   -0.171705
    26  C   -0.218716
    27  H    0.226490
    28  H    0.224254
    29  H    0.276170
    30  H    0.275989
    31  H    0.224261
    32  N    0.488562
    33  O   -0.459569
    34  O   -0.457777
 Sum of Mulliken charges =  -0.00000

 Dipole moment (field-independent basis, Debye):
    X=             -0.3769    Y=             -5.0104    Z=              1.1256  Tot=              5.1491
 Quadrupole moment (field-independent basis, Debye-Ang):
   XX=            -98.1942   YY=            -95.1280   ZZ=            -90.0198
   XY=            -12.4855   XZ=              1.5144   YZ=              0.9723

 Normal termination of Gaussian 16 at Thu May  6 10:31:42 2021.
