 Gaussian 16, Revision A.03,
 Gaussian 16:  EM64L-G16RevA.03 25-Dec-2016

 -------------
 #p 6-31g* mp2
 -------------

 ------------------------------------------------------
 Input file generated by CHIRIPA (05-May-2021 14:57:26)
 ------------------------------------------------------
 Symbolic Z-matrix:
 Charge =  0 Multiplicity = 1

                         Standard orientation:
 ---------------------------------------------------------------------
 Center     Atomic      Atomic             Coordinates (Angstroms)
 Number     Number       Type             X           Y           Z
 ---------------------------------------------------------------------
      1          6           0       -1.605719    0.198447    0.851090
      2          6           0       -2.337179    1.308596    0.416285
      3          6           0       -3.668129    1.167955    0.012132
      4          6           0       -4.238728   -0.103188    0.055749
      5          6           0       -3.536119   -1.228474    0.483958
      6          6           0       -2.206464   -1.064319    0.883482
      7          1           0       -0.572308    0.316833    1.163248
      8          1           0       -1.873216    2.290481    0.390080
      9          1           0       -4.257486    2.010439   -0.328890
     10          1           0       -4.025848   -2.194577    0.499025
     11          1           0       -1.640822   -1.928252    1.220695
     12          7           0       -5.647060   -0.264525   -0.369659
     13          8           0       -6.126770   -1.395115   -0.321898
     14          8           0       -6.244532    0.742664   -0.742800
     15          6           0        5.189830   -2.151185   -0.179816
     16          6           0        3.800049   -2.092974   -0.326915
     17          6           0        3.133929   -0.864140   -0.298626
     18          6           0        3.892229    0.291971   -0.120645
     19          6           0        5.277992    0.266680    0.028723
     20          6           0        5.923074   -0.973250   -0.002778
     21          1           0        5.699118   -3.110083   -0.203040
     22          1           0        3.228036   -3.006156   -0.464552
     23          1           0        2.058967   -0.790216   -0.410026
     24          1           0        5.821158    1.194035    0.164373
     25          1           0        7.002498   -1.015433    0.111720
     26          7           0        3.198174    1.598756   -0.088996
     27          8           0        3.889070    2.602897    0.069116
     28          8           0        1.976419    1.594129   -0.222901
 ---------------------------------------------------------------------

 SCF Done:  E(RHF) =  -868.339445961     A.U. after   16 cycles
 E2 =    -0.2598718742D+01 EUMP2 =    -0.87093816470313D+03

 The electronic state is 1-A.
 Alpha  occ. eigenvalues --  -20.61830 -20.61759 -20.60407 -20.60395 -15.86832
 Alpha  occ. eigenvalues --  -15.85454 -11.32020 -11.30714 -11.28609 -11.28527
 Alpha  occ. eigenvalues --  -11.28241 -11.27547 -11.27497 -11.27331 -11.27218
 Alpha  occ. eigenvalues --  -11.26880 -11.26332 -11.26102  -1.60856  -1.59482
 Alpha  occ. eigenvalues --   -1.40420  -1.39038  -1.20168  -1.18866  -1.09589
 Alpha  occ. eigenvalues --   -1.08257  -1.05547  -1.04257  -0.96458  -0.95113
 Alpha  occ. eigenvalues --   -0.86951  -0.85643  -0.83301  -0.81956  -0.78378
 Alpha  occ. eigenvalues --   -0.77039  -0.73066  -0.72164  -0.71673  -0.71268
 Alpha  occ. eigenvalues --   -0.70805  -0.69902  -0.65823  -0.65542  -0.64506
 Alpha  occ. eigenvalues --   -0.64240  -0.62903  -0.61606  -0.56033  -0.54671
 Alpha  occ. eigenvalues --   -0.53879  -0.53633  -0.52591  -0.52332  -0.49823
 Alpha  occ. eigenvalues --   -0.49785  -0.48435  -0.48420  -0.45859  -0.44468
 Alpha  occ. eigenvalues --   -0.38123  -0.37143  -0.36812  -0.35872
 Alpha virt. eigenvalues --    0.04125   0.05487   0.10506   0.11784   0.15655
 Alpha virt. eigenvalues --    0.16977   0.20251   0.21993   0.26085   0.27092
 Alpha virt. eigenvalues --    0.27861   0.28908   0.30534   0.31164   0.32838

 Mulliken charges:
               1
     1  C   -0.174551
     2  C   -0.218799
     3  C   -0.171984
     4  C    0.157809
     5  C   -0.171701
     6  C   -0.221101
     7  H    0.236539
     8  H    0.233489
     9  H    0.275170
    10  H    0.272597
    11  H    0.216253
    12  N    0.488188
    13  O   -0.462862
    14  O   -0.460715
    15  C   -0.169904
    16  C   -0.218206
    17  C   -0.172988
    18  C    0.158639
    19  C   -0.170245
    20  C   -0.218175
    21  H    0.228464
    22  H    0.224627
    23  H    0.271375
    24  H    0.277341
    25  H    0.226314
    26  N    0.490131
    27  O   -0.454767
    28  O   -0.470936
 Sum of Mulliken charges =  -0.00000

 Dipole moment (field-independent basis, Debye):
    X=              7.8686    Y=             -3.8823    Z=              1.3749  Tot=              8.8813
 Quadrupole moment (field-independent basis, Debye-Ang):
   XX=           -124.0403   YY=           -101.9248   ZZ=           -106.0989
   XY=            -18.9148   XZ=             -6.0859   YZ=             -0.1936

 Normal termination of Gaussian 16 at Thu May  6 11:27:50 2021.
