 Gaussian 16, Revision A.03,
 Gaussian 16:  EM64L-G16RevA.03 25-Dec-2016

 -------------
 #p 6-31g* mp2
 -------------

 ------------------------------------------------------
 Input file generated by CHIRIPA (05-May-2021 14:55:23)
 ------------------------------------------------------
 Symbolic Z-matrix:
 Charge =  0 Multiplicity = 1

                         Standard orientation:
 ---------------------------------------------------------------------
 Center     Atomic      Atomic             Coordinates (Angstroms)
 Number     Number       Type             X           Y           Z
 ---------------------------------------------------------------------
      1          6           0        1.504247    1.951783    1.307371
      2          6           0        1.683545    1.949232   -0.079844
      3          6           0        2.214788    0.828494   -0.725038
      4          6           0        2.557422   -0.277456    0.051343
      5          6           0        2.390786   -0.305444    1.435084
      6          6           0        1.857817    0.826421    2.059083
      7          1           0        1.090894    2.826720    1.800341
      8          1           0        1.409850    2.821790   -0.666170
      9          1           0        2.364187    0.799581   -1.797541
     10          1           0        2.673011   -1.190141    1.992828
     11          1           0        1.719682    0.825578    3.136563
     12          7           0        3.120739   -1.469821   -0.620476
     13          8           0        3.414671   -2.431595    0.086088
     14          8           0        3.257668   -1.420045   -1.840889
     15          6           0       -3.153100   -0.659572   -0.175920
     16          6           0       -4.462724   -1.247381    0.350724
     17          6           0       -4.444181   -2.775182    0.407928
     18          1           0       -2.954363   -1.063062   -1.178238
     19          1           0       -2.325472   -0.993399    0.465162
     20          1           0       -5.287813   -0.911420   -0.290348
     21          1           0       -4.658463   -0.842296    1.351827
     22          1           0       -3.640560   -3.126428    1.063230
     23          1           0       -4.273485   -3.195945   -0.588276
     24          1           0       -5.390089   -3.174237    0.787236
     25          6           0       -3.156225    0.866778   -0.238971
     26          6           0       -1.846603    1.454588   -0.765615
     27          6           0       -1.865145    2.982389   -0.822818
     28          1           0       -3.983854    1.200605   -0.880052
     29          1           0       -3.354962    1.270269    0.763348
     30          1           0       -1.650862    1.049502   -1.766718
     31          1           0       -1.021514    1.118626   -0.124542
     32          1           0       -2.035841    3.403152    0.173386
     33          1           0       -2.668766    3.333635   -1.478121
     34          1           0       -0.919238    3.381444   -1.202127
 ---------------------------------------------------------------------

 SCF Done:  E(RHF) =  -669.534043683     A.U. after   15 cycles
 E2 =    -0.2093723838D+01 EUMP2 =    -0.67162776752169D+03

 The electronic state is 1-A.
 Alpha  occ. eigenvalues --  -20.60802 -20.60797 -15.85855 -11.31248 -11.27811
 Alpha  occ. eigenvalues --  -11.27778 -11.27532 -11.26850 -11.26786 -11.21903
 Alpha  occ. eigenvalues --  -11.21830 -11.21753 -11.21691 -11.21551 -11.21137
 Alpha  occ. eigenvalues --   -1.59876  -1.39429  -1.19425  -1.08839  -1.08685
 Alpha  occ. eigenvalues --   -1.04835  -1.03847  -0.96336  -0.95638  -0.87348
 Alpha  occ. eigenvalues --   -0.86220  -0.82470  -0.79911  -0.78494  -0.77516
 Alpha  occ. eigenvalues --   -0.72073  -0.71199  -0.70515  -0.65361  -0.65064
 Alpha  occ. eigenvalues --   -0.64858  -0.62212  -0.61266  -0.59727  -0.57941
 Alpha  occ. eigenvalues --   -0.55630  -0.55312  -0.53231  -0.53166  -0.52857
 Alpha  occ. eigenvalues --   -0.52607  -0.50246  -0.48835  -0.48827  -0.48208
 Alpha  occ. eigenvalues --   -0.46910  -0.46037  -0.45940  -0.44828  -0.44100
 Alpha  occ. eigenvalues --   -0.37355  -0.36364
 Alpha virt. eigenvalues --    0.04999   0.11170   0.16427   0.20267   0.22823
 Alpha virt. eigenvalues --    0.24128   0.25938   0.26428   0.27097   0.27939
 Alpha virt. eigenvalues --    0.29108   0.29534   0.31146   0.31756   0.32164

 Mulliken charges:
               1
     1  C   -0.172887
     2  C   -0.216981
     3  C   -0.170506
     4  C    0.159225
     5  C   -0.171680
     6  C   -0.218391
     7  H    0.226775
     8  H    0.226708
     9  H    0.275868
    10  H    0.275771
    11  H    0.223701
    12  N    0.488075
    13  O   -0.460329
    14  O   -0.460078
    15  C   -0.298728
    16  C   -0.299811
    17  C   -0.475909
    18  H    0.152164
    19  H    0.150084
    20  H    0.152138
    21  H    0.150466
    22  H    0.155763
    23  H    0.157057
    24  H    0.160382
    25  C   -0.297544
    26  C   -0.307197
    27  C   -0.476588
    28  H    0.149672
    29  H    0.146955
    30  H    0.152501
    31  H    0.162586
    32  H    0.151821
    33  H    0.159921
    34  H    0.148997
 Sum of Mulliken charges =  -0.00000

 Dipole moment (field-independent basis, Debye):
    X=             -1.9683    Y=              4.1100    Z=              2.3660  Tot=              5.1346
 Quadrupole moment (field-independent basis, Debye-Ang):
   XX=           -105.6349   YY=            -98.0133   ZZ=            -89.8350
   XY=             11.2480   XZ=              6.8102   YZ=             -2.5327

 Normal termination of Gaussian 16 at Wed May  5 17:35:22 2021.
