 Gaussian 16, Revision A.03,
 Gaussian 16:  EM64L-G16RevA.03 25-Dec-2016

 -------------
 #p 6-31g* mp2
 -------------

 ------------------------------------------------------
 Input file generated by CHIRIPA (05-May-2021 14:51:11)
 ------------------------------------------------------
 Symbolic Z-matrix:
 Charge =  0 Multiplicity = 1

                         Standard orientation:
 ---------------------------------------------------------------------
 Center     Atomic      Atomic             Coordinates (Angstroms)
 Number     Number       Type             X           Y           Z
 ---------------------------------------------------------------------
      1          6           0       -1.737426   -1.305132   -0.452299
      2          6           0       -1.181825   -2.622546    0.089653
      3          6           0       -0.040416   -3.177931   -0.762712
      4          1           0       -2.087978   -1.458409   -1.482137
      5          1           0       -0.925288   -0.566870   -0.505185
      6          1           0       -1.995062   -3.357690    0.142804
      7          1           0       -0.832731   -2.466161    1.118387
      8          1           0        0.789763   -2.465534   -0.806240
      9          1           0       -0.379173   -3.362128   -1.787367
     10          1           0        0.341798   -4.119935   -0.357248
     11          6           0       -2.879112   -0.737366    0.389082
     12          6           0       -3.434714    0.580048   -0.152870
     13          6           0       -4.576123    1.135433    0.699495
     14          1           0       -3.691250   -1.475628    0.441968
     15          1           0       -2.528561   -0.584089    1.418920
     16          1           0       -3.783808    0.423663   -1.181604
     17          1           0       -2.621476    1.315192   -0.206021
     18          1           0       -4.237366    1.319630    1.724150
     19          1           0       -5.406301    0.423036    0.743023
     20          1           0       -4.958337    2.077437    0.294031
     21          6           0        2.582126    0.344663   -0.193482
     22          6           0        3.509852   -0.305935    0.833180
     23          6           0        4.049657   -1.658871    0.368459
     24          1           0        1.743856   -0.333930   -0.402670
     25          1           0        3.125550    0.471212   -1.140092
     26          1           0        2.965266   -0.429954    1.777987
     27          1           0        4.345910    0.374367    1.040091
     28          1           0        4.616456   -1.548592   -0.561691
     29          1           0        3.227967   -2.357483    0.180397
     30          1           0        4.710549   -2.106165    1.117466
     31          6           0        2.034412    1.697835    0.256699
     32          6           0        1.106687    2.348433   -0.769962
     33          6           0        0.566881    3.701370   -0.305242
     34          1           0        1.490988    1.571286    1.203310
     35          1           0        2.872683    2.376427    0.465888
     36          1           0        0.270629    1.668131   -0.976874
     37          1           0        1.651273    2.472453   -1.714770
     38          1           0        1.388571    4.399981   -0.117180
     39          1           0        0.000083    3.591091    0.624908
     40          1           0       -0.094011    4.148663   -1.054249
 ---------------------------------------------------------------------

 SCF Done:  E(RHF) =  -470.732699998     A.U. after   11 cycles
 E2 =    -0.1585000780D+01 EUMP2 =    -0.47231770077784D+03

 The electronic state is 1-A.
 Alpha  occ. eigenvalues --  -11.21667 -11.21642 -11.21641 -11.21627 -11.21464
 Alpha  occ. eigenvalues --  -11.21450 -11.21404 -11.21389 -11.21114 -11.21107
 Alpha  occ. eigenvalues --  -11.21099 -11.21056  -1.08525  -1.08447  -1.03602
 Alpha  occ. eigenvalues --   -1.03546  -0.96037  -0.96008  -0.87050  -0.87027
 Alpha  occ. eigenvalues --   -0.79686  -0.79593  -0.78442  -0.78169  -0.65431
 Alpha  occ. eigenvalues --   -0.64835  -0.61175  -0.60797  -0.59418  -0.59369
 Alpha  occ. eigenvalues --   -0.57642  -0.57619  -0.55382  -0.55252  -0.52729
 Alpha  occ. eigenvalues --   -0.52698  -0.52472  -0.52420  -0.50013  -0.49956
 Alpha  occ. eigenvalues --   -0.48063  -0.47874  -0.46890  -0.46672  -0.46221
 Alpha  occ. eigenvalues --   -0.45817  -0.45786  -0.45016  -0.43835  -0.43816
 Alpha virt. eigenvalues --    0.19443   0.21638   0.23971   0.24566   0.25635
 Alpha virt. eigenvalues --    0.26472   0.26882   0.27311   0.28173   0.30092
 Alpha virt. eigenvalues --    0.31257   0.31665   0.31684   0.31827   0.32001

 Mulliken charges:
               1
     1  C   -0.308188
     2  C   -0.298972
     3  C   -0.485516
     4  H    0.150145
     5  H    0.157597
     6  H    0.152575
     7  H    0.151467
     8  H    0.163749
     9  H    0.155921
    10  H    0.160666
    11  C   -0.297709
    12  C   -0.302361
    13  C   -0.475650
    14  H    0.149973
    15  H    0.149269
    16  H    0.152158
    17  H    0.154175
    18  H    0.155100
    19  H    0.155329
    20  H    0.160601
    21  C   -0.309381
    22  C   -0.299037
    23  C   -0.480153
    24  H    0.158706
    25  H    0.150018
    26  H    0.151413
    27  H    0.152193
    28  H    0.155201
    29  H    0.159835
    30  H    0.160325
    31  C   -0.297041
    32  C   -0.307328
    33  C   -0.475643
    34  H    0.148774
    35  H    0.150184
    36  H    0.157966
    37  H    0.152533
    38  H    0.155507
    39  H    0.154923
    40  H    0.160677
 Sum of Mulliken charges =  -0.00000

 Dipole moment (field-independent basis, Debye):
    X=             -0.0082    Y=             -0.0029    Z=             -0.0208  Tot=              0.0225
 Quadrupole moment (field-independent basis, Debye-Ang):
   XX=            -84.5454   YY=            -85.5181   ZZ=            -84.5689
   XY=              1.6409   XZ=              0.5502   YZ=             -0.3679

 Normal termination of Gaussian 16 at Thu May  6 00:42:25 2021.
