 Gaussian 16, Revision A.03,
 Gaussian 16:  EM64L-G16RevA.03 25-Dec-2016

 -------------
 #p 6-31g* mp2
 -------------

 ------------------------------------------------------
 Input file generated by CHIRIPA (05-May-2021 14:51:11)
 ------------------------------------------------------
 Symbolic Z-matrix:
 Charge =  0 Multiplicity = 1

                         Standard orientation:
 ---------------------------------------------------------------------
 Center     Atomic      Atomic             Coordinates (Angstroms)
 Number     Number       Type             X           Y           Z
 ---------------------------------------------------------------------
      1          6           0        3.871984    0.667778   -0.418891
      2          6           0        2.597325    1.239985    0.202246
      3          6           0        2.129032    2.522847   -0.485329
      4          1           0        4.667732    1.423596   -0.369203
      5          1           0        3.695051    0.469824   -1.485148
      6          1           0        2.776183    1.435507    1.267327
      7          1           0        1.804573    0.482648    0.151247
      8          1           0        1.923182    2.339017   -1.544779
      9          1           0        2.900313    3.297290   -0.422357
     10          1           0        1.216453    2.914703   -0.025427
     11          6           0        4.352632   -0.614785    0.257673
     12          6           0        5.627290   -1.186992   -0.363464
     13          6           0        6.095584   -2.469854    0.324111
     14          1           0        4.529565   -0.416831    1.323929
     15          1           0        3.556884   -1.370603    0.207985
     16          1           0        6.420043   -0.429656   -0.312465
     17          1           0        5.448433   -1.382514   -1.428545
     18          1           0        5.324303   -3.244297    0.261139
     19          1           0        6.301433   -2.286024    1.383560
     20          1           0        7.008162   -2.861710   -0.135791
     21          6           0       -4.749940   -0.339270    0.361733
     22          6           0       -5.582461   -1.070137   -0.692177
     23          6           0       -6.854922   -1.690517   -0.114454
     24          1           0       -4.485463   -1.042503    1.163271
     25          1           0       -5.364142    0.445555    0.824551
     26          1           0       -4.966438   -1.852441   -1.153839
     27          1           0       -5.844824   -0.365130   -1.491393
     28          1           0       -7.492441   -0.919037    0.329382
     29          1           0       -6.609064   -2.414799    0.668854
     30          1           0       -7.434908   -2.207932   -0.885011
     31          6           0       -3.474676    0.286277   -0.200515
     32          6           0       -2.642154    1.017144    0.853395
     33          6           0       -1.369694    1.637524    0.275671
     34          1           0       -2.860474   -0.498548   -0.663332
     35          1           0       -3.739152    0.989510   -1.002052
     36          1           0       -2.379792    0.312136    1.652611
     37          1           0       -3.258178    1.799448    1.315057
     38          1           0       -1.615551    2.361806   -0.507636
     39          1           0       -0.732175    0.866044   -0.168164
     40          1           0       -0.789708    2.154938    1.046229
 ---------------------------------------------------------------------

 SCF Done:  E(RHF) =  -470.732382051     A.U. after   11 cycles
 E2 =    -0.1583129692D+01 EUMP2 =    -0.47231551174227D+03

 The electronic state is 1-A.
 Alpha  occ. eigenvalues --  -11.21611 -11.21596 -11.21577 -11.21504 -11.21417
 Alpha  occ. eigenvalues --  -11.21361 -11.21357 -11.21295 -11.21079 -11.21070
 Alpha  occ. eigenvalues --  -11.21056 -11.20871  -1.08445  -1.08373  -1.03573
 Alpha  occ. eigenvalues --   -1.03434  -0.96071  -0.95839  -0.87099  -0.86849
 Alpha  occ. eigenvalues --   -0.79618  -0.79525  -0.78259  -0.78187  -0.65093
 Alpha  occ. eigenvalues --   -0.64994  -0.61025  -0.60793  -0.59638  -0.59085
 Alpha  occ. eigenvalues --   -0.57631  -0.57494  -0.55339  -0.55139  -0.53029
 Alpha  occ. eigenvalues --   -0.52473  -0.52396  -0.52076  -0.49960  -0.49836
 Alpha  occ. eigenvalues --   -0.47936  -0.47827  -0.46725  -0.46482  -0.45807
 Alpha  occ. eigenvalues --   -0.45755  -0.45704  -0.45605  -0.43916  -0.43560
 Alpha virt. eigenvalues --    0.21921   0.23019   0.23506   0.24934   0.26135
 Alpha virt. eigenvalues --    0.26733   0.27015   0.27425   0.27657   0.29161
 Alpha virt. eigenvalues --    0.29472   0.31178   0.31531   0.31807   0.32353

 Mulliken charges:
               1
     1  C   -0.297966
     2  C   -0.301953
     3  C   -0.479600
     4  H    0.149540
     5  H    0.149226
     6  H    0.150947
     7  H    0.153796
     8  H    0.154010
     9  H    0.153619
    10  H    0.168249
    11  C   -0.298125
    12  C   -0.299585
    13  C   -0.475659
    14  H    0.149405
    15  H    0.149125
    16  H    0.151956
    17  H    0.151838
    18  H    0.155008
    19  H    0.155132
    20  H    0.160174
    21  C   -0.298283
    22  C   -0.299609
    23  C   -0.475706
    24  H    0.149662
    25  H    0.149595
    26  H    0.151843
    27  H    0.151960
    28  H    0.155216
    29  H    0.155188
    30  H    0.160270
    31  C   -0.298620
    32  C   -0.300628
    33  C   -0.477884
    34  H    0.149223
    35  H    0.149700
    36  H    0.151965
    37  H    0.151805
    38  H    0.155580
    39  H    0.158928
    40  H    0.160656
 Sum of Mulliken charges =  -0.00000

 Dipole moment (field-independent basis, Debye):
    X=             -0.0440    Y=              0.0136    Z=              0.0037  Tot=              0.0462
 Quadrupole moment (field-independent basis, Debye-Ang):
   XX=            -85.5702   YY=            -84.8564   ZZ=            -84.5842
   XY=             -0.2342   XZ=              0.5839   YZ=              0.7154

 Normal termination of Gaussian 16 at Thu May  6 03:51:55 2021.
