 Gaussian 16, Revision A.03,
 Gaussian 16:  EM64L-G16RevA.03 25-Dec-2016

 -------------
 #p 6-31g* mp2
 -------------

 ------------------------------------------------------
 Input file generated by CHIRIPA (05-May-2021 14:53:16)
 ------------------------------------------------------
 Symbolic Z-matrix:
 Charge =  0 Multiplicity = 1

                         Standard orientation:
 ---------------------------------------------------------------------
 Center     Atomic      Atomic             Coordinates (Angstroms)
 Number     Number       Type             X           Y           Z
 ---------------------------------------------------------------------
      1          6           0       -3.262276   -0.589671   -0.191274
      2          6           0       -1.928779    0.099686   -0.482066
      3          6           0       -0.749867   -0.873893   -0.492266
      4          1           0       -3.199270   -1.101615    0.778720
      5          1           0       -3.436089   -1.369533   -0.945594
      6          1           0       -1.758191    0.878947    0.271770
      7          1           0       -1.995031    0.610208   -1.451392
      8          1           0       -0.893515   -1.644840   -1.256207
      9          1           0       -0.655330   -1.374574    0.476745
     10          1           0        0.193396   -0.359984   -0.702060
     11          6           0       -4.450359    0.370539   -0.177729
     12          6           0       -5.783855   -0.318817    0.113063
     13          6           0       -6.962768    0.654761    0.123262
     14          1           0       -4.276545    1.150402    0.576591
     15          1           0       -4.513365    0.882483   -1.147723
     16          1           0       -5.717603   -0.829340    1.082389
     17          1           0       -5.954443   -1.098078   -0.640773
     18          1           0       -7.057304    1.155443   -0.845748
     19          1           0       -6.819119    1.425708    0.887204
     20          1           0       -7.906030    0.140853    0.333056
     21          6           0        3.091180    2.605862    0.054455
     22          6           0        2.260874    1.963823    0.979063
     23          6           0        2.209404    0.567949    1.037672
     24          6           0        3.005166   -0.158052    0.152813
     25          6           0        3.842520    0.452455   -0.779608
     26          6           0        3.877965    1.849462   -0.820388
     27          1           0        3.124939    3.690650    0.015851
     28          1           0        1.648748    2.548698    1.659701
     29          1           0        1.575521    0.045163    1.743580
     30          1           0        4.441151   -0.157494   -1.445206
     31          1           0        4.523726    2.345380   -1.539487
     32          7           0        2.959158   -1.636400    0.205421
     33          8           0        3.669989   -2.253283   -0.585028
     34          8           0        2.213138   -2.150255    1.036110
 ---------------------------------------------------------------------

 SCF Done:  E(RHF) =  -669.534425194     A.U. after   15 cycles
 E2 =    -0.2093378133D+01 EUMP2 =    -0.67162780332673D+03

 The electronic state is 1-A.
 Alpha  occ. eigenvalues --  -20.60808 -20.60774 -15.85823 -11.31176 -11.27789
 Alpha  occ. eigenvalues --  -11.27761 -11.27532 -11.26785 -11.26775 -11.21556
 Alpha  occ. eigenvalues --  -11.21499 -11.21352 -11.21247 -11.21064 -11.20618
 Alpha  occ. eigenvalues --   -1.59851  -1.39407  -1.19393  -1.08777  -1.08346
 Alpha  occ. eigenvalues --   -1.04795  -1.03416  -0.95863  -0.95597  -0.86882
 Alpha  occ. eigenvalues --   -0.86172  -0.82442  -0.79490  -0.78162  -0.77481
 Alpha  occ. eigenvalues --   -0.72056  -0.71175  -0.70496  -0.65040  -0.64988
 Alpha  occ. eigenvalues --   -0.64782  -0.62149  -0.60807  -0.59274  -0.57502
 Alpha  occ. eigenvalues --   -0.55309  -0.55107  -0.53385  -0.52877  -0.52394
 Alpha  occ. eigenvalues --   -0.52128  -0.49783  -0.48810  -0.48803  -0.47781
 Alpha  occ. eigenvalues --   -0.46530  -0.45703  -0.45642  -0.44768  -0.43659
 Alpha  occ. eigenvalues --   -0.37326  -0.36351
 Alpha virt. eigenvalues --    0.05020   0.11253   0.16485   0.21155   0.22949
 Alpha virt. eigenvalues --    0.24336   0.26511   0.27316   0.27433   0.27865
 Alpha virt. eigenvalues --    0.28674   0.30723   0.31514   0.31618   0.32001

 Mulliken charges:
               1
     1  C   -0.298264
     2  C   -0.298756
     3  C   -0.483425
     4  H    0.150699
     5  H    0.151565
     6  H    0.143195
     7  H    0.150181
     8  H    0.158572
     9  H    0.166084
    10  H    0.157427
    11  C   -0.297678
    12  C   -0.299657
    13  C   -0.475566
    14  H    0.146872
    15  H    0.148916
    16  H    0.152412
    17  H    0.152880
    18  H    0.154784
    19  H    0.154107
    20  H    0.160532
    21  C   -0.170575
    22  C   -0.217842
    23  C   -0.169938
    24  C    0.157075
    25  C   -0.171582
    26  C   -0.218817
    27  H    0.225812
    28  H    0.223578
    29  H    0.276597
    30  H    0.275845
    31  H    0.223508
    32  N    0.491039
    33  O   -0.460414
    34  O   -0.459165
 Sum of Mulliken charges =  -0.00000

 Dipole moment (field-independent basis, Debye):
    X=              0.2463    Y=              5.1066    Z=             -0.1649  Tot=              5.1152
 Quadrupole moment (field-independent basis, Debye-Ang):
   XX=            -93.0759   YY=            -97.2316   ZZ=            -91.4300
   XY=             16.3993   XZ=             -3.2492   YZ=              1.1574

 Normal termination of Gaussian 16 at Thu May  6 05:56:27 2021.
