 Gaussian 16, Revision A.03,
 Gaussian 16:  EM64L-G16RevA.03 25-Dec-2016

 -------------
 #p 6-31g* mp2
 -------------

 ------------------------------------------------------
 Input file generated by CHIRIPA (05-May-2021 14:55:21)
 ------------------------------------------------------
 Symbolic Z-matrix:
 Charge =  0 Multiplicity = 1

                         Standard orientation:
 ---------------------------------------------------------------------
 Center     Atomic      Atomic             Coordinates (Angstroms)
 Number     Number       Type             X           Y           Z
 ---------------------------------------------------------------------
      1          6           0       -1.948031    1.739414   -0.471786
      2          6           0       -1.579919    0.395101   -0.589418
      3          6           0       -2.521237   -0.618959   -0.389038
      4          6           0       -3.827686   -0.251181   -0.070887
      5          6           0       -4.225217    1.079161    0.053406
      6          6           0       -3.267180    2.076559   -0.151315
      7          1           0       -1.210299    2.520688   -0.629132
      8          1           0       -0.556177    0.130321   -0.838194
      9          1           0       -2.263408   -1.667649   -0.473844
     10          1           0       -5.253384    1.312045    0.302513
     11          1           0       -3.555907    3.119735   -0.059305
     12          7           0       -4.833067   -1.315901    0.143544
     13          8           0       -5.977590   -0.965665    0.422894
     14          8           0       -4.457523   -2.480505    0.028204
     15          6           0        4.147715    0.568329   -0.128578
     16          6           0        3.016570    0.816325    0.869916
     17          6           0        1.944700    1.761435    0.326173
     18          1           0        4.606887    1.529097   -0.398822
     19          1           0        3.725894    0.152226   -1.053954
     20          1           0        3.440564    1.230545    1.793640
     21          1           0        2.560163   -0.145165    1.137960
     22          1           0        1.494545    1.350824   -0.583421
     23          1           0        2.379949    2.734350    0.075985
     24          1           0        1.145764    1.924805    1.056155
     25          6           0        5.226972   -0.374530    0.400523
     26          6           0        6.358117   -0.622526   -0.597972
     27          6           0        7.429987   -1.567637   -0.054229
     28          1           0        5.648793    0.041573    1.325898
     29          1           0        4.767800   -1.335299    0.670766
     30          1           0        6.814524    0.338964   -0.866016
     31          1           0        5.934122   -1.036746   -1.521696
     32          1           0        6.994737   -2.540552    0.195959
     33          1           0        7.880142   -1.157026    0.855364
     34          1           0        8.228922   -1.731006   -0.784211
 ---------------------------------------------------------------------

 SCF Done:  E(RHF) =  -669.535279711     A.U. after   15 cycles
 E2 =    -0.2091383423D+01 EUMP2 =    -0.67162666313434D+03

 The electronic state is 1-A.
 Alpha  occ. eigenvalues --  -20.60717 -20.60712 -15.85769 -11.31118 -11.27687
 Alpha  occ. eigenvalues --  -11.27677 -11.27388 -11.26694 -11.26652 -11.22524
 Alpha  occ. eigenvalues --  -11.22324 -11.22138 -11.22076 -11.21944 -11.21447
 Alpha  occ. eigenvalues --   -1.59793  -1.39347  -1.19286  -1.09135  -1.08679
 Alpha  occ. eigenvalues --   -1.04691  -1.04268  -0.96748  -0.95516  -0.87779
 Alpha  occ. eigenvalues --   -0.86080  -0.82352  -0.80348  -0.78899  -0.77409
 Alpha  occ. eigenvalues --   -0.71988  -0.71116  -0.70383  -0.65792  -0.64936
 Alpha  occ. eigenvalues --   -0.64715  -0.62129  -0.61582  -0.60125  -0.58318
 Alpha  occ. eigenvalues --   -0.56046  -0.55177  -0.53461  -0.53189  -0.52978
 Alpha  occ. eigenvalues --   -0.52761  -0.50669  -0.48750  -0.48744  -0.48641
 Alpha  occ. eigenvalues --   -0.47359  -0.46452  -0.46349  -0.44756  -0.44502
 Alpha  occ. eigenvalues --   -0.37250  -0.36292
 Alpha virt. eigenvalues --    0.05118   0.11323   0.16595   0.19986   0.22411
 Alpha virt. eigenvalues --    0.23734   0.25601   0.26225   0.26919   0.27424
 Alpha virt. eigenvalues --    0.28977   0.29541   0.30879   0.31482   0.32043

 Mulliken charges:
               1
     1  C   -0.173510
     2  C   -0.220545
     3  C   -0.171855
     4  C    0.158620
     5  C   -0.171223
     6  C   -0.218979
     7  H    0.229082
     8  H    0.227493
     9  H    0.275217
    10  H    0.275283
    11  H    0.223153
    12  N    0.488019
    13  O   -0.460628
    14  O   -0.460704
    15  C   -0.298687
    16  C   -0.300676
    17  C   -0.482498
    18  H    0.151076
    19  H    0.147953
    20  H    0.156586
    21  H    0.153378
    22  H    0.145734
    23  H    0.159041
    24  H    0.163647
    25  C   -0.298960
    26  C   -0.300119
    27  C   -0.476132
    28  H    0.151116
    29  H    0.150774
    30  H    0.152461
    31  H    0.152150
    32  H    0.156122
    33  H    0.155954
    34  H    0.161658
 Sum of Mulliken charges =  -0.00000

 Dipole moment (field-independent basis, Debye):
    X=              3.7825    Y=              3.7680    Z=             -0.6899  Tot=              5.3834
 Quadrupole moment (field-independent basis, Debye-Ang):
   XX=           -119.5027   YY=            -94.2932   ZZ=            -95.2508
   XY=            -17.2171   XZ=              2.0832   YZ=              1.1899

 Normal termination of Gaussian 16 at Thu May  6 02:59:55 2021.
