 Gaussian 16, Revision A.03,
 Gaussian 16:  EM64L-G16RevA.03 25-Dec-2016

 -------------
 #p 6-31g* mp2
 -------------

 ------------------------------------------------------
 Input file generated by CHIRIPA (05-May-2021 14:53:14)
 ------------------------------------------------------
 Symbolic Z-matrix:
 Charge =  0 Multiplicity = 1

                         Standard orientation:
 ---------------------------------------------------------------------
 Center     Atomic      Atomic             Coordinates (Angstroms)
 Number     Number       Type             X           Y           Z
 ---------------------------------------------------------------------
      1          6           0       -2.983232   -0.714503    0.006205
      2          6           0       -2.141034   -0.849348    1.275262
      3          6           0       -0.826373   -1.592491    1.036096
      4          1           0       -3.193872   -1.715501   -0.394517
      5          1           0       -2.397478   -0.187986   -0.759998
      6          1           0       -2.728701   -1.374233    2.039303
      7          1           0       -1.932535    0.152079    1.673116
      8          1           0       -0.217133   -1.068111    0.292824
      9          1           0       -1.017822   -2.603095    0.661092
     10          1           0       -0.240101   -1.677516    1.956376
     11          6           0       -4.300577    0.026167    0.229225
     12          6           0       -5.142775    0.161012   -1.039831
     13          6           0       -6.457435    0.904155   -0.800665
     14          1           0       -4.886331   -0.500350    0.995429
     15          1           0       -4.089937    1.027165    0.629948
     16          1           0       -5.351273   -0.840415   -1.437685
     17          1           0       -4.555107    0.685896   -1.803873
     18          1           0       -6.265986    1.914759   -0.425661
     19          1           0       -7.066675    0.379775   -0.057393
     20          1           0       -7.043707    0.989179   -1.720946
     21          6           0        2.336401    2.642687    0.595097
     22          6           0        2.015694    1.582637    1.449475
     23          6           0        2.293055    0.263368    1.079140
     24          6           0        2.894430    0.039391   -0.158388
     25          6           0        3.225967    1.074253   -1.031562
     26          6           0        2.939451    2.385565   -0.640516
     27          1           0        2.117385    3.664437    0.890828
     28          1           0        1.547307    1.779343    2.409666
     29          1           0        2.055369   -0.576074    1.721213
     30          1           0        3.692350    0.846786   -1.982437
     31          1           0        3.189627    3.206845   -1.306065
     32          7           0        3.192906   -1.353049   -0.561409
     33          8           0        3.723163   -1.523880   -1.656981
     34          8           0        2.890942   -2.247244    0.225909
 ---------------------------------------------------------------------

 SCF Done:  E(RHF) =  -669.534788981     A.U. after   15 cycles
 E2 =    -0.2092460480D+01 EUMP2 =    -0.67162724946161D+03

 The electronic state is 1-A.
 Alpha  occ. eigenvalues --  -20.60768 -20.60744 -15.85802 -11.31165 -11.27768
 Alpha  occ. eigenvalues --  -11.27722 -11.27516 -11.26764 -11.26749 -11.21690
 Alpha  occ. eigenvalues --  -11.21678 -11.21487 -11.21413 -11.21165 -11.21006
 Alpha  occ. eigenvalues --   -1.59827  -1.39379  -1.19364  -1.08753  -1.08504
 Alpha  occ. eigenvalues --   -1.04769  -1.03593  -0.96045  -0.95577  -0.87063
 Alpha  occ. eigenvalues --   -0.86149  -0.82414  -0.79662  -0.78318  -0.77451
 Alpha  occ. eigenvalues --   -0.72022  -0.71152  -0.70476  -0.65143  -0.65010
 Alpha  occ. eigenvalues --   -0.64766  -0.62150  -0.60983  -0.59406  -0.57653
 Alpha  occ. eigenvalues --   -0.55412  -0.55214  -0.53128  -0.52980  -0.52563
 Alpha  occ. eigenvalues --   -0.52432  -0.49939  -0.48782  -0.48778  -0.47971
 Alpha  occ. eigenvalues --   -0.46695  -0.45859  -0.45788  -0.44759  -0.43845
 Alpha  occ. eigenvalues --   -0.37341  -0.36325
 Alpha virt. eigenvalues --    0.05065   0.11261   0.16517   0.20992   0.22831
 Alpha virt. eigenvalues --    0.24120   0.26385   0.26538   0.27401   0.27849
 Alpha virt. eigenvalues --    0.28650   0.30255   0.31252   0.31536   0.31917

 Mulliken charges:
               1
     1  C   -0.298617
     2  C   -0.299860
     3  C   -0.474763
     4  H    0.152384
     5  H    0.149808
     6  H    0.152268
     7  H    0.144981
     8  H    0.156510
     9  H    0.163167
    10  H    0.153078
    11  C   -0.297925
    12  C   -0.299701
    13  C   -0.475631
    14  H    0.149821
    15  H    0.147171
    16  H    0.153351
    17  H    0.151609
    18  H    0.153939
    19  H    0.155483
    20  H    0.160646
    21  C   -0.170533
    22  C   -0.220865
    23  C   -0.168847
    24  C    0.156327
    25  C   -0.170830
    26  C   -0.219200
    27  H    0.225523
    28  H    0.223499
    29  H    0.280091
    30  H    0.275623
    31  H    0.223283
    32  N    0.488426
    33  O   -0.460708
    34  O   -0.459506
 Sum of Mulliken charges =  -0.00000

 Dipole moment (field-independent basis, Debye):
    X=             -1.0425    Y=              4.8136    Z=              1.3763  Tot=              5.1139
 Quadrupole moment (field-independent basis, Debye-Ang):
   XX=           -101.7180   YY=            -93.6591   ZZ=            -91.7958
   XY=             16.0807   XZ=              2.4583   YZ=             -2.5542

 Normal termination of Gaussian 16 at Wed May  5 18:35:43 2021.
