 Gaussian 16, Revision A.03,
 Gaussian 16:  EM64L-G16RevA.03 25-Dec-2016

 -------------
 #p 6-31g* mp2
 -------------

 ------------------------------------------------------
 Input file generated by CHIRIPA (05-May-2021 14:53:18)
 ------------------------------------------------------
 Symbolic Z-matrix:
 Charge =  0 Multiplicity = 1

                         Standard orientation:
 ---------------------------------------------------------------------
 Center     Atomic      Atomic             Coordinates (Angstroms)
 Number     Number       Type             X           Y           Z
 ---------------------------------------------------------------------
      1          6           0        3.533313   -0.910396   -0.223125
      2          6           0        2.377578   -1.395352    0.652705
      3          6           0        1.543784   -2.486453   -0.019665
      4          1           0        3.131562   -0.533467   -1.173634
      5          1           0        4.178153   -1.764286   -0.473023
      6          1           0        1.735875   -0.540557    0.902020
      7          1           0        2.782111   -1.770994    1.601316
      8          1           0        2.165145   -3.356961   -0.253606
      9          1           0        1.112964   -2.119533   -0.956875
     10          1           0        0.723142   -2.818494    0.623884
     11          6           0        4.376079    0.180430    0.435337
     12          6           0        5.531814    0.665386   -0.440494
     13          6           0        6.365608    1.756487    0.231876
     14          1           0        3.731239    1.034319    0.685234
     15          1           0        4.777830   -0.196499    1.385845
     16          1           0        5.127280    1.041027   -1.389104
     17          1           0        6.173517   -0.189410   -0.689809
     18          1           0        6.796428    1.389566    1.169087
     19          1           0        5.744247    2.626994    0.465818
     20          1           0        7.186250    2.088528   -0.411673
     21          6           0       -3.157595   -2.236690   -0.123651
     22          6           0       -4.194122   -1.518174    0.481219
     23          6           0       -4.166908   -0.120678    0.509683
     24          6           0       -3.083033    0.528944   -0.078955
     25          6           0       -2.035213   -0.158772   -0.689206
     26          6           0       -2.083342   -1.555895   -0.705907
     27          1           0       -3.186859   -3.322153   -0.141193
     28          1           0       -5.029656   -2.044237    0.934195
     29          1           0       -4.956028    0.460418    0.971245
     30          1           0       -1.215537    0.393573   -1.132449
     31          1           0       -1.276964   -2.111300   -1.176360
     32          7           0       -3.043153    2.008214   -0.055048
     33          8           0       -2.077090    2.556943   -0.580651
     34          8           0       -3.978710    2.590927    0.488841
 ---------------------------------------------------------------------

 SCF Done:  E(RHF) =  -669.535222430     A.U. after   15 cycles
 E2 =    -0.2091490596D+01 EUMP2 =    -0.67162671302574D+03

 The electronic state is 1-A.
 Alpha  occ. eigenvalues --  -20.60758 -20.60752 -15.85809 -11.31162 -11.27717
 Alpha  occ. eigenvalues --  -11.27710 -11.27443 -11.26741 -11.26662 -11.22117
 Alpha  occ. eigenvalues --  -11.21934 -11.21746 -11.21706 -11.21544 -11.21094
 Alpha  occ. eigenvalues --   -1.59833  -1.39387  -1.19323  -1.08747  -1.08715
 Alpha  occ. eigenvalues --   -1.04724  -1.03884  -0.96363  -0.95560  -0.87399
 Alpha  occ. eigenvalues --   -0.86112  -0.82393  -0.79963  -0.78510  -0.77442
 Alpha  occ. eigenvalues --   -0.72028  -0.71155  -0.70433  -0.65394  -0.64971
 Alpha  occ. eigenvalues --   -0.64731  -0.62147  -0.61226  -0.59742  -0.57941
 Alpha  occ. eigenvalues --   -0.55696  -0.55198  -0.53222  -0.53024  -0.52791
 Alpha  occ. eigenvalues --   -0.52667  -0.50272  -0.48785  -0.48781  -0.48268
 Alpha  occ. eigenvalues --   -0.46968  -0.46066  -0.45954  -0.44796  -0.44120
 Alpha  occ. eigenvalues --   -0.37301  -0.36307
 Alpha virt. eigenvalues --    0.05074   0.11288   0.16538   0.20358   0.22760
 Alpha virt. eigenvalues --    0.24004   0.25707   0.26604   0.27324   0.28129
 Alpha virt. eigenvalues --    0.28809   0.30264   0.31082   0.31454   0.32382

 Mulliken charges:
               1
     1  C   -0.298676
     2  C   -0.300575
     3  C   -0.478927
     4  H    0.148955
     5  H    0.149684
     6  H    0.155608
     7  H    0.154877
     8  H    0.158228
     9  H    0.145566
    10  H    0.160616
    11  C   -0.299407
    12  C   -0.299998
    13  C   -0.476200
    14  H    0.153326
    15  H    0.150014
    16  H    0.152903
    17  H    0.151224
    18  H    0.155015
    19  H    0.157494
    20  H    0.160802
    21  C   -0.173207
    22  C   -0.218209
    23  C   -0.171397
    24  C    0.158713
    25  C   -0.173507
    26  C   -0.218638
    27  H    0.225794
    28  H    0.223208
    29  H    0.275384
    30  H    0.274443
    31  H    0.230113
    32  N    0.488119
    33  O   -0.460905
    34  O   -0.460439
 Sum of Mulliken charges =  -0.00000

 Dipole moment (field-independent basis, Debye):
    X=             -0.0065    Y=             -5.1917    Z=             -0.0178  Tot=              5.1917
 Quadrupole moment (field-independent basis, Debye-Ang):
   XX=            -89.9879   YY=           -101.0608   ZZ=            -94.2075
   XY=             15.2521   XZ=             -2.0920   YZ=             -0.2351

 Normal termination of Gaussian 16 at Thu May  6 15:40:27 2021.
