 Gaussian 16, Revision A.03,
 Gaussian 16:  EM64L-G16RevA.03 25-Dec-2016

 -------------
 #p 6-31g* mp2
 -------------

 ------------------------------------------------------
 Input file generated by CHIRIPA (05-May-2021 14:57:24)
 ------------------------------------------------------
 Symbolic Z-matrix:
 Charge =  0 Multiplicity = 1

                         Standard orientation:
 ---------------------------------------------------------------------
 Center     Atomic      Atomic             Coordinates (Angstroms)
 Number     Number       Type             X           Y           Z
 ---------------------------------------------------------------------
      1          6           0       -2.280646   -2.360473    0.405258
      2          6           0       -1.425117   -1.263239    0.261495
      3          6           0       -1.942100    0.013985    0.024904
      4          6           0       -3.325854    0.158459   -0.062517
      5          6           0       -4.204191   -0.915112    0.076257
      6          6           0       -3.665013   -2.183220    0.312344
      7          1           0       -1.870421   -3.349110    0.588852
      8          1           0       -0.349586   -1.397924    0.333177
      9          1           0       -1.302677    0.880748   -0.090328
     10          1           0       -5.271972   -0.749541   -0.000219
     11          1           0       -4.331828   -3.033531    0.423580
     12          7           0       -3.884910    1.505773   -0.312719
     13          8           0       -5.107681    1.606621   -0.385499
     14          8           0       -3.089740    2.435439   -0.431309
     15          6           0        3.423984    2.518448    0.572116
     16          6           0        2.932536    1.622719    1.527454
     17          6           0        2.822763    0.260395    1.233225
     18          6           0        3.215321   -0.173731   -0.031972
     19          6           0        3.708778    0.693962   -1.005058
     20          6           0        3.809857    2.052032   -0.688868
     21          1           0        3.505882    3.575081    0.809210
     22          1           0        2.632112    1.982116    2.507569
     23          1           0        2.445666   -0.454880    1.954057
     24          1           0        4.000358    0.305900   -1.973463
     25          1           0        4.191875    2.745378   -1.432762
     26          7           0        3.103711   -1.613711   -0.355083
     27          8           0        3.456220   -1.971021   -1.477003
     28          8           0        2.665835   -2.357792    0.519700
 ---------------------------------------------------------------------

 SCF Done:  E(RHF) =  -868.339951596     A.U. after   16 cycles
 E2 =    -0.2599068969D+01 EUMP2 =    -0.87093902056542D+03

 The electronic state is 1-A.
 Alpha  occ. eigenvalues --  -20.61733 -20.61679 -20.60658 -20.60645 -15.86717
 Alpha  occ. eigenvalues --  -15.85702 -11.31872 -11.30924 -11.28423 -11.28355
 Alpha  occ. eigenvalues --  -11.28028 -11.27476 -11.27464 -11.27340 -11.27302
 Alpha  occ. eigenvalues --  -11.27094 -11.26441 -11.26342  -1.60767  -1.59732
 Alpha  occ. eigenvalues --   -1.40326  -1.39291  -1.20005  -1.19066  -1.09427
 Alpha  occ. eigenvalues --   -1.08467  -1.05361  -1.04447  -0.96299  -0.95334
 Alpha  occ. eigenvalues --   -0.86764  -0.85834  -0.83132  -0.82177  -0.78224
 Alpha  occ. eigenvalues --   -0.77260  -0.72931  -0.72087  -0.71923  -0.71070
 Alpha  occ. eigenvalues --   -0.71054  -0.70133  -0.65643  -0.65335  -0.64706
 Alpha  occ. eigenvalues --   -0.64413  -0.62706  -0.61794  -0.55826  -0.54887
 Alpha  occ. eigenvalues --   -0.53713  -0.53430  -0.52787  -0.52519  -0.49713
 Alpha  occ. eigenvalues --   -0.49669  -0.48689  -0.48665  -0.45752  -0.44729
 Alpha  occ. eigenvalues --   -0.37952  -0.37011  -0.36963  -0.36060
 Alpha virt. eigenvalues --    0.04265   0.05265   0.10627   0.11605   0.15802
 Alpha virt. eigenvalues --    0.16809   0.20831   0.21816   0.26479   0.27213
 Alpha virt. eigenvalues --    0.28110   0.28731   0.30220   0.31238   0.32251

 Mulliken charges:
               1
     1  C   -0.171407
     2  C   -0.224187
     3  C   -0.173318
     4  C    0.158395
     5  C   -0.171875
     6  C   -0.218828
     7  H    0.231899
     8  H    0.231055
     9  H    0.272144
    10  H    0.274264
    11  H    0.223085
    12  N    0.488276
    13  O   -0.460931
    14  O   -0.463736
    15  C   -0.169184
    16  C   -0.218200
    17  C   -0.177892
    18  C    0.155662
    19  C   -0.170576
    20  C   -0.217695
    21  H    0.230376
    22  H    0.227141
    23  H    0.274039
    24  H    0.277367
    25  H    0.227356
    26  N    0.487400
    27  O   -0.454124
    28  O   -0.466507
 Sum of Mulliken charges =  -0.00000

 Dipole moment (field-independent basis, Debye):
    X=              2.6734    Y=              0.3759    Z=              1.9719  Tot=              3.3432
 Quadrupole moment (field-independent basis, Debye-Ang):
   XX=           -110.8582   YY=           -107.7116   ZZ=           -101.6249
   XY=             35.8734   XZ=             -1.6924   YZ=             -0.7547

 Normal termination of Gaussian 16 at Thu May  6 03:27:19 2021.
