 Gaussian 16, Revision A.03,
 Gaussian 16:  EM64L-G16RevA.03 25-Dec-2016

 -------------
 #p 6-31g* mp2
 -------------

 ------------------------------------------------------
 Input file generated by CHIRIPA (05-May-2021 14:53:12)
 ------------------------------------------------------
 Symbolic Z-matrix:
 Charge =  0 Multiplicity = 1

                         Standard orientation:
 ---------------------------------------------------------------------
 Center     Atomic      Atomic             Coordinates (Angstroms)
 Number     Number       Type             X           Y           Z
 ---------------------------------------------------------------------
      1          6           0       -3.219380   -0.092947   -0.713506
      2          6           0       -4.218363   -1.139957   -0.219756
      3          6           0       -4.582361   -2.163408   -1.295790
      4          1           0       -3.641368    0.424484   -1.585938
      5          1           0       -2.308870   -0.600340   -1.061240
      6          1           0       -5.126178   -0.630649    0.128229
      7          1           0       -3.794027   -1.654824    0.651718
      8          1           0       -3.689743   -2.697627   -1.637029
      9          1           0       -5.029462   -1.667632   -2.163493
     10          1           0       -5.297622   -2.902397   -0.921416
     11          6           0       -2.845682    0.937170    0.350888
     12          6           0       -1.846700    1.984180   -0.142862
     13          6           0       -1.482702    3.007631    0.933171
     14          1           0       -3.756193    1.444563    0.698622
     15          1           0       -2.423694    0.419739    1.223319
     16          1           0       -2.271035    2.499047   -1.014337
     17          1           0       -0.938885    1.474872   -0.490847
     18          1           0       -1.035600    2.511855    1.800874
     19          1           0       -2.375320    3.541850    1.274410
     20          1           0       -0.767440    3.746620    0.558797
     21          6           0        1.220678   -1.279472    2.177569
     22          6           0        1.038321    0.064101    1.833940
     23          6           0        1.669717    0.601016    0.708059
     24          6           0        2.480196   -0.237962   -0.055177
     25          6           0        2.681628   -1.580568    0.261245
     26          6           0        2.040303   -2.096078    1.391510
     27          1           0        0.726337   -1.688247    3.053883
     28          1           0        0.402357    0.700635    2.442560
     29          1           0        1.545967    1.637660    0.419140
     30          1           0        3.321567   -2.190370   -0.364884
     31          1           0        2.183749   -3.139881    1.655977
     32          7           0        3.153883    0.319117   -1.249418
     33          8           0        3.862869   -0.440900   -1.905429
     34          8           0        2.960175    1.505223   -1.506841
 ---------------------------------------------------------------------

 SCF Done:  E(RHF) =  -669.534916383     A.U. after   15 cycles
 E2 =    -0.2093414989D+01 EUMP2 =    -0.67162833137131D+03

 The electronic state is 1-A.
 Alpha  occ. eigenvalues --  -20.60805 -20.60800 -15.85860 -11.31240 -11.27814
 Alpha  occ. eigenvalues --  -11.27791 -11.27558 -11.26828 -11.26809 -11.22015
 Alpha  occ. eigenvalues --  -11.21918 -11.21834 -11.21817 -11.21664 -11.21313
 Alpha  occ. eigenvalues --   -1.59881  -1.39433  -1.19421  -1.08838  -1.08797
 Alpha  occ. eigenvalues --   -1.04837  -1.03952  -0.96432  -0.95639  -0.87442
 Alpha  occ. eigenvalues --   -0.86222  -0.82474  -0.80012  -0.78619  -0.77525
 Alpha  occ. eigenvalues --   -0.72076  -0.71206  -0.70530  -0.65519  -0.65056
 Alpha  occ. eigenvalues --   -0.64831  -0.62339  -0.61191  -0.59785  -0.58023
 Alpha  occ. eigenvalues --   -0.55759  -0.55283  -0.53153  -0.53120  -0.53005
 Alpha  occ. eigenvalues --   -0.52756  -0.50368  -0.48839  -0.48830  -0.48321
 Alpha  occ. eigenvalues --   -0.47037  -0.46168  -0.46071  -0.44833  -0.44190
 Alpha  occ. eigenvalues --   -0.37398  -0.36383
 Alpha virt. eigenvalues --    0.04988   0.11113   0.16397   0.19614   0.22903
 Alpha virt. eigenvalues --    0.23847   0.25384   0.26471   0.26779   0.28231
 Alpha virt. eigenvalues --    0.28962   0.30066   0.31285   0.31611   0.32200

 Mulliken charges:
               1
     1  C   -0.299088
     2  C   -0.299366
     3  C   -0.475972
     4  H    0.152155
     5  H    0.152475
     6  H    0.152148
     7  H    0.148841
     8  H    0.155880
     9  H    0.156891
    10  H    0.160142
    11  C   -0.296966
    12  C   -0.305068
    13  C   -0.481514
    14  H    0.150204
    15  H    0.142733
    16  H    0.157700
    17  H    0.156974
    18  H    0.142879
    19  H    0.160487
    20  H    0.165519
    21  C   -0.171786
    22  C   -0.221277
    23  C   -0.173330
    24  C    0.157375
    25  C   -0.170826
    26  C   -0.218568
    27  H    0.226160
    28  H    0.228498
    29  H    0.279442
    30  H    0.275828
    31  H    0.223683
    32  N    0.488380
    33  O   -0.460279
    34  O   -0.460352
 Sum of Mulliken charges =  -0.00000

 Dipole moment (field-independent basis, Debye):
    X=             -2.4174    Y=             -1.9466    Z=              4.0884  Tot=              5.1331
 Quadrupole moment (field-independent basis, Debye-Ang):
   XX=           -105.7049   YY=            -90.0495   ZZ=            -96.1645
   XY=             -7.3917   XZ=             10.4592   YZ=             -0.9088

 Normal termination of Gaussian 16 at Thu May  6 00:57:02 2021.
