 Gaussian 16, Revision A.03,
 Gaussian 16:  EM64L-G16RevA.03 25-Dec-2016

 -------------
 #p 6-31g* mp2
 -------------

 ------------------------------------------------------
 Input file generated by CHIRIPA (05-May-2021 14:51:11)
 ------------------------------------------------------
 Symbolic Z-matrix:
 Charge =  0 Multiplicity = 1

                         Standard orientation:
 ---------------------------------------------------------------------
 Center     Atomic      Atomic             Coordinates (Angstroms)
 Number     Number       Type             X           Y           Z
 ---------------------------------------------------------------------
      1          6           0       -3.425502   -0.113358   -0.287783
      2          6           0       -4.936515   -0.347072   -0.302043
      3          6           0       -5.308948   -1.784506   -0.666559
      4          1           0       -3.013209   -0.361251   -1.275461
      5          1           0       -2.961087   -0.806108    0.427627
      6          1           0       -5.398097    0.346860   -1.016197
      7          1           0       -5.345287   -0.098411    0.685727
      8          1           0       -4.875342   -2.488583    0.050979
      9          1           0       -4.928452   -2.040782   -1.660615
     10          1           0       -6.393776   -1.929390   -0.670803
     11          6           0       -3.037427    1.318975    0.074914
     12          6           0       -1.526415    1.552690    0.089174
     13          6           0       -1.153981    2.990124    0.453690
     14          1           0       -3.501842    2.011725   -0.640496
     15          1           0       -3.449721    1.566868    1.062592
     16          1           0       -1.117643    1.304029   -0.898596
     17          1           0       -1.064832    0.858758    0.803328
     18          1           0       -1.534478    3.246400    1.447746
     19          1           0       -1.587588    3.694201   -0.263848
     20          1           0       -0.069154    3.135008    0.457934
     21          6           0        2.766647   -1.184842    0.275591
     22          6           0        1.346250   -0.743299    0.629847
     23          6           0        0.428223   -1.918937    0.965848
     24          1           0        2.726905   -1.876267   -0.577226
     25          1           0        3.187884   -1.751154    1.117757
     26          1           0        0.928322   -0.176803   -0.212194
     27          1           0        1.389395   -0.052695    1.481798
     28          1           0        0.819158   -2.481078    1.820112
     29          1           0        0.355465   -2.605892    0.116496
     30          1           0       -0.582117   -1.580605    1.216056
     31          6           0        3.696283   -0.020776   -0.062722
     32          6           0        5.116679   -0.462318   -0.416978
     33          6           0        6.034706    0.713319   -0.752979
     34          1           0        3.275046    0.545537   -0.904888
     35          1           0        3.736025    0.670650    0.790095
     36          1           0        5.073535   -1.152923   -1.268929
     37          1           0        5.534608   -1.028815    0.425063
     38          1           0        6.107464    1.400274    0.096373
     39          1           0        5.643772    1.275461   -1.607244
     40          1           0        7.045047    0.374987   -1.003187
 ---------------------------------------------------------------------

 SCF Done:  E(RHF) =  -470.731893005     A.U. after   11 cycles
 E2 =    -0.1584436436D+01 EUMP2 =    -0.47231632944177D+03

 The electronic state is 1-A.
 Alpha  occ. eigenvalues --  -11.21596 -11.21592 -11.21510 -11.21508 -11.21390
 Alpha  occ. eigenvalues --  -11.21381 -11.21324 -11.21316 -11.21066 -11.21061
 Alpha  occ. eigenvalues --  -11.21047 -11.21036  -1.08458  -1.08367  -1.03587
 Alpha  occ. eigenvalues --   -1.03436  -0.95974  -0.95956  -0.86988  -0.86970
 Alpha  occ. eigenvalues --   -0.79801  -0.79403  -0.78385  -0.78054  -0.65076
 Alpha  occ. eigenvalues --   -0.65033  -0.60958  -0.60890  -0.59540  -0.59150
 Alpha  occ. eigenvalues --   -0.57663  -0.57489  -0.55269  -0.55235  -0.52742
 Alpha  occ. eigenvalues --   -0.52596  -0.52403  -0.52366  -0.49910  -0.49901
 Alpha  occ. eigenvalues --   -0.48162  -0.47682  -0.46668  -0.46544  -0.45952
 Alpha  occ. eigenvalues --   -0.45769  -0.45604  -0.45390  -0.43756  -0.43748
 Alpha virt. eigenvalues --    0.21336   0.23035   0.23784   0.24204   0.25457
 Alpha virt. eigenvalues --    0.26295   0.26823   0.27360   0.28540   0.29227
 Alpha virt. eigenvalues --    0.30585   0.31125   0.31673   0.31863   0.32529

 Mulliken charges:
               1
     1  C   -0.302096
     2  C   -0.299387
     3  C   -0.475694
     4  H    0.149433
     5  H    0.152705
     6  H    0.152009
     7  H    0.151857
     8  H    0.155367
     9  H    0.155124
    10  H    0.160207
    11  C   -0.297549
    12  C   -0.306952
    13  C   -0.476011
    14  H    0.149121
    15  H    0.149066
    16  H    0.150514
    17  H    0.163378
    18  H    0.154738
    19  H    0.154818
    20  H    0.160765
    21  C   -0.297785
    22  C   -0.304609
    23  C   -0.481528
    24  H    0.149366
    25  H    0.149038
    26  H    0.159510
    27  H    0.150493
    28  H    0.154962
    29  H    0.155642
    30  H    0.164050
    31  C   -0.298177
    32  C   -0.299592
    33  C   -0.475690
    34  H    0.149158
    35  H    0.149409
    36  H    0.151904
    37  H    0.151952
    38  H    0.155144
    39  H    0.155109
    40  H    0.160230
 Sum of Mulliken charges =  -0.00000

 Dipole moment (field-independent basis, Debye):
    X=             -0.0036    Y=             -0.0008    Z=             -0.0045  Tot=              0.0058
 Quadrupole moment (field-independent basis, Debye-Ang):
   XX=            -85.7078   YY=            -86.3764   ZZ=            -82.9497
   XY=             -0.9235   XZ=              0.3709   YZ=             -0.2020

 Normal termination of Gaussian 16 at Wed May  5 21:28:53 2021.
