 Gaussian 16, Revision A.03,
 Gaussian 16:  EM64L-G16RevA.03 25-Dec-2016

 -------------
 #p 6-31g* mp2
 -------------

 ------------------------------------------------------
 Input file generated by CHIRIPA (05-May-2021 14:53:12)
 ------------------------------------------------------
 Symbolic Z-matrix:
 Charge =  0 Multiplicity = 1

                         Standard orientation:
 ---------------------------------------------------------------------
 Center     Atomic      Atomic             Coordinates (Angstroms)
 Number     Number       Type             X           Y           Z
 ---------------------------------------------------------------------
      1          6           0        3.921811   -0.492147    0.438149
      2          6           0        4.296264   -1.842185   -0.174362
      3          6           0        4.812825   -2.839249    0.863338
      4          1           0        4.799685   -0.071655    0.947530
      5          1           0        3.156593   -0.647712    1.211218
      6          1           0        5.059546   -1.683960   -0.947007
      7          1           0        3.417449   -2.259423   -0.682509
      8          1           0        4.053240   -3.026418    1.629236
      9          1           0        5.704667   -2.447686    1.363235
     10          1           0        5.074617   -3.797474    0.403851
     11          6           0        3.403686    0.515272   -0.586733
     12          6           0        3.029234    1.865309    0.025778
     13          6           0        2.512673    2.862374   -1.011922
     14          1           0        4.168905    0.670836   -1.359802
     15          1           0        2.525813    0.094780   -1.096114
     16          1           0        3.908049    2.282547    0.533925
     17          1           0        2.265951    1.707085    0.798423
     18          1           0        1.620831    2.470811   -1.511819
     19          1           0        3.272258    3.049543   -1.777820
     20          1           0        2.250881    3.820599   -0.552435
     21          6           0       -1.054391    1.674215    0.574640
     22          6           0       -0.793456    0.612639   -0.297993
     23          6           0       -1.787207   -0.325916   -0.591460
     24          6           0       -3.036230   -0.171763    0.008098
     25          6           0       -3.326921    0.875023    0.881611
     26          6           0       -2.318064    1.801795    1.160623
     27          1           0       -0.276554    2.398731    0.796998
     28          1           0        0.187003    0.511058   -0.754530
     29          1           0       -1.612302   -1.157360   -1.263418
     30          1           0       -4.314043    0.949930    1.321382
     31          1           0       -2.523551    2.625222    1.838700
     32          7           0       -4.096266   -1.159132   -0.294932
     33          8           0       -5.188423   -1.001074    0.246220
     34          8           0       -3.814892   -2.072394   -1.067861
 ---------------------------------------------------------------------

 SCF Done:  E(RHF) =  -669.534896936     A.U. after   15 cycles
 E2 =    -0.2092944961D+01 EUMP2 =    -0.67162784189674D+03

 The electronic state is 1-A.
 Alpha  occ. eigenvalues --  -20.60747 -20.60741 -15.85800 -11.31162 -11.27734
 Alpha  occ. eigenvalues --  -11.27729 -11.27442 -11.26736 -11.26701 -11.22874
 Alpha  occ. eigenvalues --  -11.22541 -11.22358 -11.22263 -11.22195 -11.21556
 Alpha  occ. eigenvalues --   -1.59822  -1.39376  -1.19333  -1.09441  -1.08722
 Alpha  occ. eigenvalues --   -1.04747  -1.04476  -0.96925  -0.95559  -0.87932
 Alpha  occ. eigenvalues --   -0.86140  -0.82399  -0.80569  -0.79189  -0.77452
 Alpha  occ. eigenvalues --   -0.72019  -0.71145  -0.70460  -0.66275  -0.64981
 Alpha  occ. eigenvalues --   -0.64652  -0.62258  -0.61626  -0.60327  -0.58516
 Alpha  occ. eigenvalues --   -0.56258  -0.55188  -0.53598  -0.53329  -0.53066
 Alpha  occ. eigenvalues --   -0.52839  -0.50873  -0.48872  -0.48775  -0.48761
 Alpha  occ. eigenvalues --   -0.47623  -0.46714  -0.46619  -0.44782  -0.44729
 Alpha  occ. eigenvalues --   -0.37300  -0.36339
 Alpha virt. eigenvalues --    0.05081   0.11210   0.16557   0.18482   0.22703
 Alpha virt. eigenvalues --    0.23954   0.24557   0.25704   0.26843   0.28448
 Alpha virt. eigenvalues --    0.29513   0.29866   0.30740   0.31211   0.31561

 Mulliken charges:
               1
     1  C   -0.299313
     2  C   -0.300282
     3  C   -0.476453
     4  H    0.152546
     5  H    0.150958
     6  H    0.153542
     7  H    0.151869
     8  H    0.156773
     9  H    0.156031
    10  H    0.163073
    11  C   -0.301789
    12  C   -0.307537
    13  C   -0.481092
    14  H    0.155630
    15  H    0.143373
    16  H    0.159494
    17  H    0.147311
    18  H    0.151907
    19  H    0.163208
    20  H    0.161009
    21  C   -0.176581
    22  C   -0.227199
    23  C   -0.173320
    24  C    0.158710
    25  C   -0.170902
    26  C   -0.218799
    27  H    0.231199
    28  H    0.234995
    29  H    0.275699
    30  H    0.275489
    31  H    0.223446
    32  N    0.488046
    33  O   -0.460525
    34  O   -0.460513
 Sum of Mulliken charges =  -0.00000

 Dipole moment (field-independent basis, Debye):
    X=              4.0030    Y=              3.4598    Z=              1.0818  Tot=              5.4004
 Quadrupole moment (field-independent basis, Debye-Ang):
   XX=           -113.9531   YY=            -95.5498   ZZ=            -93.8019
   XY=            -12.4121   XZ=             -5.8844   YZ=              1.9756

 Normal termination of Gaussian 16 at Thu May  6 11:57:54 2021.
