 Gaussian 16, Revision A.03,
 Gaussian 16:  EM64L-G16RevA.03 25-Dec-2016

 -------------
 #p 6-31g* mp2
 -------------

 ------------------------------------------------------
 Input file generated by CHIRIPA (05-May-2021 14:53:14)
 ------------------------------------------------------
 Symbolic Z-matrix:
 Charge =  0 Multiplicity = 1

                         Standard orientation:
 ---------------------------------------------------------------------
 Center     Atomic      Atomic             Coordinates (Angstroms)
 Number     Number       Type             X           Y           Z
 ---------------------------------------------------------------------
      1          6           0        3.474232    0.570204   -0.527510
      2          6           0        2.695552    1.885872   -0.553229
      3          6           0        3.185244    2.841445   -1.641749
      4          1           0        4.540755    0.785629   -0.375635
      5          1           0        3.390368    0.083319   -1.508991
      6          1           0        2.779712    2.369459    0.428441
      7          1           0        1.630733    1.667279   -0.704869
      8          1           0        3.085563    2.382425   -2.630671
      9          1           0        4.241070    3.088594   -1.490922
     10          1           0        2.614875    3.775543   -1.642246
     11          6           0        2.996315   -0.395548    0.555378
     12          6           0        3.774995   -1.711215    0.581098
     13          6           0        3.285303   -2.666788    1.669618
     14          1           0        3.080179    0.091338    1.536859
     15          1           0        1.929792   -0.610972    0.403504
     16          1           0        4.839814   -1.492622    0.732737
     17          1           0        3.690835   -2.194802   -0.400572
     18          1           0        2.229477   -2.913937    1.518790
     19          1           0        3.384984   -2.207768    2.658539
     20          1           0        3.855672   -3.600886    1.670114
     21          6           0       -2.738430    1.703512    1.773043
     22          6           0       -3.886584    1.151980    1.195050
     23          6           0       -3.781699    0.169692    0.205779
     24          6           0       -2.507171   -0.239511   -0.183350
     25          6           0       -1.344469    0.290848    0.373548
     26          6           0       -1.473268    1.271947    1.361173
     27          1           0       -2.829195    2.466115    2.540894
     28          1           0       -4.870421    1.485218    1.512950
     29          1           0       -4.654001   -0.274180   -0.258423
     30          1           0       -0.377390   -0.061589    0.035962
     31          1           0       -0.579860    1.698503    1.808296
     32          7           0       -2.383477   -1.278785   -1.229776
     33          8           0       -1.249083   -1.622198   -1.555132
     34          8           0       -3.423260   -1.730277   -1.704794
 ---------------------------------------------------------------------

 SCF Done:  E(RHF) =  -669.535699930     A.U. after   15 cycles
 E2 =    -0.2092056720D+01 EUMP2 =    -0.67162775664956D+03

 The electronic state is 1-A.
 Alpha  occ. eigenvalues --  -20.60787 -20.60779 -15.85836 -11.31172 -11.27743
 Alpha  occ. eigenvalues --  -11.27713 -11.27476 -11.26760 -11.26730 -11.22072
 Alpha  occ. eigenvalues --  -11.21784 -11.21679 -11.21632 -11.21348 -11.21084
 Alpha  occ. eigenvalues --   -1.59860  -1.39415  -1.19344  -1.08745  -1.08721
 Alpha  occ. eigenvalues --   -1.04741  -1.03754  -0.96192  -0.95585  -0.87209
 Alpha  occ. eigenvalues --   -0.86143  -0.82417  -0.79843  -0.78588  -0.77454
 Alpha  occ. eigenvalues --   -0.72057  -0.71181  -0.70466  -0.65385  -0.64993
 Alpha  occ. eigenvalues --   -0.64711  -0.62090  -0.61137  -0.59574  -0.57818
 Alpha  occ. eigenvalues --   -0.55477  -0.55238  -0.53076  -0.52891  -0.52843
 Alpha  occ. eigenvalues --   -0.52599  -0.50127  -0.48816  -0.48811  -0.48155
 Alpha  occ. eigenvalues --   -0.46872  -0.46079  -0.45981  -0.44826  -0.44032
 Alpha  occ. eigenvalues --   -0.37326  -0.36337
 Alpha virt. eigenvalues --    0.05035   0.11288   0.16520   0.19558   0.22987
 Alpha virt. eigenvalues --    0.24095   0.24611   0.26138   0.27784   0.28123
 Alpha virt. eigenvalues --    0.30240   0.31088   0.31158   0.31732   0.32236

 Mulliken charges:
               1
     1  C   -0.298385
     2  C   -0.303142
     3  C   -0.475681
     4  H    0.151214
     5  H    0.156810
     6  H    0.147511
     7  H    0.148473
     8  H    0.159910
     9  H    0.156358
    10  H    0.159737
    11  C   -0.305432
    12  C   -0.299170
    13  C   -0.477180
    14  H    0.145872
    15  H    0.149386
    16  H    0.152032
    17  H    0.158518
    18  H    0.159108
    19  H    0.152261
    20  H    0.162249
    21  C   -0.170739
    22  C   -0.218862
    23  C   -0.170028
    24  C    0.159490
    25  C   -0.183334
    26  C   -0.222949
    27  H    0.225629
    28  H    0.223438
    29  H    0.275530
    30  H    0.290746
    31  H    0.225540
    32  N    0.486684
    33  O   -0.461514
    34  O   -0.460081
 Sum of Mulliken charges =  -0.00000

 Dipole moment (field-independent basis, Debye):
    X=             -0.3218    Y=              3.5929    Z=              3.5963  Tot=              5.0937
 Quadrupole moment (field-independent basis, Debye-Ang):
   XX=            -86.6237   YY=            -97.5473   ZZ=            -96.8842
   XY=             -9.0635   XZ=             -8.6937   YZ=             -0.6421

 Normal termination of Gaussian 16 at Thu May  6 17:07:23 2021.
