 Gaussian 16, Revision A.03,
 Gaussian 16:  EM64L-G16RevA.03 25-Dec-2016

 -------------
 #p 6-31g* mp2
 -------------

 ------------------------------------------------------
 Input file generated by CHIRIPA (05-May-2021 14:57:27)
 ------------------------------------------------------
 Symbolic Z-matrix:
 Charge =  0 Multiplicity = 1

                         Standard orientation:
 ---------------------------------------------------------------------
 Center     Atomic      Atomic             Coordinates (Angstroms)
 Number     Number       Type             X           Y           Z
 ---------------------------------------------------------------------
      1          6           0       -2.885426    2.226710   -1.086833
      2          6           0       -2.212006    1.966437    0.111200
      3          6           0       -2.383364    0.746036    0.771357
      4          6           0       -3.239552   -0.195690    0.202686
      5          6           0       -3.924499    0.033951   -0.989539
      6          6           0       -3.738020    1.261339   -1.632418
      7          1           0       -2.746437    3.177461   -1.592948
      8          1           0       -1.549248    2.714298    0.537229
      9          1           0       -1.874382    0.518355    1.700074
     10          1           0       -4.578613   -0.731141   -1.389773
     11          1           0       -4.262301    1.460726   -2.562697
     12          7           0       -3.428965   -1.491372    0.892418
     13          8           0       -4.188802   -2.304497    0.370774
     14          8           0       -2.814003   -1.669269    1.941614
     15          6           0        2.834890    2.300374    0.834180
     16          6           0        4.043545    1.638095    1.073053
     17          6           0        4.261415    0.353410    0.566432
     18          6           0        3.244437   -0.241972   -0.178260
     19          6           0        2.029420    0.392013   -0.433381
     20          6           0        1.833451    1.676320    0.083051
     21          1           0        2.674150    3.298201    1.231546
     22          1           0        4.823054    2.120304    1.656049
     23          1           0        5.187582   -0.182122    0.736246
     24          1           0        1.271097   -0.114385   -1.018125
     25          1           0        0.893794    2.188263   -0.104045
     26          7           0        3.463494   -1.601810   -0.719791
     27          8           0        2.551722   -2.104638   -1.372839
     28          8           0        4.542815   -2.139075   -0.480938
 ---------------------------------------------------------------------

 SCF Done:  E(RHF) =  -868.336658415     A.U. after   16 cycles
 E2 =    -0.2600386576D+01 EUMP2 =    -0.87093704499152D+03

 The electronic state is 1-A.
 Alpha  occ. eigenvalues --  -20.61052 -20.61045 -20.60835 -20.60828 -15.86118
 Alpha  occ. eigenvalues --  -15.85894 -11.31709 -11.31393 -11.28382 -11.28292
 Alpha  occ. eigenvalues --  -11.28154 -11.28002 -11.27980 -11.27817 -11.27500
 Alpha  occ. eigenvalues --  -11.27319 -11.27096 -11.27023  -1.60122  -1.59906
 Alpha  occ. eigenvalues --   -1.39669  -1.39456  -1.19934  -1.19597  -1.09285
 Alpha  occ. eigenvalues --   -1.08979  -1.05383  -1.05021  -0.96070  -0.95782
 Alpha  occ. eigenvalues --   -0.86774  -0.86422  -0.82914  -0.82607  -0.77923
 Alpha  occ. eigenvalues --   -0.77616  -0.72331  -0.72111  -0.71448  -0.71230
 Alpha  occ. eigenvalues --   -0.71023  -0.70724  -0.65584  -0.65517  -0.65256
 Alpha  occ. eigenvalues --   -0.64971  -0.62760  -0.62312  -0.55870  -0.55557
 Alpha  occ. eigenvalues --   -0.53717  -0.53528  -0.53340  -0.53034  -0.49109
 Alpha  occ. eigenvalues --   -0.49070  -0.48881  -0.48856  -0.45024  -0.44831
 Alpha  occ. eigenvalues --   -0.37928  -0.37607  -0.37031  -0.36584
 Alpha virt. eigenvalues --    0.04620   0.04941   0.10508   0.11004   0.15937
 Alpha virt. eigenvalues --    0.16391   0.19549   0.21841   0.25328   0.27761
 Alpha virt. eigenvalues --    0.27928   0.28349   0.29913   0.31449   0.31893

 Mulliken charges:
               1
     1  C   -0.171565
     2  C   -0.225443
     3  C   -0.171157
     4  C    0.159159
     5  C   -0.168188
     6  C   -0.218420
     7  H    0.226079
     8  H    0.216532
     9  H    0.278164
    10  H    0.279183
    11  H    0.226397
    12  N    0.488505
    13  O   -0.457349
    14  O   -0.458363
    15  C   -0.171471
    16  C   -0.218183
    17  C   -0.169877
    18  C    0.159624
    19  C   -0.171009
    20  C   -0.222887
    21  H    0.223115
    22  H    0.224251
    23  H    0.277117
    24  H    0.277959
    25  H    0.217459
    26  N    0.488212
    27  O   -0.458326
    28  O   -0.459520
 Sum of Mulliken charges =  -0.00000

 Dipole moment (field-independent basis, Debye):
    X=             -0.2412    Y=              9.0886    Z=             -0.5695  Tot=              9.1097
 Quadrupole moment (field-independent basis, Debye-Ang):
   XX=           -107.2928   YY=           -110.1064   ZZ=           -103.9465
   XY=              1.8750   XZ=             19.4948   YZ=              1.1874

 Normal termination of Gaussian 16 at Fri May  7 06:39:25 2021.
