 Gaussian 16, Revision A.03,
 Gaussian 16:  EM64L-G16RevA.03 25-Dec-2016

 -------------
 #p 6-31g* mp2
 -------------

 ------------------------------------------------------
 Input file generated by CHIRIPA (05-May-2021 14:51:08)
 ------------------------------------------------------
 Symbolic Z-matrix:
 Charge =  0 Multiplicity = 1

                         Standard orientation:
 ---------------------------------------------------------------------
 Center     Atomic      Atomic             Coordinates (Angstroms)
 Number     Number       Type             X           Y           Z
 ---------------------------------------------------------------------
      1          6           0       -2.249880   -0.707867   -0.288324
      2          6           0       -2.088248   -2.213645   -0.499254
      3          6           0       -0.656039   -2.609754   -0.859352
      4          1           0       -1.940737   -0.180885   -1.201377
      5          1           0       -1.566818   -0.380788    0.507817
      6          1           0       -2.772408   -2.538025   -1.293810
      7          1           0       -2.397992   -2.737114    0.414340
      8          1           0        0.036764   -2.314050   -0.064882
      9          1           0       -0.339779   -2.113830   -1.782737
     10          1           0       -0.563115   -3.690409   -1.005673
     11          6           0       -3.676173   -0.296306    0.072278
     12          6           0       -3.837805    1.209472    0.283208
     13          6           0       -5.270014    1.605581    0.643306
     14          1           0       -4.359235   -0.623385   -0.723863
     15          1           0       -3.985316   -0.823288    0.985331
     16          1           0       -3.528060    1.732941   -0.630386
     17          1           0       -3.153645    1.533852    1.077764
     18          1           0       -5.586274    1.109657    1.566691
     19          1           0       -5.962817    1.309877   -0.151164
     20          1           0       -5.362938    2.686236    0.789627
     21          6           0        2.837758    1.071301   -0.385673
     22          6           0        2.753057    2.444682    0.281136
     23          6           0        2.502143    3.573199   -0.719508
     24          1           0        3.640628    1.083688   -1.135466
     25          1           0        1.903660    0.878017   -0.931106
     26          1           0        3.686493    2.634727    0.826294
     27          1           0        1.950422    2.428966    1.029565
     28          1           0        1.561443    3.410726   -1.255500
     29          1           0        3.307380    3.617656   -1.459925
     30          1           0        2.445152    4.546097   -0.221430
     31          6           0        3.088295   -0.067128    0.601718
     32          6           0        3.172996   -1.440509   -0.065089
     33          6           0        3.423910   -2.569025    0.935553
     34          1           0        4.022393    0.126156    1.147153
     35          1           0        2.285425   -0.079515    1.351513
     36          1           0        3.975631   -1.424794   -0.813518
     37          1           0        2.239560   -1.630554   -0.610248
     38          1           0        2.618673   -2.613483    1.675972
     39          1           0        4.364609   -2.406553    1.471547
     40          1           0        3.480901   -3.541924    0.437476
 ---------------------------------------------------------------------

 SCF Done:  E(RHF) =  -470.733079155     A.U. after   11 cycles
 E2 =    -0.1583123279D+01 EUMP2 =    -0.47231620243428D+03

 The electronic state is 1-A.
 Alpha  occ. eigenvalues --  -11.21670 -11.21649 -11.21566 -11.21477 -11.21456
 Alpha  occ. eigenvalues --  -11.21412 -11.21353 -11.21294 -11.21140 -11.21106
 Alpha  occ. eigenvalues --  -11.21043 -11.21019  -1.08497  -1.08372  -1.03601
 Alpha  occ. eigenvalues --   -1.03465  -0.96052  -0.95924  -0.87071  -0.86941
 Alpha  occ. eigenvalues --   -0.79700  -0.79499  -0.78322  -0.78171  -0.65156
 Alpha  occ. eigenvalues --   -0.64992  -0.61088  -0.60808  -0.59407  -0.59298
 Alpha  occ. eigenvalues --   -0.57663  -0.57524  -0.55393  -0.55161  -0.52733
 Alpha  occ. eigenvalues --   -0.52624  -0.52500  -0.52334  -0.49994  -0.49866
 Alpha  occ. eigenvalues --   -0.48113  -0.47761  -0.46718  -0.46504  -0.45950
 Alpha  occ. eigenvalues --   -0.45785  -0.45700  -0.45476  -0.43846  -0.43726
 Alpha virt. eigenvalues --    0.20749   0.23097   0.23855   0.24687   0.25997
 Alpha virt. eigenvalues --    0.26272   0.27376   0.27574   0.28196   0.29360
 Alpha virt. eigenvalues --    0.30715   0.31141   0.31656   0.31781   0.32218

 Mulliken charges:
               1
     1  C   -0.298431
     2  C   -0.300035
     3  C   -0.479996
     4  H    0.149462
     5  H    0.148883
     6  H    0.152270
     7  H    0.152232
     8  H    0.159858
     9  H    0.155301
    10  H    0.161195
    11  C   -0.298294
    12  C   -0.299695
    13  C   -0.475757
    14  H    0.149818
    15  H    0.149858
    16  H    0.151968
    17  H    0.151840
    18  H    0.155269
    19  H    0.155298
    20  H    0.160457
    21  C   -0.298559
    22  C   -0.299457
    23  C   -0.475689
    24  H    0.149487
    25  H    0.150184
    26  H    0.151768
    27  H    0.151711
    28  H    0.155256
    29  H    0.155042
    30  H    0.160088
    31  C   -0.298012
    32  C   -0.307779
    33  C   -0.475596
    34  H    0.149346
    35  H    0.148237
    36  H    0.151523
    37  H    0.161456
    38  H    0.154054
    39  H    0.154930
    40  H    0.160508
 Sum of Mulliken charges =  -0.00000

 Dipole moment (field-independent basis, Debye):
    X=             -0.0465    Y=             -0.0258    Z=             -0.0238  Tot=              0.0583
 Quadrupole moment (field-independent basis, Debye-Ang):
   XX=            -84.7929   YY=            -85.7757   ZZ=            -84.2248
   XY=              0.7071   XZ=              0.2032   YZ=              0.3408

 Normal termination of Gaussian 16 at Thu May  6 14:51:41 2021.
