 Gaussian 16, Revision A.03,
 Gaussian 16:  EM64L-G16RevA.03 25-Dec-2016

 -------------
 #p 6-31g* mp2
 -------------

 ------------------------------------------------------
 Input file generated by CHIRIPA (05-May-2021 14:55:21)
 ------------------------------------------------------
 Symbolic Z-matrix:
 Charge =  0 Multiplicity = 1

                         Standard orientation:
 ---------------------------------------------------------------------
 Center     Atomic      Atomic             Coordinates (Angstroms)
 Number     Number       Type             X           Y           Z
 ---------------------------------------------------------------------
      1          6           0       -5.260927    1.548824    0.443267
      2          6           0       -5.490877    0.373651   -0.279651
      3          6           0       -4.426574   -0.458568   -0.639121
      4          6           0       -3.139362   -0.083400   -0.257515
      5          6           0       -2.878046    1.081041    0.462959
      6          6           0       -3.957543    1.898153    0.811615
      7          1           0       -6.093605    2.189444    0.718312
      8          1           0       -6.502050    0.099849   -0.567066
      9          1           0       -4.576172   -1.374008   -1.198592
     10          1           0       -1.858966    1.327546    0.735229
     11          1           0       -3.775981    2.810215    1.373063
     12          7           0       -2.004589   -0.956436   -0.632346
     13          8           0       -0.879918   -0.603595   -0.284128
     14          8           0       -2.261312   -1.977032   -1.267259
     15          6           0        4.588891    0.272389   -0.342267
     16          6           0        5.991379    0.796063   -0.031178
     17          6           0        6.640749    1.493364   -1.226956
     18          1           0        4.644310   -0.424880   -1.189432
     19          1           0        3.956180    1.109800   -0.667557
     20          1           0        6.620877   -0.041861    0.294754
     21          1           0        5.932642    1.492019    0.815468
     22          1           0        6.036398    2.347259   -1.549796
     23          1           0        6.728543    0.804662   -2.073469
     24          1           0        7.642619    1.859900   -0.982483
     25          6           0        3.926658   -0.427236    0.843356
     26          6           0        2.524169   -0.950910    0.532268
     27          6           0        1.874800   -1.648211    1.728045
     28          1           0        4.559368   -1.264648    1.168646
     29          1           0        3.871238    0.270033    1.690522
     30          1           0        2.582906   -1.646867   -0.314379
     31          1           0        1.894672   -0.112986    0.206335
     32          1           0        1.787005   -0.959510    2.574559
     33          1           0        2.479151   -2.502105    2.050886
     34          1           0        0.872929   -2.014747    1.483573
 ---------------------------------------------------------------------

 SCF Done:  E(RHF) =  -669.535837693     A.U. after   15 cycles
 E2 =    -0.2091561147D+01 EUMP2 =    -0.67162739884023D+03

 The electronic state is 1-A.
 Alpha  occ. eigenvalues --  -20.60990 -20.60984 -15.86016 -11.31322 -11.27885
 Alpha  occ. eigenvalues --  -11.27881 -11.27619 -11.26888 -11.26878 -11.20955
 Alpha  occ. eigenvalues --  -11.20545 -11.20532 -11.20301 -11.20018 -11.19553
 Alpha  occ. eigenvalues --   -1.60050  -1.39608  -1.19490  -1.08898  -1.07438
 Alpha  occ. eigenvalues --   -1.04884  -1.02461  -0.95748  -0.94948  -0.86285
 Alpha  occ. eigenvalues --   -0.85991  -0.82581  -0.78580  -0.77643  -0.77159
 Alpha  occ. eigenvalues --   -0.72251  -0.71363  -0.70599  -0.65150  -0.64887
 Alpha  occ. eigenvalues --   -0.64086  -0.62232  -0.59874  -0.58352  -0.56485
 Alpha  occ. eigenvalues --   -0.55387  -0.54286  -0.53217  -0.52975  -0.51637
 Alpha  occ. eigenvalues --   -0.51383  -0.49001  -0.48979  -0.48945  -0.46886
 Alpha  occ. eigenvalues --   -0.45644  -0.45020  -0.44711  -0.44597  -0.42715
 Alpha  occ. eigenvalues --   -0.37467  -0.36484
 Alpha virt. eigenvalues --    0.04875   0.11171   0.16363   0.21253   0.23740
 Alpha virt. eigenvalues --    0.25324   0.27180   0.27528   0.28014   0.28635
 Alpha virt. eigenvalues --    0.29081   0.30846   0.32092   0.32463   0.32874

 Mulliken charges:
               1
     1  C   -0.170534
     2  C   -0.218578
     3  C   -0.170499
     4  C    0.157281
     5  C   -0.170424
     6  C   -0.218508
     7  H    0.226115
     8  H    0.223920
     9  H    0.275935
    10  H    0.275511
    11  H    0.223927
    12  N    0.494557
    13  O   -0.464583
    14  O   -0.458691
    15  C   -0.296906
    16  C   -0.298610
    17  C   -0.475017
    18  H    0.150032
    19  H    0.147884
    20  H    0.150891
    21  H    0.149514
    22  H    0.153764
    23  H    0.155065
    24  H    0.157786
    25  C   -0.298421
    26  C   -0.294962
    27  C   -0.478179
    28  H    0.145765
    29  H    0.143926
    30  H    0.153543
    31  H    0.161877
    32  H    0.144007
    33  H    0.146725
    34  H    0.175888
 Sum of Mulliken charges =  -0.00000

 Dipole moment (field-independent basis, Debye):
    X=             -4.4006    Y=              3.0396    Z=              1.1835  Tot=              5.4777
 Quadrupole moment (field-independent basis, Debye-Ang):
   XX=            -69.5303   YY=            -93.2750   ZZ=            -96.0753
   XY=             -8.0221   XZ=             -1.5797   YZ=              1.7411

 Normal termination of Gaussian 16 at Thu May  6 12:29:18 2021.
