 Gaussian 16, Revision A.03,
 Gaussian 16:  EM64L-G16RevA.03 25-Dec-2016

 -------------
 #p 6-31g* mp2
 -------------

 ------------------------------------------------------
 Input file generated by CHIRIPA (05-May-2021 14:57:21)
 ------------------------------------------------------
 Symbolic Z-matrix:
 Charge =  0 Multiplicity = 1

                         Standard orientation:
 ---------------------------------------------------------------------
 Center     Atomic      Atomic             Coordinates (Angstroms)
 Number     Number       Type             X           Y           Z
 ---------------------------------------------------------------------
      1          6           0        3.307670    2.432244   -0.780356
      2          6           0        4.328827    1.736958   -0.124355
      3          6           0        4.120990    0.430779    0.328690
      4          6           0        2.874129   -0.152205    0.107876
      5          6           0        1.836910    0.514538   -0.542447
      6          6           0        2.067158    1.819895   -0.986944
      7          1           0        3.477827    3.446596   -1.128971
      8          1           0        5.293233    2.210008    0.037470
      9          1           0        4.894050   -0.130420    0.839426
     10          1           0        0.886172    0.016552   -0.689160
     11          1           0        1.272282    2.357459   -1.496101
     12          7           0        2.642239   -1.534563    0.582969
     13          8           0        1.534779   -2.025862    0.376103
     14          8           0        3.572335   -2.100580    1.153217
     15          6           0       -3.661695    1.241034    1.988050
     16          6           0       -2.745262    0.194697    2.135868
     17          6           0       -2.323039   -0.541593    1.024944
     18          6           0       -2.839904   -0.202915   -0.224632
     19          6           0       -3.754150    0.833995   -0.404251
     20          6           0       -4.162331    1.556787    0.720697
     21          1           0       -3.984234    1.807760    2.856490
     22          1           0       -2.354791   -0.052749    3.118898
     23          1           0       -1.614611   -1.356558    1.110840
     24          1           0       -4.125784    1.057186   -1.396971
     25          1           0       -4.874154    2.368870    0.602908
     26          7           0       -2.400347   -0.975246   -1.408140
     27          8           0       -2.870572   -0.657052   -2.498223
     28          8           0       -1.593923   -1.884171   -1.223282
 ---------------------------------------------------------------------

 SCF Done:  E(RHF) =  -868.338247554     A.U. after   16 cycles
 E2 =    -0.2600639391D+01 EUMP2 =    -0.87093888694537D+03

 The electronic state is 1-A.
 Alpha  occ. eigenvalues --  -20.60790 -20.60707 -20.60493 -20.60470 -15.85760
 Alpha  occ. eigenvalues --  -15.85526 -11.31152 -11.30924 -11.27777 -11.27592
 Alpha  occ. eigenvalues --  -11.27533 -11.27490 -11.27446 -11.27284 -11.26783
 Alpha  occ. eigenvalues --  -11.26683 -11.26557 -11.26511  -1.59828  -1.59562
 Alpha  occ. eigenvalues --   -1.39365  -1.39106  -1.19338  -1.19111  -1.08739
 Alpha  occ. eigenvalues --   -1.08508  -1.04718  -1.04515  -0.95555  -0.95327
 Alpha  occ. eigenvalues --   -0.86116  -0.85912  -0.82363  -0.82146  -0.77436
 Alpha  occ. eigenvalues --   -0.77150  -0.71986  -0.71704  -0.71174  -0.70893
 Alpha  occ. eigenvalues --   -0.70409  -0.70212  -0.64971  -0.64768  -0.64696
 Alpha  occ. eigenvalues --   -0.64517  -0.62034  -0.61841  -0.55228  -0.55032
 Alpha  occ. eigenvalues --   -0.53090  -0.52852  -0.52785  -0.52604  -0.48762
 Alpha  occ. eigenvalues --   -0.48747  -0.48520  -0.48448  -0.44729  -0.44504
 Alpha  occ. eigenvalues --   -0.37354  -0.37113  -0.36342  -0.36112
 Alpha virt. eigenvalues --    0.05069   0.05314   0.11219   0.11569   0.16520
 Alpha virt. eigenvalues --    0.16778   0.21398   0.21721   0.27211   0.27506
 Alpha virt. eigenvalues --    0.28067   0.28710   0.30658   0.31355   0.32106

 Mulliken charges:
               1
     1  C   -0.170941
     2  C   -0.219141
     3  C   -0.171252
     4  C    0.156037
     5  C   -0.172994
     6  C   -0.219278
     7  H    0.224362
     8  H    0.222166
     9  H    0.274593
    10  H    0.281004
    11  H    0.223755
    12  N    0.487449
    13  O   -0.456252
    14  O   -0.462833
    15  C   -0.171063
    16  C   -0.219905
    17  C   -0.178775
    18  C    0.151529
    19  C   -0.172982
    20  C   -0.219539
    21  H    0.225293
    22  H    0.226351
    23  H    0.293569
    24  H    0.274119
    25  H    0.222335
    26  N    0.483457
    27  O   -0.463439
    28  O   -0.447625
 Sum of Mulliken charges =  -0.00000

 Dipole moment (field-independent basis, Debye):
    X=             -0.7670    Y=              7.3673    Z=              2.5375  Tot=              7.8297
 Quadrupole moment (field-independent basis, Debye-Ang):
   XX=            -86.5808   YY=           -106.8144   ZZ=           -105.8895
   XY=              4.6542   XZ=            -12.8857   YZ=             -2.6176

 Normal termination of Gaussian 16 at Thu May  6 16:07:51 2021.
