 Gaussian 16, Revision A.03,
 Gaussian 16:  EM64L-G16RevA.03 25-Dec-2016

 -------------
 #p 6-31g* mp2
 -------------

 ------------------------------------------------------
 Input file generated by CHIRIPA (05-May-2021 14:53:16)
 ------------------------------------------------------
 Symbolic Z-matrix:
 Charge =  0 Multiplicity = 1

                         Standard orientation:
 ---------------------------------------------------------------------
 Center     Atomic      Atomic             Coordinates (Angstroms)
 Number     Number       Type             X           Y           Z
 ---------------------------------------------------------------------
      1          6           0       -3.505653    1.045560   -0.225148
      2          6           0       -3.153162    1.961433    0.947418
      3          6           0       -3.173634    3.442376    0.567703
      4          1           0       -2.799190    1.224575   -1.047223
      5          1           0       -4.501311    1.314016   -0.604610
      6          1           0       -2.159047    1.690417    1.325441
      7          1           0       -3.860429    1.780080    1.766869
      8          1           0       -4.166374    3.734815    0.210564
      9          1           0       -2.455324    3.644642   -0.233372
     10          1           0       -2.918781    4.079083    1.420647
     11          6           0       -3.489415   -0.438023    0.138785
     12          6           0       -3.841907   -1.353897   -1.033781
     13          6           0       -3.821435   -2.834839   -0.654066
     14          1           0       -2.493757   -0.706480    0.518247
     15          1           0       -4.195878   -0.617038    0.960860
     16          1           0       -3.134639   -1.172544   -1.853232
     17          1           0       -4.836022   -1.082881   -1.411804
     18          1           0       -4.539744   -3.037106    0.147009
     19          1           0       -2.828695   -3.127278   -0.296927
     20          1           0       -4.076287   -3.471547   -1.507010
     21          6           0        0.749502   -1.594093    0.803808
     22          6           0        0.586369   -0.611101   -0.177842
     23          6           0        1.678023    0.146677   -0.612138
     24          6           0        2.924152   -0.106152   -0.040712
     25          6           0        3.118717   -1.078483    0.939086
     26          6           0        2.012929   -1.824240    1.358162
     27          1           0       -0.104011   -2.178085    1.135268
     28          1           0       -0.393654   -0.430191   -0.610127
     29          1           0        1.579994    0.913894   -1.370548
     30          1           0        4.107983   -1.235896    1.351387
     31          1           0        2.142582   -2.586993    2.120686
     32          7           0        4.087319    0.689713   -0.492425
     33          8           0        5.174751    0.447613    0.026724
     34          8           0        3.889552    1.540540   -1.357074
 ---------------------------------------------------------------------

 SCF Done:  E(RHF) =  -669.535318313     A.U. after   15 cycles
 E2 =    -0.2092383871D+01 EUMP2 =    -0.67162770218364D+03

 The electronic state is 1-A.
 Alpha  occ. eigenvalues --  -20.60772 -20.60766 -15.85825 -11.31199 -11.27769
 Alpha  occ. eigenvalues --  -11.27766 -11.27513 -11.26782 -11.26756 -11.22655
 Alpha  occ. eigenvalues --  -11.22519 -11.22341 -11.22280 -11.22106 -11.21595
 Alpha  occ. eigenvalues --   -1.59847  -1.39400  -1.19372  -1.09418  -1.08764
 Alpha  occ. eigenvalues --   -1.04776  -1.04397  -0.96855  -0.95600  -0.87863
 Alpha  occ. eigenvalues --   -0.86179  -0.82431  -0.80469  -0.79213  -0.77480
 Alpha  occ. eigenvalues --   -0.72044  -0.71170  -0.70488  -0.66244  -0.65022
 Alpha  occ. eigenvalues --   -0.64660  -0.62122  -0.61778  -0.60219  -0.58450
 Alpha  occ. eigenvalues --   -0.56174  -0.55269  -0.53497  -0.53273  -0.53098
 Alpha  occ. eigenvalues --   -0.52849  -0.50805  -0.48809  -0.48799  -0.48765
 Alpha  occ. eigenvalues --   -0.47526  -0.46720  -0.46686  -0.44804  -0.44679
 Alpha  occ. eigenvalues --   -0.37349  -0.36374
 Alpha virt. eigenvalues --    0.05053   0.11180   0.16522   0.17932   0.22203
 Alpha virt. eigenvalues --    0.23675   0.24795   0.25265   0.26909   0.28508
 Alpha virt. eigenvalues --    0.29201   0.30866   0.30971   0.31377   0.31744

 Mulliken charges:
               1
     1  C   -0.299646
     2  C   -0.301421
     3  C   -0.476089
     4  H    0.145534
     5  H    0.154706
     6  H    0.152433
     7  H    0.153856
     8  H    0.156602
     9  H    0.156094
    10  H    0.163650
    11  C   -0.304144
    12  C   -0.301793
    13  C   -0.475029
    14  H    0.140307
    15  H    0.155500
    16  H    0.149997
    17  H    0.157862
    18  H    0.158421
    19  H    0.147355
    20  H    0.165377
    21  C   -0.174397
    22  C   -0.224301
    23  C   -0.172044
    24  C    0.158718
    25  C   -0.170891
    26  C   -0.218485
    27  H    0.227555
    28  H    0.231910
    29  H    0.275632
    30  H    0.275702
    31  H    0.223702
    32  N    0.488056
    33  O   -0.460345
    34  O   -0.460383
 Sum of Mulliken charges =  -0.00000

 Dipole moment (field-independent basis, Debye):
    X=             -4.3083    Y=             -2.7395    Z=              1.6031  Tot=              5.3513
 Quadrupole moment (field-independent basis, Debye-Ang):
   XX=           -115.3299   YY=            -94.3204   ZZ=            -93.2601
   XY=             -9.6727   XZ=              6.8416   YZ=             -1.6806

 Normal termination of Gaussian 16 at Thu May  6 12:12:13 2021.
