 Gaussian 16, Revision A.03,
 Gaussian 16:  EM64L-G16RevA.03 25-Dec-2016

 -------------
 #p 6-31g* mp2
 -------------

 ------------------------------------------------------
 Input file generated by CHIRIPA (05-May-2021 14:55:23)
 ------------------------------------------------------
 Symbolic Z-matrix:
 Charge =  0 Multiplicity = 1

                         Standard orientation:
 ---------------------------------------------------------------------
 Center     Atomic      Atomic             Coordinates (Angstroms)
 Number     Number       Type             X           Y           Z
 ---------------------------------------------------------------------
      1          6           0        0.314533   -1.344461    1.797095
      2          6           0        0.933487   -2.027785    0.745200
      3          6           0        1.855092   -1.376285   -0.079870
      4          6           0        2.135520   -0.035076    0.176661
      5          6           0        1.535398    0.672972    1.216763
      6          6           0        0.616930    0.001365    2.029110
      7          1           0       -0.400174   -1.858372    2.433087
      8          1           0        0.700571   -3.073001    0.562667
      9          1           0        2.348877   -1.881261   -0.901207
     10          1           0        1.787909    1.714574    1.373997
     11          1           0        0.137773    0.534563    2.845292
     12          7           0        3.109521    0.665282   -0.690069
     13          8           0        3.339416    1.847160   -0.443192
     14          8           0        3.624605    0.019082   -1.599878
     15          6           0       -2.676974   -0.520714   -0.180156
     16          6           0       -2.140607   -1.588133   -1.134575
     17          6           0       -2.446514   -3.010116   -0.663215
     18          1           0       -2.244365   -0.678958    0.817216
     19          1           0       -3.763281   -0.646843   -0.073279
     20          1           0       -1.055840   -1.459164   -1.240700
     21          1           0       -2.574396   -1.427214   -2.129837
     22          1           0       -3.527050   -3.162666   -0.575061
     23          1           0       -1.999866   -3.194799    0.319128
     24          1           0       -2.054156   -3.757223   -1.360169
     25          6           0       -2.379007    0.906002   -0.637785
     26          6           0       -2.915374    1.973421    0.316633
     27          6           0       -2.609468    3.395404   -0.154726
     28          1           0       -1.292700    1.032132   -0.744662
     29          1           0       -2.811617    1.064247   -1.635158
     30          1           0       -2.481586    1.812501    1.311896
     31          1           0       -4.000141    1.844452    0.422759
     32          1           0       -3.056117    3.580087   -1.137069
     33          1           0       -1.528931    3.547955   -0.242880
     34          1           0       -3.001826    4.142512    0.542228
 ---------------------------------------------------------------------

 SCF Done:  E(RHF) =  -669.533579247     A.U. after   15 cycles
 E2 =    -0.2097025659D+01 EUMP2 =    -0.67163060490598D+03

 The electronic state is 1-A.
 Alpha  occ. eigenvalues --  -20.60889 -20.60884 -15.85946 -11.31371 -11.27939
 Alpha  occ. eigenvalues --  -11.27917 -11.27657 -11.26964 -11.26910 -11.21943
 Alpha  occ. eigenvalues --  -11.21911 -11.21795 -11.21704 -11.21586 -11.21287
 Alpha  occ. eigenvalues --   -1.59965  -1.39516  -1.19558  -1.09005  -1.08698
 Alpha  occ. eigenvalues --   -1.04970  -1.03914  -0.96384  -0.95763  -0.87401
 Alpha  occ. eigenvalues --   -0.86346  -0.82589  -0.79979  -0.78575  -0.77621
 Alpha  occ. eigenvalues --   -0.72162  -0.71292  -0.70662  -0.65541  -0.65199
 Alpha  occ. eigenvalues --   -0.64887  -0.62336  -0.61327  -0.59755  -0.57989
 Alpha  occ. eigenvalues --   -0.55737  -0.55425  -0.53239  -0.53094  -0.53008
 Alpha  occ. eigenvalues --   -0.52808  -0.50329  -0.48922  -0.48913  -0.48299
 Alpha  occ. eigenvalues --   -0.47033  -0.46144  -0.46006  -0.44909  -0.44141
 Alpha  occ. eigenvalues --   -0.37413  -0.36468
 Alpha virt. eigenvalues --    0.04861   0.10941   0.16247   0.19783   0.22870
 Alpha virt. eigenvalues --    0.23647   0.25972   0.26525   0.26582   0.28240
 Alpha virt. eigenvalues --    0.28788   0.30277   0.31087   0.31544   0.31908

 Mulliken charges:
               1
     1  C   -0.171052
     2  C   -0.216472
     3  C   -0.173054
     4  C    0.159539
     5  C   -0.172473
     6  C   -0.216265
     7  H    0.227300
     8  H    0.227347
     9  H    0.276723
    10  H    0.276491
    11  H    0.224979
    12  N    0.488047
    13  O   -0.459942
    14  O   -0.459724
    15  C   -0.297338
    16  C   -0.304094
    17  C   -0.476096
    18  H    0.144007
    19  H    0.148411
    20  H    0.158071
    21  H    0.154551
    22  H    0.158620
    23  H    0.141658
    24  H    0.160233
    25  C   -0.299927
    26  C   -0.298749
    27  C   -0.476442
    28  H    0.153682
    29  H    0.151470
    30  H    0.143845
    31  H    0.152087
    32  H    0.157691
    33  H    0.157144
    34  H    0.159730
 Sum of Mulliken charges =  -0.00000

 Dipole moment (field-independent basis, Debye):
    X=             -3.3025    Y=             -2.4224    Z=              3.0001  Tot=              5.0769
 Quadrupole moment (field-independent basis, Debye-Ang):
   XX=           -109.5726   YY=            -92.5636   ZZ=            -92.4847
   XY=             -6.1835   XZ=              6.2700   YZ=              2.1300

 Normal termination of Gaussian 16 at Wed May  5 22:20:56 2021.
