 Gaussian 16, Revision A.03,
 Gaussian 16:  EM64L-G16RevA.03 25-Dec-2016

 -------------
 #p 6-31g* mp2
 -------------

 ------------------------------------------------------
 Input file generated by CHIRIPA (05-May-2021 14:57:23)
 ------------------------------------------------------
 Symbolic Z-matrix:
 Charge =  0 Multiplicity = 1

                         Standard orientation:
 ---------------------------------------------------------------------
 Center     Atomic      Atomic             Coordinates (Angstroms)
 Number     Number       Type             X           Y           Z
 ---------------------------------------------------------------------
      1          6           0        3.070714    2.725144   -0.178844
      2          6           0        4.364568    2.250630   -0.418220
      3          6           0        4.643266    0.882417   -0.348459
      4          6           0        3.599577    0.012949   -0.035363
      5          6           0        2.300154    0.454980    0.208352
      6          6           0        2.044446    1.827387    0.133128
      7          1           0        2.863145    3.789635   -0.235159
      8          1           0        5.163541    2.945529   -0.660712
      9          1           0        5.635813    0.487941   -0.529171
     10          1           0        1.524351   -0.262084    0.447867
     11          1           0        1.038668    2.193058    0.319513
     12          7           0        3.882453   -1.437738    0.041382
     13          8           0        2.945525   -2.183179    0.319089
     14          8           0        5.035742   -1.801876   -0.177625
     15          6           0       -5.636811    1.127043   -0.300710
     16          6           0       -5.289921    0.136671   -1.225563
     17          6           0       -4.137580   -0.633480   -1.042465
     18          6           0       -3.351497   -0.385364    0.081725
     19          6           0       -3.670491    0.594086    1.020985
     20          6           0       -4.827415    1.352192    0.817640
     21          1           0       -6.533757    1.720636   -0.450810
     22          1           0       -5.916627   -0.040384   -2.095009
     23          1           0       -3.845541   -1.406618   -1.742742
     24          1           0       -3.025940    0.747394    1.877996
     25          1           0       -5.094353    2.120655    1.537541
     26          7           0       -2.129139   -1.194313    0.286279
     27          8           0       -1.453332   -0.956145    1.284877
     28          8           0       -1.870007   -2.051218   -0.555861
 ---------------------------------------------------------------------

 SCF Done:  E(RHF) =  -868.338185592     A.U. after   15 cycles
 E2 =    -0.2599254080D+01 EUMP2 =    -0.87093743967264D+03

 The electronic state is 1-A.
 Alpha  occ. eigenvalues --  -20.61256 -20.61205 -20.59798 -20.59733 -15.86260
 Alpha  occ. eigenvalues --  -15.84822 -11.31598 -11.30285 -11.28181 -11.28129
 Alpha  occ. eigenvalues --  -11.27882 -11.27171 -11.27135 -11.26970 -11.26768
 Alpha  occ. eigenvalues --  -11.26731 -11.26020 -11.25936  -1.60290  -1.58850
 Alpha  occ. eigenvalues --   -1.39845  -1.38393  -1.19763  -1.18507  -1.09160
 Alpha  occ. eigenvalues --   -1.07907  -1.05157  -1.03917  -0.95996  -0.94703
 Alpha  occ. eigenvalues --   -0.86555  -0.85320  -0.82827  -0.81525  -0.77884
 Alpha  occ. eigenvalues --   -0.76528  -0.72456  -0.71622  -0.71036  -0.70861
 Alpha  occ. eigenvalues --   -0.70182  -0.69622  -0.65411  -0.65151  -0.64161
 Alpha  occ. eigenvalues --   -0.63940  -0.62501  -0.61227  -0.55649  -0.54476
 Alpha  occ. eigenvalues --   -0.53493  -0.53243  -0.52269  -0.52009  -0.49225
 Alpha  occ. eigenvalues --   -0.49200  -0.47830  -0.47771  -0.45253  -0.43776
 Alpha  occ. eigenvalues --   -0.37741  -0.36762  -0.36548  -0.35532
 Alpha virt. eigenvalues --    0.04608   0.05988   0.10891   0.12112   0.16101
 Alpha virt. eigenvalues --    0.17422   0.21044   0.22204   0.26962   0.27746
 Alpha virt. eigenvalues --    0.28223   0.29180   0.30687   0.31693   0.32225

 Mulliken charges:
               1
     1  C   -0.171365
     2  C   -0.219774
     3  C   -0.171278
     4  C    0.156757
     5  C   -0.176704
     6  C   -0.221086
     7  H    0.220837
     8  H    0.219725
     9  H    0.273302
    10  H    0.296393
    11  H    0.219794
    12  N    0.486729
    13  O   -0.451005
    14  O   -0.466270
    15  C   -0.170632
    16  C   -0.218505
    17  C   -0.170608
    18  C    0.157630
    19  C   -0.173151
    20  C   -0.218641
    21  H    0.226787
    22  H    0.225178
    23  H    0.277856
    24  H    0.274142
    25  H    0.223827
    26  N    0.486915
    27  O   -0.465498
    28  O   -0.451355
 Sum of Mulliken charges =  -0.00000

 Dipole moment (field-independent basis, Debye):
    X=             -5.7040    Y=              7.6906    Z=             -1.0160  Tot=              9.6288
 Quadrupole moment (field-independent basis, Debye-Ang):
   XX=            -79.6582   YY=           -106.8601   ZZ=           -102.1645
   XY=             11.5814   XZ=              1.2651   YZ=              2.6525

 Normal termination of Gaussian 16 at Thu May  6 09:45:53 2021.
