 Gaussian 16, Revision A.03,
 Gaussian 16:  EM64L-G16RevA.03 25-Dec-2016

 -------------
 #p 6-31g* mp2
 -------------

 ------------------------------------------------------
 Input file generated by CHIRIPA (05-May-2021 14:53:13)
 ------------------------------------------------------
 Symbolic Z-matrix:
 Charge =  0 Multiplicity = 1

                         Standard orientation:
 ---------------------------------------------------------------------
 Center     Atomic      Atomic             Coordinates (Angstroms)
 Number     Number       Type             X           Y           Z
 ---------------------------------------------------------------------
      1          6           0        3.584475   -0.609483    0.108074
      2          6           0        4.970428   -1.156122    0.452029
      3          6           0        4.917558   -2.550690    1.076672
      4          1           0        2.971755   -0.581573    1.019524
      5          1           0        3.085524   -1.303065   -0.582858
      6          1           0        5.467158   -0.461022    1.141022
      7          1           0        5.579982   -1.182555   -0.460310
      8          1           0        4.445651   -3.262151    0.391305
      9          1           0        4.332187   -2.536519    2.001734
     10          1           0        5.919149   -2.922230    1.314649
     11          6           0        3.620848    0.783877   -0.517187
     12          6           0        2.234895    1.330516   -0.861142
     13          6           0        2.287765    2.725084   -1.485785
     14          1           0        4.119799    1.477459    0.173745
     15          1           0        4.233568    0.755967   -1.428637
     16          1           0        1.625342    1.356948    0.051197
     17          1           0        1.738165    0.635416   -1.550135
     18          1           0        2.873137    2.710913   -2.410848
     19          1           0        2.759672    3.436545   -0.800418
     20          1           0        1.286174    3.096624   -1.723763
     21          6           0       -3.819551   -1.667741   -1.512666
     22          6           0       -4.471698   -1.421916   -0.299902
     23          6           0       -3.924083   -0.537553    0.634211
     24          6           0       -2.717422    0.086523    0.321498
     25          6           0       -2.043703   -0.137687   -0.878135
     26          6           0       -2.609768   -1.025973   -1.797410
     27          1           0       -4.252118   -2.356260   -2.232544
     28          1           0       -5.411354   -1.918904   -0.076083
     29          1           0       -4.407804   -0.328968    1.580744
     30          1           0       -1.108297    0.372678   -1.072973
     31          1           0       -2.101085   -1.214968   -2.738456
     32          7           0       -2.127921    1.024835    1.302548
     33          8           0       -1.063762    1.562030    1.003174
     34          8           0       -2.741191    1.205321    2.352292
 ---------------------------------------------------------------------

 SCF Done:  E(RHF) =  -669.536109027     A.U. after   15 cycles
 E2 =    -0.2091470400D+01 EUMP2 =    -0.67162757942704D+03

 The electronic state is 1-A.
 Alpha  occ. eigenvalues --  -20.60879 -20.60865 -15.85917 -11.31220 -11.27794
 Alpha  occ. eigenvalues --  -11.27764 -11.27533 -11.26799 -11.26785 -11.21344
 Alpha  occ. eigenvalues --  -11.21071 -11.21046 -11.20959 -11.20872 -11.20577
 Alpha  occ. eigenvalues --   -1.59942  -1.39498  -1.19393  -1.08802  -1.08061
 Alpha  occ. eigenvalues --   -1.04788  -1.03155  -0.95657  -0.95606  -0.86636
 Alpha  occ. eigenvalues --   -0.86189  -0.82483  -0.79235  -0.77913  -0.77490
 Alpha  occ. eigenvalues --   -0.72144  -0.71257  -0.70504  -0.65056  -0.64795
 Alpha  occ. eigenvalues --   -0.64679  -0.62137  -0.60542  -0.58986  -0.57223
 Alpha  occ. eigenvalues --   -0.55297  -0.54905  -0.53122  -0.52881  -0.52309
 Alpha  occ. eigenvalues --   -0.52046  -0.49566  -0.48910  -0.48892  -0.47537
 Alpha  occ. eigenvalues --   -0.46245  -0.45440  -0.45334  -0.44845  -0.43414
 Alpha  occ. eigenvalues --   -0.37377  -0.36389
 Alpha virt. eigenvalues --    0.04981   0.11261   0.16469   0.20742   0.23208
 Alpha virt. eigenvalues --    0.24042   0.26162   0.27143   0.27670   0.28267
 Alpha virt. eigenvalues --    0.29162   0.30604   0.31523   0.31826   0.32337

 Mulliken charges:
               1
     1  C   -0.298515
     2  C   -0.299336
     3  C   -0.475537
     4  H    0.154311
     5  H    0.144382
     6  H    0.153066
     7  H    0.150400
     8  H    0.152990
     9  H    0.156348
    10  H    0.159492
    11  C   -0.297478
    12  C   -0.311000
    13  C   -0.474603
    14  H    0.151604
    15  H    0.146118
    16  H    0.180752
    17  H    0.136118
    18  H    0.149836
    19  H    0.158217
    20  H    0.160975
    21  C   -0.170342
    22  C   -0.218907
    23  C   -0.170456
    24  C    0.156878
    25  C   -0.174315
    26  C   -0.220060
    27  H    0.225716
    28  H    0.223518
    29  H    0.275528
    30  H    0.283211
    31  H    0.223731
    32  N    0.492177
    33  O   -0.465237
    34  O   -0.459584
 Sum of Mulliken charges =  -0.00000

 Dipole moment (field-independent basis, Debye):
    X=             -2.1849    Y=             -3.2232    Z=             -3.2882  Tot=              5.0966
 Quadrupole moment (field-independent basis, Debye-Ang):
   XX=            -81.1344   YY=            -96.7739   ZZ=            -95.0965
   XY=             10.0847   XZ=              6.4218   YZ=             -0.7920

 Normal termination of Gaussian 16 at Wed May  5 17:02:47 2021.
