 Gaussian 16, Revision A.03,
 Gaussian 16:  EM64L-G16RevA.03 25-Dec-2016

 -------------
 #p 6-31g* mp2
 -------------

 ------------------------------------------------------
 Input file generated by CHIRIPA (05-May-2021 14:51:13)
 ------------------------------------------------------
 Symbolic Z-matrix:
 Charge =  0 Multiplicity = 1

                         Standard orientation:
 ---------------------------------------------------------------------
 Center     Atomic      Atomic             Coordinates (Angstroms)
 Number     Number       Type             X           Y           Z
 ---------------------------------------------------------------------
      1          6           0       -4.298749   -0.305552    0.271952
      2          6           0       -5.386349    0.359293   -0.572495
      3          6           0       -6.796517   -0.063217   -0.159329
      4          1           0       -4.395099   -1.396807    0.189336
      5          1           0       -4.462025   -0.056536    1.329650
      6          1           0       -5.220264    0.110230   -1.628430
      7          1           0       -5.287279    1.449093   -0.488012
      8          1           0       -6.986786    0.200100    0.886167
      9          1           0       -6.919390   -1.146370   -0.260731
     10          1           0       -7.558394    0.423843   -0.775914
     11          6           0       -2.883547    0.106880   -0.129086
     12          6           0       -1.795946   -0.557965    0.715360
     13          6           0       -0.385778   -0.135455    0.302195
     14          1           0       -2.720270   -0.142136   -1.186785
     15          1           0       -2.787196    1.198134   -0.046470
     16          1           0       -1.895016   -1.647765    0.630877
     17          1           0       -1.962031   -0.308902    1.771296
     18          1           0       -0.262905    0.947698    0.403597
     19          1           0       -0.195509   -0.398772   -0.743302
     20          1           0        0.376098   -0.622515    0.918779
     21          6           0        3.177642    0.724847    0.074108
     22          6           0        3.930444    2.026977   -0.201083
     23          6           0        3.090051    3.269542    0.094830
     24          1           0        2.261944    0.702920   -0.532489
     25          1           0        2.856878    0.709966    1.124957
     26          1           0        4.250894    2.038776   -1.250745
     27          1           0        4.844555    2.045720    0.406095
     28          1           0        2.781931    3.285025    1.145270
     29          1           0        2.184898    3.278043   -0.520984
     30          1           0        3.647558    4.189100   -0.108783
     31          6           0        4.004652   -0.526175   -0.216974
     32          6           0        3.251851   -1.828305    0.058218
     33          6           0        4.092245   -3.070870   -0.237696
     34          1           0        4.325417   -0.511295   -1.267823
     35          1           0        4.920352   -0.504248    0.389622
     36          1           0        2.337741   -1.847048   -0.548961
     37          1           0        2.931400   -1.840105    1.107879
     38          1           0        4.997398   -3.079371    0.378118
     39          1           0        4.400364   -3.086353   -1.288136
     40          1           0        3.534738   -3.990429   -0.034083
 ---------------------------------------------------------------------

 SCF Done:  E(RHF) =  -470.732192288     A.U. after   11 cycles
 E2 =    -0.1583846446D+01 EUMP2 =    -0.47231603873431D+03

 The electronic state is 1-A.
 Alpha  occ. eigenvalues --  -11.21591 -11.21544 -11.21540 -11.21519 -11.21384
 Alpha  occ. eigenvalues --  -11.21325 -11.21312 -11.21195 -11.21063 -11.21038
 Alpha  occ. eigenvalues --  -11.21032 -11.20972  -1.08421  -1.08343  -1.03502
 Alpha  occ. eigenvalues --   -1.03474  -0.95998  -0.95882  -0.87008  -0.86921
 Alpha  occ. eigenvalues --   -0.79636  -0.79541  -0.78288  -0.78040  -0.65052
 Alpha  occ. eigenvalues --   -0.64977  -0.60935  -0.60844  -0.59409  -0.59221
 Alpha  occ. eigenvalues --   -0.57562  -0.57535  -0.55254  -0.55204  -0.52840
 Alpha  occ. eigenvalues --   -0.52530  -0.52426  -0.52252  -0.49915  -0.49862
 Alpha  occ. eigenvalues --   -0.48019  -0.47744  -0.46655  -0.46516  -0.45931
 Alpha  occ. eigenvalues --   -0.45715  -0.45649  -0.45438  -0.43756  -0.43579
 Alpha virt. eigenvalues --    0.21870   0.23066   0.23932   0.24251   0.25534
 Alpha virt. eigenvalues --    0.26127   0.26643   0.27632   0.27800   0.29905
 Alpha virt. eigenvalues --    0.30438   0.31071   0.31816   0.31900   0.32219

 Mulliken charges:
               1
     1  C   -0.298152
     2  C   -0.299580
     3  C   -0.475681
     4  H    0.149560
     5  H    0.149492
     6  H    0.151794
     7  H    0.151915
     8  H    0.155175
     9  H    0.155139
    10  H    0.160197
    11  C   -0.298456
    12  C   -0.301312
    13  C   -0.478575
    14  H    0.149059
    15  H    0.149525
    16  H    0.151531
    17  H    0.151531
    18  H    0.155599
    19  H    0.152670
    20  H    0.167660
    21  C   -0.303626
    22  C   -0.299071
    23  C   -0.475939
    24  H    0.160122
    25  H    0.148645
    26  H    0.151308
    27  H    0.151248
    28  H    0.154844
    29  H    0.155019
    30  H    0.160041
    31  C   -0.297668
    32  C   -0.302565
    33  C   -0.475505
    34  H    0.148795
    35  H    0.148895
    36  H    0.155730
    37  H    0.150750
    38  H    0.154995
    39  H    0.154998
    40  H    0.159891
 Sum of Mulliken charges =  -0.00000

 Dipole moment (field-independent basis, Debye):
    X=             -0.0063    Y=             -0.0012    Z=             -0.0017  Tot=              0.0066
 Quadrupole moment (field-independent basis, Debye-Ang):
   XX=            -86.4187   YY=            -85.3186   ZZ=            -83.4696
   XY=              0.2023   XZ=              0.5592   YZ=              0.4073

 Normal termination of Gaussian 16 at Thu May  6 02:21:42 2021.
