 Gaussian 16, Revision A.03,
 Gaussian 16:  EM64L-G16RevA.03 25-Dec-2016

 -------------
 #p 6-31g* mp2
 -------------

 ------------------------------------------------------
 Input file generated by CHIRIPA (05-May-2021 14:57:21)
 ------------------------------------------------------
 Symbolic Z-matrix:
 Charge =  0 Multiplicity = 1

                         Standard orientation:
 ---------------------------------------------------------------------
 Center     Atomic      Atomic             Coordinates (Angstroms)
 Number     Number       Type             X           Y           Z
 ---------------------------------------------------------------------
      1          6           0        3.750695   -2.441342    0.430274
      2          6           0        2.649179   -1.819944    1.027809
      3          6           0        2.347648   -0.484388    0.745113
      4          6           0        3.172622    0.202998   -0.143823
      5          6           0        4.277128   -0.388303   -0.755151
      6          6           0        4.559728   -1.724801   -0.457734
      7          1           0        3.977579   -3.479200    0.655597
      8          1           0        2.019125   -2.373966    1.717835
      9          1           0        1.501101    0.021219    1.193597
     10          1           0        4.886763    0.189820   -1.438917
     11          1           0        5.415830   -2.204815   -0.923266
     12          7           0        2.863426    1.617390   -0.450893
     13          8           0        3.605793    2.201157   -1.237496
     14          8           0        1.884564    2.115442    0.100842
     15          6           0       -1.976288    1.947405    1.158186
     16          6           0       -1.640883    0.628490    1.481429
     17          6           0       -2.325236   -0.441653    0.897475
     18          6           0       -3.344165   -0.155246   -0.009743
     19          6           0       -3.701649    1.147911   -0.352202
     20          6           0       -3.003789    2.202456    0.244013
     21          1           0       -1.439419    2.772660    1.616578
     22          1           0       -0.843355    0.427427    2.191054
     23          1           0       -2.086146   -1.472341    1.129716
     24          1           0       -4.501338    1.316869   -1.063095
     25          1           0       -3.266425    3.225735   -0.008908
     26          7           0       -4.075809   -1.279902   -0.634440
     27          8           0       -4.969541   -1.001007   -1.430743
     28          8           0       -3.741687   -2.419007   -0.315945
 ---------------------------------------------------------------------

 SCF Done:  E(RHF) =  -868.338209012     A.U. after   16 cycles
 E2 =    -0.2599883221D+01 EUMP2 =    -0.87093809223303D+03

 The electronic state is 1-A.
 Alpha  occ. eigenvalues --  -20.61349 -20.61317 -20.60684 -20.60668 -15.86386
 Alpha  occ. eigenvalues --  -15.85735 -11.31661 -11.31002 -11.28283 -11.28180
 Alpha  occ. eigenvalues --  -11.27908 -11.27686 -11.27564 -11.27237 -11.27217
 Alpha  occ. eigenvalues --  -11.27164 -11.26651 -11.26456  -1.60403  -1.59757
 Alpha  occ. eigenvalues --   -1.39963  -1.39315  -1.19818  -1.19177  -1.09219
 Alpha  occ. eigenvalues --   -1.08550  -1.05222  -1.04600  -0.96078  -0.95405
 Alpha  occ. eigenvalues --   -0.86620  -0.85980  -0.82927  -0.82272  -0.78001
 Alpha  occ. eigenvalues --   -0.77356  -0.72620  -0.71955  -0.71714  -0.71080
 Alpha  occ. eigenvalues --   -0.70932  -0.70210  -0.65478  -0.65258  -0.64829
 Alpha  occ. eigenvalues --   -0.64609  -0.62619  -0.61935  -0.55700  -0.54980
 Alpha  occ. eigenvalues --   -0.53532  -0.53364  -0.52858  -0.52667  -0.49378
 Alpha  occ. eigenvalues --   -0.49348  -0.48717  -0.48701  -0.45388  -0.44744
 Alpha  occ. eigenvalues --   -0.37766  -0.37051  -0.36821  -0.36195
 Alpha virt. eigenvalues --    0.04559   0.05223   0.10832   0.11367   0.16069
 Alpha virt. eigenvalues --    0.16677   0.19537   0.22187   0.25347   0.27348
 Alpha virt. eigenvalues --    0.28514   0.29424   0.30257   0.31165   0.32303

 Mulliken charges:
               1
     1  C   -0.169442
     2  C   -0.219159
     3  C   -0.171971
     4  C    0.158076
     5  C   -0.169523
     6  C   -0.218358
     7  H    0.228290
     8  H    0.222072
     9  H    0.271114
    10  H    0.276874
    11  H    0.225678
    12  N    0.488555
    13  O   -0.457431
    14  O   -0.467158
    15  C   -0.160245
    16  C   -0.218838
    17  C   -0.171624
    18  C    0.157718
    19  C   -0.169479
    20  C   -0.219080
    21  H    0.234717
    22  H    0.213574
    23  H    0.269536
    24  H    0.275637
    25  H    0.225823
    26  N    0.488458
    27  O   -0.460004
    28  O   -0.463810
 Sum of Mulliken charges =  -0.00000

 Dipole moment (field-independent basis, Debye):
    X=              3.7986    Y=             -0.8478    Z=              3.1621  Tot=              5.0147
 Quadrupole moment (field-independent basis, Debye-Ang):
   XX=           -110.5893   YY=           -106.3484   ZZ=           -103.2300
   XY=            -32.3456   XZ=             -5.4628   YZ=             -1.3736

 Normal termination of Gaussian 16 at Thu May  6 19:29:11 2021.
