 Gaussian 16, Revision A.03,
 Gaussian 16:  EM64L-G16RevA.03 25-Dec-2016

 -------------
 #p 6-31g* mp2
 -------------

 ------------------------------------------------------
 Input file generated by CHIRIPA (05-May-2021 14:53:12)
 ------------------------------------------------------
 Symbolic Z-matrix:
 Charge =  0 Multiplicity = 1

                         Standard orientation:
 ---------------------------------------------------------------------
 Center     Atomic      Atomic             Coordinates (Angstroms)
 Number     Number       Type             X           Y           Z
 ---------------------------------------------------------------------
      1          6           0        4.058151    0.412976    0.085958
      2          6           0        5.554989    0.695985   -0.045830
      3          6           0        5.886440    2.185018    0.057673
      4          1           0        3.516892    0.965647   -0.694130
      5          1           0        3.701828    0.802766    1.049541
      6          1           0        5.908667    0.304547   -1.008277
      7          1           0        6.092765    0.142424    0.734543
      8          1           0        5.561024    2.585922    1.023064
      9          1           0        5.375879    2.748966   -0.729659
     10          1           0        6.961713    2.364638   -0.039202
     11          6           0        3.711000   -1.071252   -0.015439
     12          6           0        2.214162   -1.354261    0.116349
     13          6           0        1.882710   -2.843295    0.012846
     14          1           0        4.067323   -1.461042   -0.979023
     15          1           0        4.252259   -1.623923    0.764649
     16          1           0        1.676385   -0.800701   -0.664025
     17          1           0        1.860484   -0.962824    1.078796
     18          1           0        2.393272   -3.407243    0.800177
     19          1           0        2.208127   -3.244199   -0.952546
     20          1           0        0.807437   -3.022915    0.109721
     21          6           0       -3.171865    2.776458   -0.014233
     22          6           0       -4.329484    2.011508    0.162668
     23          6           0       -4.265399    0.614938    0.157081
     24          6           0       -3.021576    0.013581   -0.028833
     25          6           0       -1.850426    0.748231   -0.207688
     26          6           0       -1.938207    2.143494   -0.198521
     27          1           0       -3.230852    3.860840   -0.008503
     28          1           0       -5.288919    2.500369    0.306002
     29          1           0       -5.145894   -0.001515    0.291734
     30          1           0       -0.908338    0.232373   -0.348325
     31          1           0       -1.037540    2.735021   -0.336145
     32          7           0       -2.941190   -1.464214   -0.036643
     33          8           0       -1.833287   -1.969917   -0.202328
     34          8           0       -3.987608   -2.088824    0.123070
 ---------------------------------------------------------------------

 SCF Done:  E(RHF) =  -669.536198104     A.U. after   15 cycles
 E2 =    -0.2091400852D+01 EUMP2 =    -0.67162759895684D+03

 The electronic state is 1-A.
 Alpha  occ. eigenvalues --  -20.60876 -20.60863 -15.85919 -11.31218 -11.27790
 Alpha  occ. eigenvalues --  -11.27760 -11.27527 -11.26795 -11.26777 -11.21648
 Alpha  occ. eigenvalues --  -11.21428 -11.21328 -11.21192 -11.21191 -11.20157
 Alpha  occ. eigenvalues --   -1.59939  -1.39496  -1.19390  -1.08799  -1.08323
 Alpha  occ. eigenvalues --   -1.04783  -1.03314  -0.95739  -0.95627  -0.86738
 Alpha  occ. eigenvalues --   -0.86184  -0.82478  -0.79418  -0.78154  -0.77526
 Alpha  occ. eigenvalues --   -0.72152  -0.71255  -0.70500  -0.65048  -0.64964
 Alpha  occ. eigenvalues --   -0.64784  -0.62133  -0.60723  -0.59112  -0.57308
 Alpha  occ. eigenvalues --   -0.55293  -0.55032  -0.53119  -0.52876  -0.52350
 Alpha  occ. eigenvalues --   -0.52133  -0.49691  -0.48898  -0.48886  -0.47695
 Alpha  occ. eigenvalues --   -0.46483  -0.45678  -0.45607  -0.44913  -0.43543
 Alpha  occ. eigenvalues --   -0.37374  -0.36385
 Alpha virt. eigenvalues --    0.04993   0.11266   0.16490   0.20627   0.22954
 Alpha virt. eigenvalues --    0.23982   0.25835   0.26894   0.27619   0.28222
 Alpha virt. eigenvalues --    0.29096   0.30425   0.31493   0.31684   0.32404

 Mulliken charges:
               1
     1  C   -0.297592
     2  C   -0.299334
     3  C   -0.475540
     4  H    0.144529
     5  H    0.147528
     6  H    0.152706
     7  H    0.153087
     8  H    0.154236
     9  H    0.153227
    10  H    0.160829
    11  C   -0.297281
    12  C   -0.300077
    13  C   -0.486191
    14  H    0.150165
    15  H    0.150781
    16  H    0.144824
    17  H    0.149261
    18  H    0.150987
    19  H    0.152126
    20  H    0.190354
    21  C   -0.170371
    22  C   -0.218983
    23  C   -0.170193
    24  C    0.156429
    25  C   -0.175357
    26  C   -0.220594
    27  H    0.225747
    28  H    0.223501
    29  H    0.275567
    30  H    0.284041
    31  H    0.224283
    32  N    0.494470
    33  O   -0.467880
    34  O   -0.459286
 Sum of Mulliken charges =  -0.00000

 Dipole moment (field-independent basis, Debye):
    X=             -0.4183    Y=              5.0800    Z=              0.0451  Tot=              5.0974
 Quadrupole moment (field-independent basis, Debye-Ang):
   XX=            -88.5645   YY=            -95.9613   ZZ=            -94.5895
   XY=            -16.1319   XZ=             -0.8369   YZ=             -0.3651

 Normal termination of Gaussian 16 at Thu May  6 13:38:28 2021.
