 Gaussian 16, Revision A.03,
 Gaussian 16:  EM64L-G16RevA.03 25-Dec-2016

 -------------
 #p 6-31g* mp2
 -------------

 ------------------------------------------------------
 Input file generated by CHIRIPA (05-May-2021 14:55:24)
 ------------------------------------------------------
 Symbolic Z-matrix:
 Charge =  0 Multiplicity = 1

                         Standard orientation:
 ---------------------------------------------------------------------
 Center     Atomic      Atomic             Coordinates (Angstroms)
 Number     Number       Type             X           Y           Z
 ---------------------------------------------------------------------
      1          6           0       -0.621429   -0.110604    1.187540
      2          6           0       -1.002435   -1.255431    0.479920
      3          6           0       -2.279937   -1.351826   -0.079761
      4          6           0       -3.155033   -0.279780    0.088212
      5          6           0       -2.804988    0.874073    0.787772
      6          6           0       -1.522333    0.948627    1.338940
      7          1           0        0.372967   -0.044205    1.619007
      8          1           0       -0.304861   -2.079589    0.360756
      9          1           0       -2.600983   -2.226437   -0.632393
     10          1           0       -3.522290    1.679351    0.889867
     11          1           0       -1.229173    1.838939    1.887982
     12          7           0       -4.510195   -0.370268   -0.499791
     13          8           0       -5.262643    0.587954   -0.337713
     14          8           0       -4.794262   -1.397700   -1.111611
     15          6           0        4.251042   -0.171030   -0.510425
     16          6           0        4.495015   -1.347613    0.435151
     17          6           0        5.494579   -2.359485   -0.125902
     18          1           0        3.886812   -0.552722   -1.474060
     19          1           0        5.207039    0.330896   -0.714230
     20          1           0        3.538634   -1.846330    0.638208
     21          1           0        4.858525   -0.963063    1.396711
     22          1           0        6.462335   -1.882529   -0.311812
     23          1           0        5.134944   -2.770816   -1.074623
     24          1           0        5.654141   -3.192224    0.566157
     25          6           0        3.254073    0.849088    0.036512
     26          6           0        3.010099    2.025671   -0.909064
     27          6           0        2.010536    3.037542   -0.348011
     28          1           0        2.298076    0.347162    0.240317
     29          1           0        3.618303    1.230779    1.000146
     30          1           0        2.646590    1.641119   -1.870623
     31          1           0        3.966480    2.524388   -1.112123
     32          1           0        2.370170    3.448873    0.600710
     33          1           0        1.042780    2.560586   -0.162101
     34          1           0        1.850975    3.870281   -1.040070
 ---------------------------------------------------------------------

 SCF Done:  E(RHF) =  -669.535590189     A.U. after   15 cycles
 E2 =    -0.2092258200D+01 EUMP2 =    -0.67162784838843D+03

 The electronic state is 1-A.
 Alpha  occ. eigenvalues --  -20.60793 -20.60787 -15.85847 -11.31233 -11.27806
 Alpha  occ. eigenvalues --  -11.27799 -11.27514 -11.26820 -11.26807 -11.22462
 Alpha  occ. eigenvalues --  -11.22367 -11.22308 -11.22177 -11.21790 -11.21753
 Alpha  occ. eigenvalues --   -1.59868  -1.39421  -1.19408  -1.09272  -1.08795
 Alpha  occ. eigenvalues --   -1.04811  -1.04302  -0.96752  -0.95629  -0.87768
 Alpha  occ. eigenvalues --   -0.86203  -0.82460  -0.80375  -0.79124  -0.77501
 Alpha  occ. eigenvalues --   -0.72064  -0.71191  -0.70522  -0.65902  -0.65057
 Alpha  occ. eigenvalues --   -0.64800  -0.62156  -0.61691  -0.60118  -0.58376
 Alpha  occ. eigenvalues --   -0.56075  -0.55297  -0.53414  -0.53201  -0.53117
 Alpha  occ. eigenvalues --   -0.52892  -0.50689  -0.48824  -0.48818  -0.48686
 Alpha  occ. eigenvalues --   -0.47405  -0.46629  -0.46560  -0.44822  -0.44576
 Alpha  occ. eigenvalues --   -0.37349  -0.36410
 Alpha virt. eigenvalues --    0.04991   0.11112   0.16368   0.19901   0.22609
 Alpha virt. eigenvalues --    0.23463   0.25290   0.26225   0.26551   0.27823
 Alpha virt. eigenvalues --    0.30013   0.30296   0.30693   0.31184   0.31475

 Mulliken charges:
               1
     1  C   -0.171632
     2  C   -0.220427
     3  C   -0.170632
     4  C    0.158611
     5  C   -0.171174
     6  C   -0.220224
     7  H    0.230735
     8  H    0.223456
     9  H    0.275808
    10  H    0.276038
    11  H    0.225344
    12  N    0.488078
    13  O   -0.460160
    14  O   -0.460332
    15  C   -0.298499
    16  C   -0.298773
    17  C   -0.476135
    18  H    0.151835
    19  H    0.153129
    20  H    0.143924
    21  H    0.152944
    22  H    0.157779
    23  H    0.156438
    24  H    0.161679
    25  C   -0.303380
    26  C   -0.298799
    27  C   -0.481208
    28  H    0.143378
    29  H    0.149140
    30  H    0.155496
    31  H    0.154842
    32  H    0.153149
    33  H    0.154851
    34  H    0.164717
 Sum of Mulliken charges =  -0.00000

 Dipole moment (field-independent basis, Debye):
    X=              4.8827    Y=              0.3402    Z=              1.9983  Tot=              5.2867
 Quadrupole moment (field-independent basis, Debye-Ang):
   XX=           -124.4559   YY=            -91.1935   ZZ=            -94.2724
   XY=             -2.5519   XZ=             -6.3662   YZ=              1.2667

 Normal termination of Gaussian 16 at Thu May  6 15:59:22 2021.
