 Gaussian 16, Revision A.03,
 Gaussian 16:  EM64L-G16RevA.03 25-Dec-2016

 -------------
 #p 6-31g* mp2
 -------------

 ------------------------------------------------------
 Input file generated by CHIRIPA (05-May-2021 14:55:19)
 ------------------------------------------------------
 Symbolic Z-matrix:
 Charge =  0 Multiplicity = 1

                         Standard orientation:
 ---------------------------------------------------------------------
 Center     Atomic      Atomic             Coordinates (Angstroms)
 Number     Number       Type             X           Y           Z
 ---------------------------------------------------------------------
      1          6           0       -3.829564    0.848621    0.355516
      2          6           0       -3.369655    0.612145   -0.944131
      3          6           0       -2.326223   -0.289232   -1.175036
      4          6           0       -1.763112   -0.939670   -0.078165
      5          6           0       -2.199246   -0.725369    1.228415
      6          6           0       -3.243924    0.180288    1.435737
      7          1           0       -4.640611    1.550494    0.525729
      8          1           0       -3.822587    1.129753   -1.784952
      9          1           0       -1.950691   -0.491103   -2.170848
     10          1           0       -1.727884   -1.256393    2.046492
     11          1           0       -3.599053    0.361967    2.446144
     12          7           0       -0.657817   -1.896182   -0.310130
     13          8           0       -0.178481   -2.456516    0.673181
     14          8           0       -0.291753   -2.067452   -1.470863
     15          6           0        2.877139    0.444389    0.402844
     16          6           0        4.193640    0.090458   -0.289645
     17          6           0        4.956771   -1.024686    0.425811
     18          1           0        3.084597    0.746199    1.438614
     19          1           0        2.247432   -0.454319    0.459311
     20          1           0        4.820111    0.989887   -0.346026
     21          1           0        3.983043   -0.210360   -1.323943
     22          1           0        4.353867   -1.937487    0.469432
     23          1           0        5.195692   -0.730420    1.452907
     24          1           0        5.894666   -1.261722   -0.086074
     25          6           0        2.102771    1.557595   -0.300613
     26          6           0        0.786270    1.911525    0.391876
     27          6           0        0.023140    3.026671   -0.323580
     28          1           0        2.732478    2.456303   -0.357080
     29          1           0        1.895313    1.255785   -1.336383
     30          1           0        0.996868    2.212344    1.426174
     31          1           0        0.159799    1.012097    0.448257
     32          1           0       -0.215781    2.732405   -1.350675
     33          1           0        0.626044    3.939471   -0.367201
     34          1           0       -0.914756    3.263707    0.188305
 ---------------------------------------------------------------------

 SCF Done:  E(RHF) =  -669.535177757     A.U. after   15 cycles
 E2 =    -0.2094936670D+01 EUMP2 =    -0.67163011442738D+03

 The electronic state is 1-A.
 Alpha  occ. eigenvalues --  -20.60990 -20.60973 -15.86007 -11.31284 -11.27876
 Alpha  occ. eigenvalues --  -11.27857 -11.27620 -11.26895 -11.26885 -11.21318
 Alpha  occ. eigenvalues --  -11.21023 -11.20899 -11.20839 -11.20606 -11.20239
 Alpha  occ. eigenvalues --   -1.60049  -1.39601  -1.19499  -1.08904  -1.07885
 Alpha  occ. eigenvalues --   -1.04880  -1.03028  -0.95741  -0.95478  -0.86503
 Alpha  occ. eigenvalues --   -0.86283  -0.82571  -0.79137  -0.77660  -0.77625
 Alpha  occ. eigenvalues --   -0.72227  -0.71396  -0.70593  -0.65143  -0.64883
 Alpha  occ. eigenvalues --   -0.64506  -0.62225  -0.60469  -0.58905  -0.57096
 Alpha  occ. eigenvalues --   -0.55385  -0.54820  -0.53151  -0.52970  -0.52193
 Alpha  occ. eigenvalues --   -0.51904  -0.49431  -0.48995  -0.48988  -0.47436
 Alpha  occ. eigenvalues --   -0.46179  -0.45300  -0.45182  -0.44785  -0.43264
 Alpha  occ. eigenvalues --   -0.37376  -0.36457
 Alpha virt. eigenvalues --    0.04861   0.11139   0.16347   0.21281   0.23141
 Alpha virt. eigenvalues --    0.24755   0.26921   0.27128   0.27939   0.28229
 Alpha virt. eigenvalues --    0.28409   0.31003   0.31756   0.31977   0.32401

 Mulliken charges:
               1
     1  C   -0.171403
     2  C   -0.215213
     3  C   -0.171682
     4  C    0.155727
     5  C   -0.172335
     6  C   -0.215697
     7  H    0.226386
     8  H    0.224349
     9  H    0.275639
    10  H    0.276100
    11  H    0.224244
    12  N    0.490969
    13  O   -0.459921
    14  O   -0.460061
    15  C   -0.304173
    16  C   -0.298915
    17  C   -0.477250
    18  H    0.145721
    19  H    0.163663
    20  H    0.147285
    21  H    0.155269
    22  H    0.164383
    23  H    0.151718
    24  H    0.157414
    25  C   -0.299075
    26  C   -0.303218
    27  C   -0.473051
    28  H    0.146862
    29  H    0.151770
    30  H    0.149807
    31  H    0.153610
    32  H    0.151354
    33  H    0.154353
    34  H    0.155373
 Sum of Mulliken charges =  -0.00000

 Dipole moment (field-independent basis, Debye):
    X=             -4.0415    Y=              3.1723    Z=              0.8007  Tot=              5.1998
 Quadrupole moment (field-independent basis, Debye-Ang):
   XX=            -81.9927   YY=           -102.2013   ZZ=            -89.8957
   XY=             -2.0061   XZ=             -0.9972   YZ=             -1.3478

 Normal termination of Gaussian 16 at Thu May  6 06:08:08 2021.
