 Gaussian 16, Revision A.03,
 Gaussian 16:  EM64L-G16RevA.03 25-Dec-2016

 -------------
 #p 6-31g* mp2
 -------------

 ------------------------------------------------------
 Input file generated by CHIRIPA (05-May-2021 14:53:15)
 ------------------------------------------------------
 Symbolic Z-matrix:
 Charge =  0 Multiplicity = 1

                         Standard orientation:
 ---------------------------------------------------------------------
 Center     Atomic      Atomic             Coordinates (Angstroms)
 Number     Number       Type             X           Y           Z
 ---------------------------------------------------------------------
      1          6           0        4.287261    0.097356    0.456569
      2          6           0        5.459654    0.532634   -0.423211
      3          6           0        6.420889    1.477962    0.298022
      4          1           0        3.741600    0.988245    0.796444
      5          1           0        4.677471   -0.393359    1.358971
      6          1           0        5.067312    1.021148   -1.324342
      7          1           0        6.002474   -0.359406   -0.761187
      8          1           0        6.839917    0.996379    1.187457
      9          1           0        5.899441    2.384776    0.621102
     10          1           0        7.251443    1.776554   -0.349189
     11          6           0        3.317554   -0.847911   -0.250444
     12          6           0        2.145161   -1.283189    0.629336
     13          6           0        1.183926   -2.228517   -0.091897
     14          1           0        2.927344   -0.357196   -1.152846
     15          1           0        3.863215   -1.738800   -0.590319
     16          1           0        1.602341   -0.391150    0.967312
     17          1           0        2.537503   -1.771704    1.530467
     18          1           0        1.705374   -3.135332   -0.414977
     19          1           0        0.764898   -1.746934   -0.981332
     20          1           0        0.353372   -2.527109    0.555315
     21          6           0       -2.808782    2.811032   -0.093863
     22          6           0       -3.875806    2.181609    0.555604
     23          6           0       -3.975612    0.787192    0.569399
     24          6           0       -2.986278    0.049770   -0.079228
     25          6           0       -1.911115    0.647572   -0.734930
     26          6           0       -1.831566    2.043358   -0.735926
     27          1           0       -2.739119    3.894780   -0.099607
     28          1           0       -4.636178    2.775257    1.055064
     29          1           0       -4.791023    0.274054    1.064587
     30          1           0       -1.168446    0.029063   -1.224120
     31          1           0       -1.001785    2.529466   -1.241108
     32          7           0       -3.081215   -1.427161   -0.071399
     33          8           0       -2.196687   -2.054263   -0.650181
     34          8           0       -4.038360   -1.929713    0.513370
 ---------------------------------------------------------------------

 SCF Done:  E(RHF) =  -669.535202754     A.U. after   15 cycles
 E2 =    -0.2091946854D+01 EUMP2 =    -0.67162714960795D+03

 The electronic state is 1-A.
 Alpha  occ. eigenvalues --  -20.60845 -20.60829 -15.85871 -11.31237 -11.27805
 Alpha  occ. eigenvalues --  -11.27800 -11.27550 -11.26824 -11.26814 -11.21652
 Alpha  occ. eigenvalues --  -11.21386 -11.21309 -11.21250 -11.21151 -11.20292
 Alpha  occ. eigenvalues --   -1.59910  -1.39464  -1.19410  -1.08808  -1.08340
 Alpha  occ. eigenvalues --   -1.04813  -1.03348  -0.95789  -0.95615  -0.86764
 Alpha  occ. eigenvalues --   -0.86210  -0.82478  -0.79417  -0.78154  -0.77514
 Alpha  occ. eigenvalues --   -0.72102  -0.71231  -0.70522  -0.65071  -0.65004
 Alpha  occ. eigenvalues --   -0.64806  -0.62181  -0.60748  -0.59142  -0.57367
 Alpha  occ. eigenvalues --   -0.55333  -0.55058  -0.53143  -0.52906  -0.52382
 Alpha  occ. eigenvalues --   -0.52177  -0.49757  -0.48858  -0.48825  -0.47716
 Alpha  occ. eigenvalues --   -0.46481  -0.45674  -0.45636  -0.44871  -0.43508
 Alpha  occ. eigenvalues --   -0.37390  -0.36414
 Alpha virt. eigenvalues --    0.04982   0.11212   0.16462   0.20634   0.22867
 Alpha virt. eigenvalues --    0.23999   0.26235   0.27132   0.27611   0.27697
 Alpha virt. eigenvalues --    0.29148   0.30612   0.31499   0.31850   0.32282

 Mulliken charges:
               1
     1  C   -0.297457
     2  C   -0.299206
     3  C   -0.475429
     4  H    0.146299
     5  H    0.150644
     6  H    0.149709
     7  H    0.153110
     8  H    0.155950
     9  H    0.153518
    10  H    0.160087
    11  C   -0.296644
    12  C   -0.302913
    13  C   -0.473375
    14  H    0.143384
    15  H    0.151428
    16  H    0.145396
    17  H    0.152056
    18  H    0.153736
    19  H    0.151610
    20  H    0.174953
    21  C   -0.170442
    22  C   -0.218728
    23  C   -0.170425
    24  C    0.156504
    25  C   -0.171820
    26  C   -0.220363
    27  H    0.225787
    28  H    0.223635
    29  H    0.275736
    30  H    0.280997
    31  H    0.223695
    32  N    0.487972
    33  O   -0.459274
    34  O   -0.460130
 Sum of Mulliken charges =  -0.00000

 Dipole moment (field-independent basis, Debye):
    X=              0.1907    Y=              5.0738    Z=             -0.0046  Tot=              5.0774
 Quadrupole moment (field-independent basis, Debye-Ang):
   XX=            -94.0210   YY=            -94.2848   ZZ=            -94.1024
   XY=            -17.0943   XZ=             -2.6746   YZ=             -0.8104

 Normal termination of Gaussian 16 at Thu May  6 10:34:20 2021.
