 Gaussian 16, Revision A.03,
 Gaussian 16:  EM64L-G16RevA.03 25-Dec-2016

 -------------
 #p 6-31g* mp2
 -------------

 ------------------------------------------------------
 Input file generated by CHIRIPA (05-May-2021 14:53:17)
 ------------------------------------------------------
 Symbolic Z-matrix:
 Charge =  0 Multiplicity = 1

                         Standard orientation:
 ---------------------------------------------------------------------
 Center     Atomic      Atomic             Coordinates (Angstroms)
 Number     Number       Type             X           Y           Z
 ---------------------------------------------------------------------
      1          6           0       -5.077874   -0.092549    0.242423
      2          6           0       -5.720337    0.734638   -0.871574
      3          6           0       -7.162345    1.132872   -0.555638
      4          1           0       -5.679936   -0.995368    0.413844
      5          1           0       -5.103727    0.482735    1.178251
      6          1           0       -5.692034    0.158517   -1.805330
      7          1           0       -5.116570    1.635497   -1.040494
      8          1           0       -7.205186    1.729223    0.361494
      9          1           0       -7.783920    0.243852   -0.407687
     10          1           0       -7.602286    1.723522   -1.365234
     11          6           0       -3.636211   -0.498287   -0.058763
     12          6           0       -2.993749   -1.325474    1.055234
     13          6           0       -1.551741   -1.723709    0.739298
     14          1           0       -3.610359   -1.073571   -0.994591
     15          1           0       -3.034150    0.404531   -0.230184
     16          1           0       -3.597516   -2.226333    1.224154
     17          1           0       -3.022052   -0.749354    1.988990
     18          1           0       -0.930166   -0.834689    0.591347
     19          1           0       -1.508899   -2.320060   -0.177834
     20          1           0       -1.111800   -2.314358    1.548894
     21          6           0        3.750014   -2.225909   -0.530826
     22          6           0        4.833273   -1.343074   -0.591434
     23          6           0        4.653204    0.020145   -0.338925
     24          6           0        3.370483    0.468300   -0.027360
     25          6           0        2.271287   -0.386345    0.040752
     26          6           0        2.474726   -1.745574   -0.215482
     27          1           0        3.898974   -3.283340   -0.728427
     28          1           0        5.824798   -1.713295   -0.836092
     29          1           0        5.474250    0.725618   -0.379029
     30          1           0        1.294697    0.012350    0.287191
     31          1           0        1.631612   -2.428889   -0.167698
     32          7           0        3.167480    1.909367    0.241932
     33          8           0        2.027429    2.279170    0.514266
     34          8           0        4.152263    2.641786    0.175569
 ---------------------------------------------------------------------

 SCF Done:  E(RHF) =  -669.535623844     A.U. after   15 cycles
 E2 =    -0.2091220315D+01 EUMP2 =    -0.67162684415897D+03

 The electronic state is 1-A.
 Alpha  occ. eigenvalues --  -20.60727 -20.60722 -15.85776 -11.31105 -11.27678
 Alpha  occ. eigenvalues --  -11.27643 -11.27413 -11.26695 -11.26642 -11.22079
 Alpha  occ. eigenvalues --  -11.21944 -11.21662 -11.21642 -11.21511 -11.21093
 Alpha  occ. eigenvalues --   -1.59801  -1.39356  -1.19275  -1.08686  -1.08679
 Alpha  occ. eigenvalues --   -1.04673  -1.03850  -0.96334  -0.95521  -0.87367
 Alpha  occ. eigenvalues --   -0.86074  -0.82351  -0.79932  -0.78457  -0.77397
 Alpha  occ. eigenvalues --   -0.71998  -0.71122  -0.70401  -0.65314  -0.64927
 Alpha  occ. eigenvalues --   -0.64676  -0.62070  -0.61218  -0.59713  -0.57909
 Alpha  occ. eigenvalues --   -0.55645  -0.55173  -0.53063  -0.53002  -0.52814
 Alpha  occ. eigenvalues --   -0.52693  -0.50264  -0.48754  -0.48751  -0.48234
 Alpha  occ. eigenvalues --   -0.46924  -0.46013  -0.45898  -0.44769  -0.44081
 Alpha  occ. eigenvalues --   -0.37263  -0.36272
 Alpha virt. eigenvalues --    0.05126   0.11376   0.16624   0.20146   0.22719
 Alpha virt. eigenvalues --    0.23891   0.25374   0.25882   0.27240   0.27811
 Alpha virt. eigenvalues --    0.29072   0.29639   0.31187   0.31537   0.32193

 Mulliken charges:
               1
     1  C   -0.298855
     2  C   -0.300300
     3  C   -0.475969
     4  H    0.149136
     5  H    0.151538
     6  H    0.151374
     7  H    0.154596
     8  H    0.156204
     9  H    0.154600
    10  H    0.161068
    11  C   -0.300088
    12  C   -0.299295
    13  C   -0.484759
    14  H    0.148640
    15  H    0.154209
    16  H    0.153384
    17  H    0.156737
    18  H    0.154995
    19  H    0.153400
    20  H    0.160715
    21  C   -0.171008
    22  C   -0.218773
    23  C   -0.170654
    24  C    0.160440
    25  C   -0.179161
    26  C   -0.223821
    27  H    0.225312
    28  H    0.223049
    29  H    0.275242
    30  H    0.282985
    31  H    0.228896
    32  N    0.487738
    33  O   -0.461016
    34  O   -0.460559
 Sum of Mulliken charges =  -0.00000

 Dipole moment (field-independent basis, Debye):
    X=              0.5327    Y=             -5.0555    Z=             -0.9249  Tot=              5.1669
 Quadrupole moment (field-independent basis, Debye-Ang):
   XX=            -85.7032   YY=            -99.4673   ZZ=            -95.2481
   XY=            -15.5168   XZ=             -4.0260   YZ=             -0.0893

 Normal termination of Gaussian 16 at Thu May  6 17:17:19 2021.
