 Gaussian 16, Revision A.03,
 Gaussian 16:  EM64L-G16RevA.03 25-Dec-2016

 -------------
 #p 6-31g* mp2
 -------------

 ------------------------------------------------------
 Input file generated by CHIRIPA (05-May-2021 14:55:20)
 ------------------------------------------------------
 Symbolic Z-matrix:
 Charge =  0 Multiplicity = 1

                         Standard orientation:
 ---------------------------------------------------------------------
 Center     Atomic      Atomic             Coordinates (Angstroms)
 Number     Number       Type             X           Y           Z
 ---------------------------------------------------------------------
      1          6           0       -0.689311   -2.030110    1.604858
      2          6           0       -0.738229   -2.349420    0.243914
      3          6           0       -1.495911   -1.575546   -0.640159
      4          6           0       -2.195471   -0.484482   -0.126849
      5          6           0       -2.166718   -0.140817    1.223839
      6          6           0       -1.402454   -0.928769    2.089622
      7          1           0       -0.098170   -2.636742    2.284523
      8          1           0       -0.185407   -3.204160   -0.135365
      9          1           0       -1.551416   -1.800219   -1.698393
     10          1           0       -2.728482    0.717301    1.572367
     11          1           0       -1.366312   -0.678427    3.146064
     12          7           0       -3.001078    0.342236   -1.053096
     13          8           0       -3.608371    1.298338   -0.575916
     14          8           0       -3.009966    0.018461   -2.238730
     15          6           0        2.337038    1.323914    0.426594
     16          6           0        0.897568    1.689816    0.063239
     17          6           0        0.304743    2.750058    0.991806
     18          1           0        2.366180    0.962712    1.463719
     19          1           0        2.957789    2.229990    0.393613
     20          1           0        0.279996    0.783076    0.095547
     21          1           0        0.871818    2.050008   -0.973204
     22          1           0        0.896421    3.670393    0.953041
     23          1           0        0.301235    2.396263    2.027865
     24          1           0       -0.724769    2.996651    0.714031
     25          6           0        2.943467    0.265169   -0.492663
     26          6           0        4.382936   -0.100734   -0.129307
     27          6           0        4.975761   -1.160976   -1.057874
     28          1           0        2.322715   -0.640906   -0.459682
     29          1           0        2.914323    0.626371   -1.529788
     30          1           0        4.408685   -0.460925    0.907136
     31          1           0        5.000507    0.806007   -0.161615
     32          1           0        4.979268   -0.807180   -2.093934
     33          1           0        4.384083   -2.081310   -1.019109
     34          1           0        6.005272   -1.407567   -0.780100
 ---------------------------------------------------------------------

 SCF Done:  E(RHF) =  -669.534642876     A.U. after   15 cycles
 E2 =    -0.2095444290D+01 EUMP2 =    -0.67163008716595D+03

 The electronic state is 1-A.
 Alpha  occ. eigenvalues --  -20.60865 -20.60859 -15.85911 -11.31271 -11.27902
 Alpha  occ. eigenvalues --  -11.27863 -11.27685 -11.26952 -11.26909 -11.21846
 Alpha  occ. eigenvalues --  -11.21544 -11.21456 -11.21383 -11.21370 -11.21027
 Alpha  occ. eigenvalues --   -1.59932  -1.39486  -1.19528  -1.08896  -1.08534
 Alpha  occ. eigenvalues --   -1.04920  -1.03627  -0.96103  -0.95715  -0.87114
 Alpha  occ. eigenvalues --   -0.86302  -0.82547  -0.79709  -0.78359  -0.77582
 Alpha  occ. eigenvalues --   -0.72132  -0.71260  -0.70608  -0.65205  -0.65156
 Alpha  occ. eigenvalues --   -0.64906  -0.62254  -0.61099  -0.59474  -0.57717
 Alpha  occ. eigenvalues --   -0.55456  -0.55405  -0.53318  -0.53007  -0.52727
 Alpha  occ. eigenvalues --   -0.52511  -0.50044  -0.48893  -0.48885  -0.47987
 Alpha  occ. eigenvalues --   -0.46707  -0.45874  -0.45687  -0.44884  -0.43870
 Alpha  occ. eigenvalues --   -0.37467  -0.36504
 Alpha virt. eigenvalues --    0.04929   0.11061   0.16364   0.21064   0.22826
 Alpha virt. eigenvalues --    0.24012   0.26420   0.26684   0.27316   0.27902
 Alpha virt. eigenvalues --    0.28614   0.30097   0.31238   0.31568   0.31883

 Mulliken charges:
               1
     1  C   -0.171984
     2  C   -0.216625
     3  C   -0.172703
     4  C    0.159258
     5  C   -0.171985
     6  C   -0.216378
     7  H    0.226625
     8  H    0.224622
     9  H    0.276643
    10  H    0.276758
    11  H    0.224451
    12  N    0.488963
    13  O   -0.460917
    14  O   -0.459797
    15  C   -0.295427
    16  C   -0.309452
    17  C   -0.478799
    18  H    0.144576
    19  H    0.149730
    20  H    0.162912
    21  H    0.154466
    22  H    0.156151
    23  H    0.146909
    24  H    0.167064
    25  C   -0.299165
    26  C   -0.299364
    27  C   -0.474949
    28  H    0.145610
    29  H    0.151733
    30  H    0.148941
    31  H    0.153569
    32  H    0.157074
    33  H    0.150878
    34  H    0.160612
 Sum of Mulliken charges =  -0.00000

 Dipole moment (field-independent basis, Debye):
    X=              2.6983    Y=             -2.9374    Z=              3.2126  Tot=              5.1215
 Quadrupole moment (field-independent basis, Debye-Ang):
   XX=           -107.9978   YY=            -90.6581   ZZ=            -92.9225
   XY=              4.8512   XZ=             -8.7933   YZ=              0.2316

 Normal termination of Gaussian 16 at Wed May  5 15:52:57 2021.
