 Gaussian 16, Revision A.03,
 Gaussian 16:  EM64L-G16RevA.03 25-Dec-2016

 -------------
 #p 6-31g* mp2
 -------------

 ------------------------------------------------------
 Input file generated by CHIRIPA (05-May-2021 14:53:14)
 ------------------------------------------------------
 Symbolic Z-matrix:
 Charge =  0 Multiplicity = 1

                         Standard orientation:
 ---------------------------------------------------------------------
 Center     Atomic      Atomic             Coordinates (Angstroms)
 Number     Number       Type             X           Y           Z
 ---------------------------------------------------------------------
      1          6           0        3.864034   -0.001321    0.254548
      2          6           0        5.196319    0.378778   -0.392388
      3          6           0        6.109820    1.161377    0.551461
      4          1           0        3.352463    0.911565    0.589030
      5          1           0        4.059301   -0.598382    1.156093
      6          1           0        4.998557    0.973777   -1.293211
      7          1           0        5.704691   -0.535105   -0.725541
      8          1           0        6.336308    0.571428    1.445477
      9          1           0        5.626162    2.088883    0.874582
     10          1           0        7.056615    1.422829    0.068676
     11          6           0        2.939931   -0.784099   -0.676591
     12          6           0        1.607646   -1.164199   -0.029656
     13          6           0        0.694145   -1.946797   -0.973505
     14          1           0        2.744664   -0.187038   -1.578136
     15          1           0        3.451502   -1.696985   -1.011073
     16          1           0        1.099274   -0.250315    0.303498
     17          1           0        1.805408   -1.759198    0.871168
     18          1           0        1.177804   -2.874304   -1.296625
     19          1           0        0.467658   -1.356848   -1.867521
     20          1           0       -0.252650   -2.208250   -0.490719
     21          6           0       -2.798420   -2.165191    0.650026
     22          6           0       -2.181314   -1.306186    1.565346
     23          6           0       -2.097670    0.065227    1.306927
     24          6           0       -2.644204    0.545788    0.117957
     25          6           0       -3.265310   -0.284561   -0.813728
     26          6           0       -3.337498   -1.652542   -0.534502
     27          1           0       -2.858946   -3.229204    0.858855
     28          1           0       -1.761786   -1.701522    2.486080
     29          1           0       -1.625459    0.752740    1.998130
     30          1           0       -3.674320    0.138966   -1.722988
     31          1           0       -3.817330   -2.317298   -1.247175
     32          7           0       -2.561718    1.995824   -0.166634
     33          8           0       -3.050981    2.394348   -1.221357
     34          8           0       -2.009365    2.706383    0.670414
 ---------------------------------------------------------------------

 SCF Done:  E(RHF) =  -669.534689910     A.U. after   15 cycles
 E2 =    -0.2093693980D+01 EUMP2 =    -0.67162838389067D+03

 The electronic state is 1-A.
 Alpha  occ. eigenvalues --  -20.60851 -20.60846 -15.85905 -11.31300 -11.27858
 Alpha  occ. eigenvalues --  -11.27851 -11.27569 -11.26864 -11.26854 -11.21669
 Alpha  occ. eigenvalues --  -11.21533 -11.21382 -11.21314 -11.21002 -11.20987
 Alpha  occ. eigenvalues --   -1.59926  -1.39479  -1.19472  -1.08870  -1.08409
 Alpha  occ. eigenvalues --   -1.04864  -1.03510  -0.95956  -0.95690  -0.86977
 Alpha  occ. eigenvalues --   -0.86262  -0.82514  -0.79589  -0.78230  -0.77556
 Alpha  occ. eigenvalues --   -0.72121  -0.71250  -0.70571  -0.65116  -0.65042
 Alpha  occ. eigenvalues --   -0.64857  -0.62204  -0.60916  -0.59429  -0.57652
 Alpha  occ. eigenvalues --   -0.55367  -0.55255  -0.53554  -0.52950  -0.52487
 Alpha  occ. eigenvalues --   -0.52032  -0.49895  -0.48882  -0.48875  -0.47906
 Alpha  occ. eigenvalues --   -0.46629  -0.45772  -0.45693  -0.44877  -0.43780
 Alpha  occ. eigenvalues --   -0.37356  -0.36440
 Alpha virt. eigenvalues --    0.04944   0.11123   0.16409   0.21247   0.22899
 Alpha virt. eigenvalues --    0.24356   0.26565   0.26954   0.27710   0.27983
 Alpha virt. eigenvalues --    0.28347   0.30707   0.31400   0.31891   0.32395

 Mulliken charges:
               1
     1  C   -0.298930
     2  C   -0.299712
     3  C   -0.475934
     4  H    0.152444
     5  H    0.147209
     6  H    0.153493
     7  H    0.150907
     8  H    0.154009
     9  H    0.156849
    10  H    0.160333
    11  C   -0.298175
    12  C   -0.299152
    13  C   -0.483223
    14  H    0.151917
    15  H    0.148392
    16  H    0.152962
    17  H    0.145868
    18  H    0.151031
    19  H    0.155531
    20  H    0.165916
    21  C   -0.177303
    22  C   -0.215233
    23  C   -0.169781
    24  C    0.159508
    25  C   -0.170498
    26  C   -0.214133
    27  H    0.226757
    28  H    0.224735
    29  H    0.276197
    30  H    0.276075
    31  H    0.224419
    32  N    0.487918
    33  O   -0.460010
    34  O   -0.460384
 Sum of Mulliken charges =  -0.00000

 Dipole moment (field-independent basis, Debye):
    X=             -0.4359    Y=             -5.0418    Z=              1.0149  Tot=              5.1613
 Quadrupole moment (field-independent basis, Debye-Ang):
   XX=            -93.0272   YY=           -100.5913   ZZ=            -91.1625
   XY=             13.4726   XZ=             -0.6423   YZ=             -0.0716

 Normal termination of Gaussian 16 at Wed May  5 18:37:09 2021.
