 Gaussian 16, Revision A.03,
 Gaussian 16:  EM64L-G16RevA.03 25-Dec-2016

 -------------
 #p 6-31g* mp2
 -------------

 ------------------------------------------------------
 Input file generated by CHIRIPA (05-May-2021 14:51:08)
 ------------------------------------------------------
 Symbolic Z-matrix:
 Charge =  0 Multiplicity = 1

                         Standard orientation:
 ---------------------------------------------------------------------
 Center     Atomic      Atomic             Coordinates (Angstroms)
 Number     Number       Type             X           Y           Z
 ---------------------------------------------------------------------
      1          6           0        2.987383   -0.066852   -0.092852
      2          6           0        2.726654    0.725061   -1.374601
      3          6           0        3.899598    1.626305   -1.761582
      4          1           0        3.199418    0.633516    0.726581
      5          1           0        3.891790   -0.676846   -0.224574
      6          1           0        1.822226    1.332330   -1.240989
      7          1           0        2.515026    0.022734   -2.191035
      8          1           0        4.805203    1.032375   -1.921983
      9          1           0        4.108467    2.349412   -0.966540
     10          1           0        3.691866    2.183134   -2.680630
     11          6           0        1.823880   -0.972446    0.307010
     12          6           0        2.084609   -1.764359    1.588758
     13          6           0        0.911665   -2.665603    1.975740
     14          1           0        0.919473   -0.362452    0.438732
     15          1           0        1.611845   -1.672814   -0.512423
     16          1           0        2.296237   -1.062031    2.405193
     17          1           0        2.989037   -2.371627    1.455147
     18          1           0        0.702796   -3.388710    1.180697
     19          1           0        0.006060   -2.071673    2.136141
     20          1           0        1.119397   -3.222432    2.894788
     21          6           0       -2.539833    1.012049    0.461221
     22          6           0       -1.421390    2.037029    0.652236
     23          6           0       -1.704415    3.015172    1.792818
     24          1           0       -3.483445    1.540270    0.267513
     25          1           0       -2.680350    0.454274    1.397456
     26          1           0       -1.282087    2.591759   -0.284506
     27          1           0       -0.480294    1.506301    0.845321
     28          1           0       -1.822456    2.478818    2.739915
     29          1           0       -2.628805    3.570444    1.603669
     30          1           0       -0.892156    3.739007    1.911800
     31          6           0       -2.271431    0.027249   -0.675379
     32          6           0       -3.389873   -0.997732   -0.866394
     33          6           0       -3.106848   -1.975875   -2.006976
     34          1           0       -2.130914    0.585023   -1.611615
     35          1           0       -1.327818   -0.500973   -0.481672
     36          1           0       -4.330969   -0.467003   -1.059478
     37          1           0       -3.529176   -1.552461    0.070348
     38          1           0       -2.182459   -2.531146   -1.817826
     39          1           0       -2.988807   -1.439522   -2.954073
     40          1           0       -3.919107   -2.699711   -2.125958
 ---------------------------------------------------------------------

 SCF Done:  E(RHF) =  -470.732832830     A.U. after   11 cycles
 E2 =    -0.1584490606D+01 EUMP2 =    -0.47231732343545D+03

 The electronic state is 1-A.
 Alpha  occ. eigenvalues --  -11.21666 -11.21657 -11.21580 -11.21570 -11.21425
 Alpha  occ. eigenvalues --  -11.21413 -11.21365 -11.21303 -11.21156 -11.21128
 Alpha  occ. eigenvalues --  -11.21061 -11.21042  -1.08498  -1.08409  -1.03559
 Alpha  occ. eigenvalues --   -1.03544  -0.96017  -0.95985  -0.87030  -0.87005
 Alpha  occ. eigenvalues --   -0.79628  -0.79610  -0.78493  -0.78057  -0.65322
 Alpha  occ. eigenvalues --   -0.64877  -0.60979  -0.60920  -0.59388  -0.59350
 Alpha  occ. eigenvalues --   -0.57653  -0.57572  -0.55312  -0.55277  -0.52719
 Alpha  occ. eigenvalues --   -0.52680  -0.52458  -0.52396  -0.49978  -0.49925
 Alpha  occ. eigenvalues --   -0.47986  -0.47920  -0.46819  -0.46613  -0.46450
 Alpha  occ. eigenvalues --   -0.45761  -0.45736  -0.44874  -0.43813  -0.43782
 Alpha virt. eigenvalues --    0.20117   0.22717   0.24039   0.24549   0.25194
 Alpha virt. eigenvalues --    0.26601   0.26772   0.27700   0.28114   0.30448
 Alpha virt. eigenvalues --    0.31050   0.31573   0.31769   0.32026   0.32205

 Mulliken charges:
               1
     1  C   -0.297087
     2  C   -0.301839
     3  C   -0.475666
     4  H    0.149238
     5  H    0.149637
     6  H    0.154424
     7  H    0.151978
     8  H    0.155078
     9  H    0.155091
    10  H    0.160254
    11  C   -0.311789
    12  C   -0.298806
    13  C   -0.476468
    14  H    0.162156
    15  H    0.149614
    16  H    0.151786
    17  H    0.152354
    18  H    0.155224
    19  H    0.154433
    20  H    0.160927
    21  C   -0.298029
    22  C   -0.307649
    23  C   -0.475190
    24  H    0.149971
    25  H    0.148849
    26  H    0.152407
    27  H    0.157712
    28  H    0.155160
    29  H    0.155670
    30  H    0.160145
    31  C   -0.306086
    32  C   -0.299100
    33  C   -0.475672
    34  H    0.149190
    35  H    0.158059
    36  H    0.151625
    37  H    0.151903
    38  H    0.155356
    39  H    0.155046
    40  H    0.160095
 Sum of Mulliken charges =  -0.00000

 Dipole moment (field-independent basis, Debye):
    X=              0.0119    Y=             -0.0003    Z=             -0.0012  Tot=              0.0120
 Quadrupole moment (field-independent basis, Debye-Ang):
   XX=            -85.0678   YY=            -84.8918   ZZ=            -84.8490
   XY=             -1.1248   XZ=              0.4480   YZ=             -0.3349

 Normal termination of Gaussian 16 at Wed May  5 18:05:25 2021.
