 Gaussian 16, Revision A.03,
 Gaussian 16:  EM64L-G16RevA.03 25-Dec-2016

 -------------
 #p 6-31g* mp2
 -------------

 ------------------------------------------------------
 Input file generated by CHIRIPA (05-May-2021 14:53:15)
 ------------------------------------------------------
 Symbolic Z-matrix:
 Charge =  0 Multiplicity = 1

                         Standard orientation:
 ---------------------------------------------------------------------
 Center     Atomic      Atomic             Coordinates (Angstroms)
 Number     Number       Type             X           Y           Z
 ---------------------------------------------------------------------
      1          6           0       -4.417412   -0.494767   -0.507576
      2          6           0       -4.831237   -1.605658    0.458164
      3          6           0       -5.628018   -2.717059   -0.225739
      4          1           0       -5.316518   -0.069474   -0.974138
      5          1           0       -3.819149   -0.929169   -1.320455
      6          1           0       -5.427378   -1.169076    1.269723
      7          1           0       -3.931055   -2.028227    0.922625
      8          1           0       -5.037610   -3.179509   -1.023335
      9          1           0       -6.542435   -2.315477   -0.674264
     10          1           0       -5.913586   -3.500712    0.482920
     11          6           0       -3.620134    0.623568    0.161305
     12          6           0       -3.206310    1.734459   -0.804435
     13          6           0       -2.409529    2.845859   -0.120532
     14          1           0       -4.218397    1.057969    0.974184
     15          1           0       -2.721029    0.198275    0.627867
     16          1           0       -4.106492    2.157027   -1.268896
     17          1           0       -2.610169    1.297877   -1.615994
     18          1           0       -1.495112    2.444278    0.327993
     19          1           0       -2.999937    3.308310    0.677064
     20          1           0       -2.123961    3.629513   -0.829191
     21          6           0        1.229102    1.224511    1.179528
     22          6           0        1.909582    0.252342    1.920038
     23          6           0        2.969688   -0.460147    1.351635
     24          6           0        3.324373   -0.173558    0.034306
     25          6           0        2.665876    0.789076   -0.729244
     26          6           0        1.608752    1.489308   -0.140423
     27          1           0        0.406744    1.773229    1.629008
     28          1           0        1.616922    0.044592    2.945336
     29          1           0        3.513684   -1.218028    1.902184
     30          1           0        2.980586    0.973986   -1.749138
     31          1           0        1.082083    2.243755   -0.717896
     32          7           0        4.445082   -0.921351   -0.578244
     33          8           0        4.738167   -0.650134   -1.740647
     34          8           0        5.009188   -1.764527    0.115640
 ---------------------------------------------------------------------

 SCF Done:  E(RHF) =  -669.535397945     A.U. after   15 cycles
 E2 =    -0.2091505944D+01 EUMP2 =    -0.67162690388959D+03

 The electronic state is 1-A.
 Alpha  occ. eigenvalues --  -20.60769 -20.60764 -15.85823 -11.31194 -11.27758
 Alpha  occ. eigenvalues --  -11.27752 -11.27482 -11.26775 -11.26753 -11.22459
 Alpha  occ. eigenvalues --  -11.22257 -11.22114 -11.22057 -11.21910 -11.21420
 Alpha  occ. eigenvalues --   -1.59845  -1.39398  -1.19363  -1.09096  -1.08758
 Alpha  occ. eigenvalues --   -1.04765  -1.04225  -0.96698  -0.95594  -0.87719
 Alpha  occ. eigenvalues --   -0.86160  -0.82425  -0.80301  -0.78874  -0.77469
 Alpha  occ. eigenvalues --   -0.72041  -0.71168  -0.70499  -0.65734  -0.65015
 Alpha  occ. eigenvalues --   -0.64769  -0.62132  -0.61596  -0.60081  -0.58291
 Alpha  occ. eigenvalues --   -0.56039  -0.55245  -0.53392  -0.53140  -0.53060
 Alpha  occ. eigenvalues --   -0.52847  -0.50631  -0.48800  -0.48796  -0.48606
 Alpha  occ. eigenvalues --   -0.47317  -0.46426  -0.46317  -0.44802  -0.44459
 Alpha  occ. eigenvalues --   -0.37338  -0.36368
 Alpha virt. eigenvalues --    0.05041   0.11240   0.16477   0.19835   0.22577
 Alpha virt. eigenvalues --    0.23896   0.25487   0.26419   0.26625   0.27674
 Alpha virt. eigenvalues --    0.28948   0.30323   0.30925   0.31337   0.31799

 Mulliken charges:
               1
     1  C   -0.298937
     2  C   -0.300138
     3  C   -0.476157
     4  H    0.151027
     5  H    0.151668
     6  H    0.151839
     7  H    0.152039
     8  H    0.156671
     9  H    0.155817
    10  H    0.161490
    11  C   -0.298981
    12  C   -0.299286
    13  C   -0.481754
    14  H    0.149918
    15  H    0.147712
    16  H    0.155967
    17  H    0.153685
    18  H    0.145930
    19  H    0.159238
    20  H    0.162044
    21  C   -0.174740
    22  C   -0.218692
    23  C   -0.171068
    24  C    0.158486
    25  C   -0.171287
    26  C   -0.220066
    27  H    0.229353
    28  H    0.223700
    29  H    0.275584
    30  H    0.275636
    31  H    0.226020
    32  N    0.488063
    33  O   -0.460397
    34  O   -0.460385
 Sum of Mulliken charges =  -0.00000

 Dipole moment (field-independent basis, Debye):
    X=             -4.1187    Y=              2.5934    Z=              2.1125  Tot=              5.3058
 Quadrupole moment (field-independent basis, Debye-Ang):
   XX=           -120.6389   YY=            -95.4114   ZZ=            -91.2104
   XY=              8.1834   XZ=              7.4578   YZ=             -3.0691

 Normal termination of Gaussian 16 at Wed May  5 15:38:07 2021.
