 Gaussian 16, Revision A.03,
 Gaussian 16:  EM64L-G16RevA.03 25-Dec-2016

 -------------
 #p 6-31g* mp2
 -------------

 ------------------------------------------------------
 Input file generated by CHIRIPA (05-May-2021 14:57:23)
 ------------------------------------------------------
 Symbolic Z-matrix:
 Charge =  0 Multiplicity = 1

                         Standard orientation:
 ---------------------------------------------------------------------
 Center     Atomic      Atomic             Coordinates (Angstroms)
 Number     Number       Type             X           Y           Z
 ---------------------------------------------------------------------
      1          6           0       -2.289886   -2.233908   -0.970641
      2          6           0       -1.469781   -1.185482   -1.400467
      3          6           0       -1.746851    0.132415   -1.025062
      4          6           0       -2.857178    0.366888   -0.215442
      5          6           0       -3.693188   -0.656269    0.228998
      6          6           0       -3.397020   -1.966427   -0.158712
      7          1           0       -2.067233   -3.254676   -1.267043
      8          1           0       -0.609294   -1.390249   -2.031084
      9          1           0       -1.128646    0.962968   -1.343531
     10          1           0       -4.543886   -0.420937    0.856970
     11          1           0       -4.035675   -2.778668    0.176594
     12          7           0       -3.160609    1.757990    0.188496
     13          8           0       -4.144784    1.938213    0.902328
     14          8           0       -2.408517    2.641773   -0.216379
     15          6           0        1.397089   -1.307180    2.016870
     16          6           0        1.306345   -1.682061    0.672344
     17          6           0        2.082873   -1.040953   -0.297467
     18          6           0        2.943490   -0.024549    0.114296
     19          6           0        3.056336    0.371631    1.446061
     20          6           0        2.270256   -0.283336    2.398764
     21          1           0        0.790152   -1.810592    2.763597
     22          1           0        0.629095   -2.476852    0.372867
     23          1           0        2.032417   -1.311163   -1.345255
     24          1           0        3.740554    1.167502    1.714116
     25          1           0        2.342804    0.009898    3.442218
     26          7           0        3.770623    0.661499   -0.903343
     27          8           0        4.521143    1.553927   -0.514849
     28          8           0        3.652747    0.293804   -2.070195
 ---------------------------------------------------------------------

 SCF Done:  E(RHF) =  -868.335863649     A.U. after   16 cycles
 E2 =    -0.2602690133D+01 EUMP2 =    -0.87093855378193D+03

 The electronic state is 1-A.
 Alpha  occ. eigenvalues --  -20.61160 -20.61144 -20.61110 -20.61079 -15.86212
 Alpha  occ. eigenvalues --  -15.86150 -11.31728 -11.31567 -11.28303 -11.28259
 Alpha  occ. eigenvalues --  -11.28187 -11.28129 -11.28023 -11.27785 -11.27399
 Alpha  occ. eigenvalues --  -11.27388 -11.27157 -11.27071  -1.60228  -1.60170
 Alpha  occ. eigenvalues --   -1.39775  -1.39724  -1.19934  -1.19706  -1.09324
 Alpha  occ. eigenvalues --   -1.09083  -1.05388  -1.05088  -0.96113  -0.95927
 Alpha  occ. eigenvalues --   -0.86764  -0.86510  -0.82956  -0.82747  -0.77998
 Alpha  occ. eigenvalues --   -0.77772  -0.72426  -0.72366  -0.71555  -0.71493
 Alpha  occ. eigenvalues --   -0.71046  -0.70817  -0.65592  -0.65480  -0.65272
 Alpha  occ. eigenvalues --   -0.65131  -0.62793  -0.62365  -0.55884  -0.55596
 Alpha  occ. eigenvalues --   -0.53965  -0.53490  -0.53271  -0.53051  -0.49202
 Alpha  occ. eigenvalues --   -0.49170  -0.49133  -0.49114  -0.45146  -0.45120
 Alpha  occ. eigenvalues --   -0.38055  -0.37683  -0.37382  -0.36096
 Alpha virt. eigenvalues --    0.04425   0.04829   0.10475   0.11035   0.15731
 Alpha virt. eigenvalues --    0.16470   0.19343   0.21926   0.24985   0.26757
 Alpha virt. eigenvalues --    0.28078   0.28786   0.29991   0.31273   0.32091

 Mulliken charges:
               1
     1  C   -0.178997
     2  C   -0.219573
     3  C   -0.166834
     4  C    0.158375
     5  C   -0.171909
     6  C   -0.219074
     7  H    0.224441
     8  H    0.223108
     9  H    0.280997
    10  H    0.276812
    11  H    0.224331
    12  N    0.487672
    13  O   -0.460160
    14  O   -0.456644
    15  C   -0.172653
    16  C   -0.208573
    17  C   -0.179978
    18  C    0.160406
    19  C   -0.170133
    20  C   -0.216517
    21  H    0.226422
    22  H    0.218381
    23  H    0.267698
    24  H    0.277895
    25  H    0.226303
    26  N    0.488203
    27  O   -0.456519
    28  O   -0.463478
 Sum of Mulliken charges =  -0.00000

 Dipole moment (field-independent basis, Debye):
    X=             -1.8724    Y=             -7.0763    Z=              2.3219  Tot=              7.6792
 Quadrupole moment (field-independent basis, Debye-Ang):
   XX=           -124.7339   YY=           -107.3953   ZZ=           -100.2386
   XY=             10.3136   XZ=             13.7618   YZ=              1.4316

 Normal termination of Gaussian 16 at Thu May  6 17:57:24 2021.
