 Gaussian 16, Revision A.03,
 Gaussian 16:  EM64L-G16RevA.03 25-Dec-2016

 -------------
 #p 6-31g* mp2
 -------------

 ------------------------------------------------------
 Input file generated by CHIRIPA (05-May-2021 14:55:25)
 ------------------------------------------------------
 Symbolic Z-matrix:
 Charge =  0 Multiplicity = 1

                         Standard orientation:
 ---------------------------------------------------------------------
 Center     Atomic      Atomic             Coordinates (Angstroms)
 Number     Number       Type             X           Y           Z
 ---------------------------------------------------------------------
      1          6           0        0.888831   -1.246317    0.926961
      2          6           0        2.090165   -1.358451    1.634594
      3          6           0        3.249200   -0.729678    1.170017
      4          6           0        3.170617    0.006601   -0.011088
      5          6           0        1.988663    0.137023   -0.738593
      6          6           0        0.841997   -0.500254   -0.255289
      7          1           0       -0.006731   -1.738066    1.295130
      8          1           0        2.129489   -1.937202    2.553041
      9          1           0        4.192437   -0.799986    1.698012
     10          1           0        1.980571    0.720815   -1.651029
     11          1           0       -0.089591   -0.411440   -0.806924
     12          7           0        4.391089    0.676756   -0.512827
     13          8           0        4.295594    1.319623   -1.556014
     14          8           0        5.420079    0.546467    0.146597
     15          6           0       -4.106035   -0.522077   -0.339259
     16          6           0       -3.116298   -1.687562   -0.346308
     17          6           0       -3.741510   -2.991041   -0.844149
     18          1           0       -4.965589   -0.783110    0.293176
     19          1           0       -4.498228   -0.377048   -1.355403
     20          1           0       -2.725046   -1.829459    0.669272
     21          1           0       -2.258910   -1.423648   -0.978647
     22          1           0       -4.115869   -2.873020   -1.866170
     23          1           0       -4.584653   -3.281137   -0.208889
     24          1           0       -3.016499   -3.810925   -0.840972
     25          6           0       -3.495806    0.787929    0.155951
     26          6           0       -4.485542    1.953415    0.162999
     27          6           0       -3.860330    3.256894    0.660840
     28          1           0       -3.103613    0.642901    1.172093
     29          1           0       -2.636252    1.048963   -0.476485
     30          1           0       -5.342930    1.689501    0.795338
     31          1           0       -4.876795    2.095312   -0.852581
     32          1           0       -3.017188    3.546990    0.025579
     33          1           0       -3.485971    3.138873    1.682861
     34          1           0       -4.585341    4.076777    0.657663
 ---------------------------------------------------------------------

 SCF Done:  E(RHF) =  -669.535421828     A.U. after   15 cycles
 E2 =    -0.2091888585D+01 EUMP2 =    -0.67162731041218D+03

 The electronic state is 1-A.
 Alpha  occ. eigenvalues --  -20.60700 -20.60695 -15.85752 -11.31097 -11.27669
 Alpha  occ. eigenvalues --  -11.27657 -11.27373 -11.26675 -11.26624 -11.22943
 Alpha  occ. eigenvalues --  -11.22394 -11.22333 -11.22274 -11.22078 -11.21611
 Alpha  occ. eigenvalues --   -1.59776  -1.39330  -1.19264  -1.09412  -1.08657
 Alpha  occ. eigenvalues --   -1.04668  -1.04441  -0.96843  -0.95498  -0.87863
 Alpha  occ. eigenvalues --   -0.86067  -0.82335  -0.80566  -0.79225  -0.77385
 Alpha  occ. eigenvalues --   -0.71971  -0.71099  -0.70364  -0.66066  -0.64913
 Alpha  occ. eigenvalues --   -0.64670  -0.62069  -0.61797  -0.60233  -0.58469
 Alpha  occ. eigenvalues --   -0.56111  -0.55158  -0.53550  -0.53260  -0.52992
 Alpha  occ. eigenvalues --   -0.52777  -0.50787  -0.48852  -0.48730  -0.48720
 Alpha  occ. eigenvalues --   -0.47589  -0.46721  -0.46643  -0.44741  -0.44698
 Alpha  occ. eigenvalues --   -0.37236  -0.36271
 Alpha virt. eigenvalues --    0.05146   0.11345   0.16636   0.19149   0.22576
 Alpha virt. eigenvalues --    0.23239   0.23889   0.25307   0.27084   0.28239
 Alpha virt. eigenvalues --    0.29233   0.30097   0.31057   0.31463   0.31701

 Mulliken charges:
               1
     1  C   -0.175016
     2  C   -0.219011
     3  C   -0.171117
     4  C    0.158779
     5  C   -0.172204
     6  C   -0.224563
     7  H    0.229208
     8  H    0.223001
     9  H    0.275169
    10  H    0.275319
    11  H    0.231576
    12  N    0.487995
    13  O   -0.460743
    14  O   -0.460734
    15  C   -0.298275
    16  C   -0.306852
    17  C   -0.475449
    18  H    0.153617
    19  H    0.153253
    20  H    0.147438
    21  H    0.147605
    22  H    0.159421
    23  H    0.158913
    24  H    0.161240
    25  C   -0.299888
    26  C   -0.300412
    27  C   -0.476334
    28  H    0.149160
    29  H    0.145788
    30  H    0.153854
    31  H    0.153845
    32  H    0.156353
    33  H    0.156032
    34  H    0.163033
 Sum of Mulliken charges =  -0.00000

 Dipole moment (field-independent basis, Debye):
    X=             -4.5977    Y=             -2.3401    Z=              1.7605  Tot=              5.4510
 Quadrupole moment (field-independent basis, Debye-Ang):
   XX=           -120.2164   YY=            -95.4412   ZZ=            -91.2181
   XY=             -8.8318   XZ=              7.7567   YZ=             -2.0707

 Normal termination of Gaussian 16 at Wed May  5 19:11:13 2021.
