 Gaussian 16, Revision A.03,
 Gaussian 16:  EM64L-G16RevA.03 25-Dec-2016

 -------------
 #p 6-31g* mp2
 -------------

 ------------------------------------------------------
 Input file generated by CHIRIPA (05-May-2021 14:51:08)
 ------------------------------------------------------
 Symbolic Z-matrix:
 Charge =  0 Multiplicity = 1

                         Standard orientation:
 ---------------------------------------------------------------------
 Center     Atomic      Atomic             Coordinates (Angstroms)
 Number     Number       Type             X           Y           Z
 ---------------------------------------------------------------------
      1          6           0       -3.104118    0.082476    0.077035
      2          6           0       -4.606292    0.308162   -0.097672
      3          6           0       -5.011426    1.769264    0.099415
      4          1           0       -2.803934    0.415618    1.079956
      5          1           0       -2.559810    0.714552   -0.638230
      6          1           0       -5.147650   -0.325182    0.616767
      7          1           0       -4.902969   -0.025733   -1.100225
      8          1           0       -4.497449    2.412274   -0.622365
      9          1           0       -4.743520    2.111123    1.104382
     10          1           0       -6.089329    1.907958   -0.030003
     11          6           0       -2.683624   -1.373302   -0.116935
     12          6           0       -1.181450   -1.598988    0.057772
     13          6           0       -0.776316   -3.060089   -0.139315
     14          1           0       -3.227932   -2.005377    0.598330
     15          1           0       -2.983808   -1.706444   -1.119856
     16          1           0       -0.884773   -1.265092    1.060326
     17          1           0       -0.640093   -0.965643   -0.656667
     18          1           0       -1.044222   -3.401949   -1.144282
     19          1           0       -1.290293   -3.703099    0.582466
     20          1           0        0.301587   -3.198783   -0.009897
     21          6           0        2.441897    1.215698    0.252172
     22          6           0        2.784234    2.560571   -0.389785
     23          6           0        1.871307    3.691576    0.084752
     24          1           0        1.396560    0.964300    0.026308
     25          1           0        2.511547    1.310474    1.344674
     26          1           0        2.715306    2.462916   -1.480806
     27          1           0        3.828935    2.808705   -0.162526
     28          1           0        1.946498    3.817871    1.169647
     29          1           0        0.826541    3.470118   -0.156123
     30          1           0        2.133646    4.643849   -0.386645
     31          6           0        3.345845    0.075128   -0.212271
     32          6           0        3.003508   -1.269745    0.429684
     33          6           0        3.916435   -2.400751   -0.044853
     34          1           0        3.276195   -0.019648   -1.304774
     35          1           0        4.391182    0.326525    0.013593
     36          1           0        1.958808   -1.517879    0.202426
     37          1           0        3.072436   -1.172091    1.520706
     38          1           0        4.961201   -2.179293    0.196022
     39          1           0        3.841245   -2.527045   -1.129748
     40          1           0        3.654095   -3.353024    0.426544
 ---------------------------------------------------------------------

 SCF Done:  E(RHF) =  -470.733035654     A.U. after   11 cycles
 E2 =    -0.1583669086D+01 EUMP2 =    -0.47231670473948D+03

 The electronic state is 1-A.
 Alpha  occ. eigenvalues --  -11.21666 -11.21630 -11.21574 -11.21527 -11.21451
 Alpha  occ. eigenvalues --  -11.21391 -11.21361 -11.21300 -11.21100 -11.21089
 Alpha  occ. eigenvalues --  -11.21060 -11.21047  -1.08485  -1.08387  -1.03594
 Alpha  occ. eigenvalues --   -1.03484  -0.96028  -0.95946  -0.87037  -0.86965
 Alpha  occ. eigenvalues --   -0.79647  -0.79563  -0.78356  -0.78141  -0.65135
 Alpha  occ. eigenvalues --   -0.65017  -0.60994  -0.60938  -0.59509  -0.59201
 Alpha  occ. eigenvalues --   -0.57710  -0.57476  -0.55300  -0.55243  -0.52733
 Alpha  occ. eigenvalues --   -0.52633  -0.52462  -0.52362  -0.49956  -0.49886
 Alpha  occ. eigenvalues --   -0.47980  -0.47851  -0.46680  -0.46569  -0.46018
 Alpha  occ. eigenvalues --   -0.45772  -0.45703  -0.45442  -0.43828  -0.43749
 Alpha virt. eigenvalues --    0.20861   0.23044   0.23377   0.24633   0.25683
 Alpha virt. eigenvalues --    0.26655   0.26880   0.27140   0.28002   0.29477
 Alpha virt. eigenvalues --    0.30986   0.31364   0.31484   0.31819   0.32319

 Mulliken charges:
               1
     1  C   -0.298369
     2  C   -0.299683
     3  C   -0.475744
     4  H    0.150140
     5  H    0.148825
     6  H    0.152088
     7  H    0.151965
     8  H    0.155167
     9  H    0.155391
    10  H    0.160373
    11  C   -0.298362
    12  C   -0.302673
    13  C   -0.481154
    14  H    0.149947
    15  H    0.149722
    16  H    0.153882
    17  H    0.152700
    18  H    0.155282
    19  H    0.155794
    20  H    0.164886
    21  C   -0.301774
    22  C   -0.299525
    23  C   -0.475655
    24  H    0.153336
    25  H    0.149211
    26  H    0.151513
    27  H    0.151863
    28  H    0.155142
    29  H    0.155273
    30  H    0.160065
    31  C   -0.297150
    32  C   -0.310807
    33  C   -0.475888
    34  H    0.148834
    35  H    0.149414
    36  H    0.164159
    37  H    0.151443
    38  H    0.155362
    39  H    0.155069
    40  H    0.159936
 Sum of Mulliken charges =  -0.00000

 Dipole moment (field-independent basis, Debye):
    X=             -0.0419    Y=             -0.0159    Z=              0.0135  Tot=              0.0468
 Quadrupole moment (field-independent basis, Debye-Ang):
   XX=            -84.9717   YY=            -86.6204   ZZ=            -83.2504
   XY=              1.1457   XZ=              0.5310   YZ=             -0.3634

 Normal termination of Gaussian 16 at Wed May  5 16:36:17 2021.
