 Gaussian 16, Revision A.03,
 Gaussian 16:  EM64L-G16RevA.03 25-Dec-2016

 -------------
 #p 6-31g* mp2
 -------------

 ------------------------------------------------------
 Input file generated by CHIRIPA (05-May-2021 14:55:23)
 ------------------------------------------------------
 Symbolic Z-matrix:
 Charge =  0 Multiplicity = 1

                         Standard orientation:
 ---------------------------------------------------------------------
 Center     Atomic      Atomic             Coordinates (Angstroms)
 Number     Number       Type             X           Y           Z
 ---------------------------------------------------------------------
      1          6           0       -2.406082   -2.297034   -1.236107
      2          6           0       -1.695933   -2.446384   -0.040321
      3          6           0       -1.469460   -1.346934    0.793026
      4          6           0       -1.969596   -0.107146    0.397955
      5          6           0       -2.680797    0.073707   -0.787276
      6          6           0       -2.895385   -1.039682   -1.605118
      7          1           0       -2.577395   -3.156528   -1.877448
      8          1           0       -1.314765   -3.421663    0.248794
      9          1           0       -0.922918   -1.434272    1.724199
     10          1           0       -3.048454    1.058528   -1.048761
     11          1           0       -3.447235   -0.920731   -2.533211
     12          7           0       -1.736130    1.064171    1.271975
     13          8           0       -2.187144    2.145775    0.901359
     14          8           0       -1.106547    0.878466    2.311097
     15          6           0        3.202168   -0.006130   -0.146609
     16          6           0        2.932162   -1.470160    0.202246
     17          6           0        4.205929   -2.237978    0.556881
     18          1           0        3.906112    0.039691   -0.988814
     19          1           0        3.699944    0.480367    0.703647
     20          1           0        2.433797   -1.953395   -0.647891
     21          1           0        2.228631   -1.512503    1.043594
     22          1           0        4.703085   -1.782077    1.419198
     23          1           0        4.909418   -2.225474   -0.281897
     24          1           0        3.989824   -3.282317    0.802879
     25          6           0        1.938501    0.774626   -0.503391
     26          6           0        2.208507    2.238654   -0.852247
     27          6           0        0.934740    3.006472   -1.206881
     28          1           0        1.440725    0.288128   -1.353647
     29          1           0        1.234557    0.728804    0.338814
     30          1           0        2.912039    2.280998   -1.693594
     31          1           0        2.706872    2.721889   -0.002110
     32          1           0        0.231251    2.993969   -0.368103
     33          1           0        0.437584    2.550572   -2.069198
     34          1           0        1.150845    4.050811   -1.452880
 ---------------------------------------------------------------------

 SCF Done:  E(RHF) =  -669.536608781     A.U. after   15 cycles
 E2 =    -0.2093883334D+01 EUMP2 =    -0.67163049211433D+03

 The electronic state is 1-A.
 Alpha  occ. eigenvalues --  -20.61024 -20.61016 -15.86000 -11.31243 -11.27810
 Alpha  occ. eigenvalues --  -11.27805 -11.27543 -11.26809 -11.26798 -11.21626
 Alpha  occ. eigenvalues --  -11.21185 -11.21116 -11.21087 -11.21000 -11.20317
 Alpha  occ. eigenvalues --   -1.60059  -1.39619  -1.19414  -1.08838  -1.08164
 Alpha  occ. eigenvalues --   -1.04802  -1.03243  -0.95698  -0.95666  -0.86692
 Alpha  occ. eigenvalues --   -0.86208  -0.82532  -0.79336  -0.77998  -0.77582
 Alpha  occ. eigenvalues --   -0.72241  -0.71367  -0.70534  -0.65077  -0.64826
 Alpha  occ. eigenvalues --   -0.64761  -0.62154  -0.60621  -0.59092  -0.57298
 Alpha  occ. eigenvalues --   -0.55321  -0.54949  -0.53149  -0.52899  -0.52376
 Alpha  occ. eigenvalues --   -0.52106  -0.49638  -0.49016  -0.48990  -0.47651
 Alpha  occ. eigenvalues --   -0.46381  -0.45497  -0.45418  -0.44906  -0.43496
 Alpha  occ. eigenvalues --   -0.37371  -0.36380
 Alpha virt. eigenvalues --    0.04884   0.11183   0.16371   0.21045   0.23093
 Alpha virt. eigenvalues --    0.24443   0.25815   0.27169   0.27579   0.28323
 Alpha virt. eigenvalues --    0.28793   0.31043   0.31307   0.31964   0.32057

 Mulliken charges:
               1
     1  C   -0.170664
     2  C   -0.218188
     3  C   -0.170199
     4  C    0.159989
     5  C   -0.170434
     6  C   -0.218947
     7  H    0.225801
     8  H    0.223989
     9  H    0.275407
    10  H    0.276137
    11  H    0.223637
    12  N    0.488063
    13  O   -0.456724
    14  O   -0.458960
    15  C   -0.297424
    16  C   -0.299507
    17  C   -0.475361
    18  H    0.148423
    19  H    0.152686
    20  H    0.148233
    21  H    0.149262
    22  H    0.157555
    23  H    0.155370
    24  H    0.156646
    25  C   -0.304575
    26  C   -0.298461
    27  C   -0.485470
    28  H    0.145730
    29  H    0.154597
    30  H    0.148006
    31  H    0.154801
    32  H    0.174541
    33  H    0.146871
    34  H    0.159170
 Sum of Mulliken charges =  -0.00000

 Dipole moment (field-independent basis, Debye):
    X=             -0.9663    Y=             -4.0569    Z=             -2.9626  Tot=              5.1156
 Quadrupole moment (field-independent basis, Debye-Ang):
   XX=            -91.5927   YY=            -92.9664   ZZ=            -94.8495
   XY=              7.2779   XZ=              7.5759   YZ=             -2.6800

 Normal termination of Gaussian 16 at Thu May  6 09:25:21 2021.
