 Gaussian 16, Revision A.03,
 Gaussian 16:  EM64L-G16RevA.03 25-Dec-2016

 -------------
 #p 6-31g* mp2
 -------------

 ------------------------------------------------------
 Input file generated by CHIRIPA (05-May-2021 14:51:11)
 ------------------------------------------------------
 Symbolic Z-matrix:
 Charge =  0 Multiplicity = 1

                         Standard orientation:
 ---------------------------------------------------------------------
 Center     Atomic      Atomic             Coordinates (Angstroms)
 Number     Number       Type             X           Y           Z
 ---------------------------------------------------------------------
      1          6           0       -3.949062   -0.176800    0.409952
      2          6           0       -2.721875   -0.064293   -0.495222
      3          6           0       -1.413659    0.026089    0.291031
      4          1           0       -3.982430    0.692107    1.081392
      5          1           0       -3.843343   -1.063125    1.050770
      6          1           0       -2.830522    0.820780   -1.135110
      7          1           0       -2.691531   -0.933473   -1.164716
      8          1           0       -1.278473   -0.861668    0.917300
      9          1           0       -1.418254    0.902553    0.947073
     10          1           0       -0.549303    0.105823   -0.375596
     11          6           0       -5.264501   -0.268006   -0.361429
     12          6           0       -6.491688   -0.380513    0.543745
     13          6           0       -7.799905   -0.470896   -0.242508
     14          1           0       -5.370220    0.618318   -1.002247
     15          1           0       -5.231133   -1.136914   -1.032869
     16          1           0       -6.522033    0.488666    1.213238
     17          1           0       -6.383041   -1.265587    1.183633
     18          1           0       -7.795309   -1.347359   -0.898550
     19          1           0       -7.935090    0.416861   -0.868777
     20          1           0       -8.664260   -0.550630    0.424119
     21          6           0        5.302011    0.013991    0.213754
     22          6           0        5.741942   -1.349840   -0.319549
     23          6           0        7.134849   -1.752911    0.165362
     24          1           0        6.033120    0.774106   -0.093897
     25          1           0        5.316884   -0.007464    1.312259
     26          1           0        5.724915   -1.326251   -1.416713
     27          1           0        5.009600   -2.106765   -0.010754
     28          1           0        7.162249   -1.804324    1.258617
     29          1           0        7.881629   -1.019374   -0.155330
     30          1           0        7.429368   -2.730959   -0.227756
     31          6           0        3.911551    0.430816   -0.262276
     32          6           0        3.471621    1.794647    0.271026
     33          6           0        2.078715    2.197718   -0.213885
     34          1           0        3.896679    0.452270   -1.360781
     35          1           0        3.180442   -0.329300    0.045374
     36          1           0        4.203964    2.551572   -0.037769
     37          1           0        3.488648    1.771057    1.368190
     38          1           0        1.331934    1.464181    0.106807
     39          1           0        2.051314    2.249130   -1.307140
     40          1           0        1.784195    3.175765    0.179233
 ---------------------------------------------------------------------

 SCF Done:  E(RHF) =  -470.733111384     A.U. after   11 cycles
 E2 =    -0.1582288544D+01 EUMP2 =    -0.47231539992796D+03

 The electronic state is 1-A.
 Alpha  occ. eigenvalues --  -11.21601 -11.21600 -11.21580 -11.21543 -11.21404
 Alpha  occ. eigenvalues --  -11.21372 -11.21344 -11.21312 -11.21070 -11.21068
 Alpha  occ. eigenvalues --  -11.21054 -11.20952  -1.08430  -1.08392  -1.03540
 Alpha  occ. eigenvalues --   -1.03478  -0.96014  -0.95909  -0.87060  -0.86902
 Alpha  occ. eigenvalues --   -0.79644  -0.79506  -0.78244  -0.78204  -0.65062
 Alpha  occ. eigenvalues --   -0.65022  -0.60960  -0.60871  -0.59410  -0.59273
 Alpha  occ. eigenvalues --   -0.57667  -0.57478  -0.55340  -0.55168  -0.52831
 Alpha  occ. eigenvalues --   -0.52623  -0.52423  -0.52215  -0.49991  -0.49785
 Alpha  occ. eigenvalues --   -0.47957  -0.47815  -0.46660  -0.46542  -0.45786
 Alpha  occ. eigenvalues --   -0.45749  -0.45706  -0.45671  -0.43747  -0.43735
 Alpha virt. eigenvalues --    0.22459   0.22969   0.23637   0.24740   0.26315
 Alpha virt. eigenvalues --    0.26651   0.27075   0.27492   0.27750   0.28887
 Alpha virt. eigenvalues --    0.30700   0.31374   0.31731   0.31787   0.32079

 Mulliken charges:
               1
     1  C   -0.298651
     2  C   -0.299399
     3  C   -0.480249
     4  H    0.149737
     5  H    0.149398
     6  H    0.152526
     7  H    0.151877
     8  H    0.154657
     9  H    0.155995
    10  H    0.164683
    11  C   -0.298301
    12  C   -0.299628
    13  C   -0.475702
    14  H    0.149618
    15  H    0.149641
    16  H    0.151956
    17  H    0.151884
    18  H    0.155172
    19  H    0.155212
    20  H    0.160242
    21  C   -0.298225
    22  C   -0.299640
    23  C   -0.475686
    24  H    0.149604
    25  H    0.149538
    26  H    0.151828
    27  H    0.151938
    28  H    0.155169
    29  H    0.155141
    30  H    0.160155
    31  C   -0.298512
    32  C   -0.299077
    33  C   -0.483477
    34  H    0.149199
    35  H    0.149704
    36  H    0.151486
    37  H    0.151770
    38  H    0.164855
    39  H    0.153997
    40  H    0.159566
 Sum of Mulliken charges =  -0.00000

 Dipole moment (field-independent basis, Debye):
    X=             -0.0314    Y=             -0.0083    Z=              0.0036  Tot=              0.0327
 Quadrupole moment (field-independent basis, Debye-Ang):
   XX=            -86.7981   YY=            -83.7819   ZZ=            -84.3819
   XY=              0.3920   XZ=             -1.0128   YZ=             -0.2592

 Normal termination of Gaussian 16 at Thu May  6 03:49:46 2021.
