 Gaussian 16, Revision A.03,
 Gaussian 16:  EM64L-G16RevA.03 25-Dec-2016

 -------------
 #p 6-31g* mp2
 -------------

 ------------------------------------------------------
 Input file generated by CHIRIPA (05-May-2021 14:51:08)
 ------------------------------------------------------
 Symbolic Z-matrix:
 Charge =  0 Multiplicity = 1

                         Standard orientation:
 ---------------------------------------------------------------------
 Center     Atomic      Atomic             Coordinates (Angstroms)
 Number     Number       Type             X           Y           Z
 ---------------------------------------------------------------------
      1          6           0        2.120746   -0.986218    0.121590
      2          6           0        1.662931   -2.241872   -0.621190
      3          6           0        0.186869   -2.563241   -0.385062
      4          1           0        1.940202   -1.117904    1.197233
      5          1           0        1.503623   -0.134713   -0.196989
      6          1           0        2.281645   -3.090481   -0.302329
      7          1           0        1.844762   -2.107259   -1.695170
      8          1           0       -0.446083   -1.735250   -0.720330
      9          1           0       -0.006718   -2.724059    0.680425
     10          1           0       -0.119183   -3.464537   -0.925300
     11          6           0        3.594118   -0.651917   -0.104564
     12          6           0        4.051933    0.603738    0.638216
     13          6           0        5.527995    0.925106    0.402088
     14          1           0        4.211241   -1.503422    0.214015
     15          1           0        3.774661   -0.520231   -1.180207
     16          1           0        3.870102    0.469124    1.712196
     17          1           0        3.433219    1.452346    0.319355
     18          1           0        5.721582    1.085924   -0.663399
     19          1           0        6.160947    0.097115    0.737356
     20          1           0        5.834047    1.826402    0.942326
     21          6           0       -3.109870    0.103728   -0.097940
     22          6           0       -4.443504   -0.160576    0.601736
     23          6           0       -4.935465   -1.595987    0.413674
     24          1           0       -3.216566   -0.111332   -1.169999
     25          1           0       -2.356221   -0.596672    0.287867
     26          1           0       -5.194073    0.541033    0.215720
     27          1           0       -4.333675    0.055321    1.672222
     28          1           0       -4.207813   -2.308393    0.815668
     29          1           0       -5.073099   -1.819923   -0.649110
     30          1           0       -5.890234   -1.762991    0.921991
     31          6           0       -2.604994    1.534406    0.080914
     32          6           0       -1.271359    1.798711   -0.618763
     33          6           0       -0.779398    3.234121   -0.430700
     34          1           0       -3.358643    2.234806   -0.304894
     35          1           0       -2.498298    1.749467    1.152973
     36          1           0       -1.381189    1.582813   -1.689249
     37          1           0       -0.520791    1.097102   -0.232745
     38          1           0       -0.641765    3.458058    0.632084
     39          1           0       -1.507051    3.946528   -0.832694
     40          1           0        0.175370    3.401126   -0.939017
 ---------------------------------------------------------------------

 SCF Done:  E(RHF) =  -470.732725791     A.U. after   11 cycles
 E2 =    -0.1584153179D+01 EUMP2 =    -0.47231687896999D+03

 The electronic state is 1-A.
 Alpha  occ. eigenvalues --  -11.21612 -11.21609 -11.21598 -11.21570 -11.21410
 Alpha  occ. eigenvalues --  -11.21384 -11.21350 -11.21307 -11.21105 -11.21076
 Alpha  occ. eigenvalues --  -11.21033 -11.21029  -1.08460  -1.08402  -1.03538
 Alpha  occ. eigenvalues --   -1.03521  -0.96009  -0.95947  -0.87030  -0.86960
 Alpha  occ. eigenvalues --   -0.79629  -0.79588  -0.78392  -0.78105  -0.65192
 Alpha  occ. eigenvalues --   -0.64946  -0.60982  -0.60878  -0.59383  -0.59311
 Alpha  occ. eigenvalues --   -0.57713  -0.57492  -0.55355  -0.55176  -0.52680
 Alpha  occ. eigenvalues --   -0.52674  -0.52521  -0.52291  -0.50020  -0.49819
 Alpha  occ. eigenvalues --   -0.48025  -0.47910  -0.46871  -0.46586  -0.46092
 Alpha  occ. eigenvalues --   -0.45760  -0.45730  -0.45008  -0.43787  -0.43768
 Alpha virt. eigenvalues --    0.21239   0.22996   0.23807   0.24003   0.25709
 Alpha virt. eigenvalues --    0.26601   0.26757   0.27187   0.28402   0.29822
 Alpha virt. eigenvalues --    0.30643   0.31513   0.31771   0.31900   0.31960

 Mulliken charges:
               1
     1  C   -0.307273
     2  C   -0.298888
     3  C   -0.482871
     4  H    0.148818
     5  H    0.158117
     6  H    0.151797
     7  H    0.151900
     8  H    0.163601
     9  H    0.153654
    10  H    0.160460
    11  C   -0.297449
    12  C   -0.299806
    13  C   -0.475711
    14  H    0.149624
    15  H    0.149656
    16  H    0.151801
    17  H    0.151971
    18  H    0.155203
    19  H    0.155202
    20  H    0.160322
    21  C   -0.304771
    22  C   -0.299247
    23  C   -0.475797
    24  H    0.148840
    25  H    0.157263
    26  H    0.151666
    27  H    0.151722
    28  H    0.155855
    29  H    0.155084
    30  H    0.159981
    31  C   -0.296978
    32  C   -0.310484
    33  C   -0.475295
    34  H    0.149403
    35  H    0.149546
    36  H    0.151209
    37  H    0.161233
    38  H    0.155587
    39  H    0.155585
    40  H    0.159471
 Sum of Mulliken charges =  -0.00000

 Dipole moment (field-independent basis, Debye):
    X=             -0.0011    Y=             -0.0032    Z=              0.0003  Tot=              0.0034
 Quadrupole moment (field-independent basis, Debye-Ang):
   XX=            -85.9069   YY=            -85.5741   ZZ=            -83.4034
   XY=             -1.1035   XZ=              0.6625   YZ=             -0.6924

 Normal termination of Gaussian 16 at Wed May  5 15:04:46 2021.
