 Gaussian 16, Revision A.03,
 Gaussian 16:  EM64L-G16RevA.03 25-Dec-2016

 -------------
 #p 6-31g* mp2
 -------------

 ------------------------------------------------------
 Input file generated by CHIRIPA (05-May-2021 14:57:27)
 ------------------------------------------------------
 Symbolic Z-matrix:
 Charge =  0 Multiplicity = 1

                         Standard orientation:
 ---------------------------------------------------------------------
 Center     Atomic      Atomic             Coordinates (Angstroms)
 Number     Number       Type             X           Y           Z
 ---------------------------------------------------------------------
      1          6           0        3.274559    2.527747    0.015242
      2          6           0        3.893551    1.575720    0.831950
      3          6           0        3.551008    0.223981    0.731879
      4          6           0        2.580997   -0.142266   -0.199910
      5          6           0        1.946362    0.782588   -1.027661
      6          6           0        2.304649    2.128846   -0.910326
      7          1           0        3.546769    3.575682    0.099685
      8          1           0        4.647135    1.882627    1.551648
      9          1           0        4.014402   -0.533936    1.351756
     10          1           0        1.198726    0.446253   -1.735713
     11          1           0        1.822274    2.866014   -1.545891
     12          7           0        2.210028   -1.570390   -0.314989
     13          8           0        1.352430   -1.867393   -1.143815
     14          8           0        2.783885   -2.365709    0.425816
     15          6           0       -1.669378   -2.414105    0.361570
     16          6           0       -1.646820   -1.557659    1.467242
     17          6           0       -2.182914   -0.269522    1.378613
     18          6           0       -2.736180    0.131279    0.163481
     19          6           0       -2.773588   -0.698756   -0.955863
     20          6           0       -2.231698   -1.982681   -0.844328
     21          1           0       -1.250676   -3.413125    0.439317
     22          1           0       -1.210761   -1.890023    2.405023
     23          1           0       -2.178627    0.414037    2.218937
     24          1           0       -3.215082   -0.339140   -1.877371
     25          1           0       -2.250598   -2.645657   -1.704647
     26          7           0       -3.306786    1.492743    0.057528
     27          8           0       -3.788466    1.821957   -1.024248
     28          8           0       -3.261544    2.204864    1.058265
 ---------------------------------------------------------------------

 SCF Done:  E(RHF) =  -868.339915801     A.U. after   16 cycles
 E2 =    -0.2600195133D+01 EUMP2 =    -0.87094011093417D+03

 The electronic state is 1-A.
 Alpha  occ. eigenvalues --  -20.61336 -20.61295 -20.60514 -20.60509 -15.86330
 Alpha  occ. eigenvalues --  -15.85560 -11.31440 -11.30627 -11.27995 -11.27949
 Alpha  occ. eigenvalues --  -11.27650 -11.27213 -11.27165 -11.26946 -11.26884
 Alpha  occ. eigenvalues --  -11.26710 -11.26067 -11.25995  -1.60386  -1.59603
 Alpha  occ. eigenvalues --   -1.39946  -1.39163  -1.19584  -1.18763  -1.09026
 Alpha  occ. eigenvalues --   -1.08166  -1.04944  -1.04130  -0.95910  -0.95061
 Alpha  occ. eigenvalues --   -0.86353  -0.85518  -0.82751  -0.81920  -0.77830
 Alpha  occ. eigenvalues --   -0.77039  -0.72589  -0.71780  -0.71698  -0.70933
 Alpha  occ. eigenvalues --   -0.70683  -0.69783  -0.65238  -0.64938  -0.64394
 Alpha  occ. eigenvalues --   -0.64103  -0.62295  -0.61499  -0.55448  -0.54515
 Alpha  occ. eigenvalues --   -0.53290  -0.53029  -0.52467  -0.52205  -0.49351
 Alpha  occ. eigenvalues --   -0.49318  -0.48554  -0.48509  -0.45410  -0.44637
 Alpha  occ. eigenvalues --   -0.37559  -0.36612  -0.36484  -0.35738
 Alpha virt. eigenvalues --    0.04618   0.05548   0.11121   0.11931   0.16226
 Alpha virt. eigenvalues --    0.17140   0.21301   0.22179   0.27221   0.27968
 Alpha virt. eigenvalues --    0.28158   0.29112   0.30883   0.31817   0.32303

 Mulliken charges:
               1
     1  C   -0.169630
     2  C   -0.218684
     3  C   -0.172154
     4  C    0.157827
     5  C   -0.169860
     6  C   -0.217974
     7  H    0.228147
     8  H    0.224048
     9  H    0.274077
    10  H    0.275599
    11  H    0.228102
    12  N    0.488469
    13  O   -0.463102
    14  O   -0.464133
    15  C   -0.155907
    16  C   -0.226162
    17  C   -0.172948
    18  C    0.154626
    19  C   -0.176898
    20  C   -0.210389
    21  H    0.234418
    22  H    0.223159
    23  H    0.271750
    24  H    0.271854
    25  H    0.225656
    26  N    0.487759
    27  O   -0.463962
    28  O   -0.463690
 Sum of Mulliken charges =  -0.00000

 Dipole moment (field-independent basis, Debye):
    X=              3.5204    Y=              0.0590    Z=              0.6898  Tot=              3.5878
 Quadrupole moment (field-independent basis, Debye-Ang):
   XX=           -108.6083   YY=           -107.4718   ZZ=            -98.3130
   XY=             26.8264   XZ=              4.2795   YZ=             -1.7936

 Normal termination of Gaussian 16 at Thu May  6 08:25:03 2021.
