 Gaussian 16, Revision A.03,
 Gaussian 16:  EM64L-G16RevA.03 25-Dec-2016

 -------------
 #p 6-31g* mp2
 -------------

 ------------------------------------------------------
 Input file generated by CHIRIPA (05-May-2021 14:57:24)
 ------------------------------------------------------
 Symbolic Z-matrix:
 Charge =  0 Multiplicity = 1

                         Standard orientation:
 ---------------------------------------------------------------------
 Center     Atomic      Atomic             Coordinates (Angstroms)
 Number     Number       Type             X           Y           Z
 ---------------------------------------------------------------------
      1          6           0       -5.494599    1.097818    0.476552
      2          6           0       -5.284448   -0.218786    0.899530
      3          6           0       -4.076255   -0.867579    0.627712
      4          6           0       -3.095493   -0.166760   -0.072467
      5          6           0       -3.274834    1.145553   -0.507164
      6          6           0       -4.490891    1.774592   -0.224210
      7          1           0       -6.436207    1.594143    0.692032
      8          1           0       -6.062160   -0.746832    1.443936
      9          1           0       -3.887059   -1.886366    0.943456
     10          1           0       -2.480804    1.646078   -1.047913
     11          1           0       -4.651319    2.797135   -0.553928
     12          7           0       -1.812271   -0.843152   -0.366124
     13          8           0       -0.964063   -0.203901   -0.984621
     14          8           0       -1.678986   -1.999752    0.027766
     15          6           0        2.701690   -2.378431   -0.252658
     16          6           0        3.503823   -1.974146    0.819563
     17          6           0        3.845492   -0.628345    0.982756
     18          6           0        3.365501    0.290565    0.050821
     19          6           0        2.564521   -0.081134   -1.027862
     20          6           0        2.235421   -1.432303   -1.171328
     21          1           0        2.441155   -3.425967   -0.371769
     22          1           0        3.867361   -2.706725    1.534554
     23          1           0        4.464892   -0.287918    1.803653
     24          1           0        2.217170    0.672274   -1.724383
     25          1           0        1.612307   -1.743401   -2.004991
     26          7           0        3.720558    1.718146    0.213146
     27          8           0        3.284986    2.508174   -0.621582
     28          8           0        4.427700    2.020024    1.172028
 ---------------------------------------------------------------------

 SCF Done:  E(RHF) =  -868.339780597     A.U. after   16 cycles
 E2 =    -0.2599577341D+01 EUMP2 =    -0.87093935793831D+03

 The electronic state is 1-A.
 Alpha  occ. eigenvalues --  -20.61435 -20.61428 -20.59743 -20.59737 -15.86458
 Alpha  occ. eigenvalues --  -15.84780 -11.31562 -11.29785 -11.28114 -11.28078
 Alpha  occ. eigenvalues --  -11.27799 -11.27070 -11.27036 -11.26368 -11.26196
 Alpha  occ. eigenvalues --  -11.25952 -11.25363 -11.25089  -1.60494  -1.58824
 Alpha  occ. eigenvalues --   -1.40057  -1.38387  -1.19711  -1.17910  -1.09157
 Alpha  occ. eigenvalues --   -1.07378  -1.05073  -1.03240  -0.96037  -0.94276
 Alpha  occ. eigenvalues --   -0.86485  -0.84675  -0.82884  -0.81114  -0.77952
 Alpha  occ. eigenvalues --   -0.76210  -0.72706  -0.71790  -0.71015  -0.70817
 Alpha  occ. eigenvalues --   -0.70139  -0.69036  -0.65370  -0.65076  -0.63560
 Alpha  occ. eigenvalues --   -0.63259  -0.62422  -0.60613  -0.55590  -0.53788
 Alpha  occ. eigenvalues --   -0.53418  -0.53162  -0.51655  -0.51356  -0.49448
 Alpha  occ. eigenvalues --   -0.49378  -0.47782  -0.47734  -0.45515  -0.43873
 Alpha  occ. eigenvalues --   -0.37679  -0.36664  -0.35877  -0.34734
 Alpha virt. eigenvalues --    0.04556   0.06305   0.10994   0.12846   0.16109
 Alpha virt. eigenvalues --    0.17899   0.21159   0.22867   0.27091   0.27997
 Alpha virt. eigenvalues --    0.28818   0.29667   0.30759   0.32255   0.32404

 Mulliken charges:
               1
     1  C   -0.169868
     2  C   -0.218618
     3  C   -0.170626
     4  C    0.157681
     5  C   -0.170102
     6  C   -0.218512
     7  H    0.227296
     8  H    0.224309
     9  H    0.274744
    10  H    0.277452
    11  H    0.226085
    12  N    0.490468
    13  O   -0.464987
    14  O   -0.462574
    15  C   -0.170176
    16  C   -0.219561
    17  C   -0.174818
    18  C    0.154193
    19  C   -0.163281
    20  C   -0.199011
    21  H    0.223490
    22  H    0.217399
    23  H    0.269492
    24  H    0.273178
    25  H    0.227871
    26  N    0.488284
    27  O   -0.464190
    28  O   -0.465618
 Sum of Mulliken charges =  -0.00000

 Dipole moment (field-independent basis, Debye):
    X=             -6.3120    Y=             -2.7027    Z=              0.2845  Tot=              6.8722
 Quadrupole moment (field-independent basis, Debye-Ang):
   XX=            -85.5160   YY=           -105.8968   ZZ=           -101.5801
   XY=            -23.7920   XZ=             -4.0048   YZ=             -3.9043

 Normal termination of Gaussian 16 at Thu May  6 01:53:32 2021.
