 Gaussian 16, Revision A.03,
 Gaussian 16:  EM64L-G16RevA.03 25-Dec-2016

 -------------
 #p 6-31g* mp2
 -------------

 ------------------------------------------------------
 Input file generated by CHIRIPA (05-May-2021 14:51:13)
 ------------------------------------------------------
 Symbolic Z-matrix:
 Charge =  0 Multiplicity = 1

                         Standard orientation:
 ---------------------------------------------------------------------
 Center     Atomic      Atomic             Coordinates (Angstroms)
 Number     Number       Type             X           Y           Z
 ---------------------------------------------------------------------
      1          6           0       -2.856765   -0.251635    0.232324
      2          6           0       -4.166450    0.141550   -0.451867
      3          6           0       -4.691070    1.500644    0.012277
      4          1           0       -3.009274   -0.267914    1.320175
      5          1           0       -2.101242    0.521221    0.034148
      6          1           0       -4.918881   -0.632503   -0.253612
      7          1           0       -4.010856    0.156708   -1.538226
      8          1           0       -3.961099    2.288402   -0.200286
      9          1           0       -4.874284    1.494706    1.091628
     10          1           0       -5.628004    1.761972   -0.489443
     11          6           0       -2.319687   -1.607921   -0.221288
     12          6           0       -1.010002   -2.001105    0.462902
     13          6           0       -0.485382   -3.360200   -0.001241
     14          1           0       -3.075210   -2.380776   -0.023113
     15          1           0       -2.167178   -1.591641   -1.309140
     16          1           0       -1.165596   -2.016264    1.549262
     17          1           0       -0.257571   -1.227052    0.264647
     18          1           0       -0.302168   -3.354261   -1.080592
     19          1           0       -1.215353   -4.147957    0.211321
     20          1           0        0.451552   -3.621528    0.500478
     21          6           0        1.987047    1.307375    0.276326
     22          6           0        1.819227    2.707691   -0.314380
     23          6           0        0.612253    3.450556    0.259344
     24          1           0        1.073965    0.725703    0.089549
     25          1           0        2.089130    1.387107    1.367481
     26          1           0        1.718877    2.625448   -1.404234
     27          1           0        2.732888    3.286035   -0.126342
     28          1           0        0.708532    3.562048    1.344195
     29          1           0       -0.311239    2.897707    0.059041
     30          1           0        0.511121    4.449307   -0.176696
     31          6           0        3.189405    0.552181   -0.287362
     32          6           0        3.357225   -0.848136    0.303345
     33          6           0        4.564199   -1.591001   -0.270380
     34          1           0        3.087322    0.472449   -1.378515
     35          1           0        4.102486    1.133852   -0.100584
     36          1           0        2.443564   -1.426480    0.115306
     37          1           0        3.457574   -0.765893    1.393199
     38          1           0        5.487691   -1.038152   -0.070077
     39          1           0        4.467920   -1.702492   -1.355229
     40          1           0        4.665331   -2.589752    0.165661
 ---------------------------------------------------------------------

 SCF Done:  E(RHF) =  -470.733130938     A.U. after   11 cycles
 E2 =    -0.1584196667D+01 EUMP2 =    -0.47231732760475D+03

 The electronic state is 1-A.
 Alpha  occ. eigenvalues --  -11.21633 -11.21624 -11.21601 -11.21595 -11.21440
 Alpha  occ. eigenvalues --  -11.21422 -11.21380 -11.21363 -11.21109 -11.21102
 Alpha  occ. eigenvalues --  -11.21078 -11.21071  -1.08486  -1.08430  -1.03566
 Alpha  occ. eigenvalues --   -1.03536  -0.96004  -0.95999  -0.87033  -0.86999
 Alpha  occ. eigenvalues --   -0.79625  -0.79610  -0.78406  -0.78139  -0.65286
 Alpha  occ. eigenvalues --   -0.64916  -0.61029  -0.60884  -0.59422  -0.59315
 Alpha  occ. eigenvalues --   -0.57615  -0.57606  -0.55314  -0.55274  -0.52712
 Alpha  occ. eigenvalues --   -0.52676  -0.52475  -0.52376  -0.50015  -0.49881
 Alpha  occ. eigenvalues --   -0.47955  -0.47928  -0.46816  -0.46676  -0.46192
 Alpha  occ. eigenvalues --   -0.45787  -0.45757  -0.45075  -0.43808  -0.43800
 Alpha virt. eigenvalues --    0.19854   0.21764   0.23665   0.24321   0.25442
 Alpha virt. eigenvalues --    0.26755   0.27009   0.27100   0.27469   0.29664
 Alpha virt. eigenvalues --    0.31186   0.31443   0.31707   0.31794   0.32103

 Mulliken charges:
               1
     1  C   -0.301998
     2  C   -0.299638
     3  C   -0.475911
     4  H    0.150301
     5  H    0.151659
     6  H    0.152218
     7  H    0.151820
     8  H    0.155414
     9  H    0.155419
    10  H    0.160350
    11  C   -0.297505
    12  C   -0.311006
    13  C   -0.476311
    14  H    0.149862
    15  H    0.149073
    16  H    0.152499
    17  H    0.161998
    18  H    0.154634
    19  H    0.155492
    20  H    0.161453
    21  C   -0.307066
    22  C   -0.298996
    23  C   -0.478138
    24  H    0.157266
    25  H    0.149923
    26  H    0.151538
    27  H    0.152298
    28  H    0.155827
    29  H    0.156493
    30  H    0.160464
    31  C   -0.297809
    32  C   -0.305667
    33  C   -0.475415
    34  H    0.148990
    35  H    0.149891
    36  H    0.158137
    37  H    0.151913
    38  H    0.155175
    39  H    0.155138
    40  H    0.160216
 Sum of Mulliken charges =  -0.00000

 Dipole moment (field-independent basis, Debye):
    X=             -0.0035    Y=             -0.0040    Z=              0.0205  Tot=              0.0211
 Quadrupole moment (field-independent basis, Debye-Ang):
   XX=            -85.0904   YY=            -85.7875   ZZ=            -83.8090
   XY=              1.5294   XZ=              0.4187   YZ=             -0.4964

 Normal termination of Gaussian 16 at Wed May  5 15:21:50 2021.
