 Gaussian 16, Revision A.03,
 Gaussian 16:  EM64L-G16RevA.03 25-Dec-2016

 -------------
 #p 6-31g* mp2
 -------------

 ------------------------------------------------------
 Input file generated by CHIRIPA (05-May-2021 14:55:21)
 ------------------------------------------------------
 Symbolic Z-matrix:
 Charge =  0 Multiplicity = 1

                         Standard orientation:
 ---------------------------------------------------------------------
 Center     Atomic      Atomic             Coordinates (Angstroms)
 Number     Number       Type             X           Y           Z
 ---------------------------------------------------------------------
      1          6           0        0.935549   -1.339064    1.561867
      2          6           0        0.620385   -0.945000    0.257296
      3          6           0        1.602684   -0.404939   -0.578150
      4          6           0        2.895678   -0.272582   -0.074225
      5          6           0        3.240839   -0.655929    1.220842
      6          6           0        2.242466   -1.193527    2.038636
      7          1           0        0.166232   -1.757640    2.204006
      8          1           0       -0.393740   -1.056856   -0.115642
      9          1           0        1.386186   -0.091690   -1.592261
     10          1           0        4.260657   -0.532102    1.564433
     11          1           0        2.490108   -1.498705    3.051348
     12          7           0        3.944102    0.297853   -0.949331
     13          8           0        5.075727    0.404056   -0.481588
     14          8           0        3.614381    0.627956   -2.086412
     15          6           0       -3.593322   -0.094287   -0.593781
     16          6           0       -4.542339   -1.183143   -0.092040
     17          6           0       -4.748420   -2.303576   -1.111821
     18          1           0       -3.989582    0.326593   -1.528009
     19          1           0       -2.623969   -0.548348   -0.841933
     20          1           0       -5.509175   -0.726940    0.156401
     21          1           0       -4.143870   -1.601347    0.841204
     22          1           0       -3.795279   -2.785327   -1.352730
     23          1           0       -5.168341   -1.905952   -2.041425
     24          1           0       -5.430227   -3.071169   -0.732611
     25          6           0       -3.377263    1.032774    0.414574
     26          6           0       -2.428246    2.121630   -0.087167
     27          6           0       -2.222164    3.242063    0.932615
     28          1           0       -4.346616    1.486835    0.662726
     29          1           0       -2.981002    0.611894    1.348803
     30          1           0       -2.826715    2.539834   -1.020410
     31          1           0       -1.461410    1.665428   -0.335608
     32          1           0       -1.802244    2.844439    1.862218
     33          1           0       -3.175306    3.723814    1.173524
     34          1           0       -1.540358    4.009656    0.553405
 ---------------------------------------------------------------------

 SCF Done:  E(RHF) =  -669.535495103     A.U. after   15 cycles
 E2 =    -0.2092020617D+01 EUMP2 =    -0.67162751571942D+03

 The electronic state is 1-A.
 Alpha  occ. eigenvalues --  -20.60779 -20.60774 -15.85834 -11.31216 -11.27794
 Alpha  occ. eigenvalues --  -11.27791 -11.27539 -11.26809 -11.26791 -11.22436
 Alpha  occ. eigenvalues --  -11.22335 -11.22202 -11.22131 -11.21792 -11.21504
 Alpha  occ. eigenvalues --   -1.59854  -1.39407  -1.19395  -1.09226  -1.08785
 Alpha  occ. eigenvalues --   -1.04802  -1.04209  -0.96663  -0.95617  -0.87670
 Alpha  occ. eigenvalues --   -0.86199  -0.82452  -0.80283  -0.79048  -0.77491
 Alpha  occ. eigenvalues --   -0.72052  -0.71178  -0.70502  -0.65978  -0.65047
 Alpha  occ. eigenvalues --   -0.64735  -0.62141  -0.61610  -0.60025  -0.58267
 Alpha  occ. eigenvalues --   -0.55972  -0.55297  -0.53315  -0.53130  -0.53088
 Alpha  occ. eigenvalues --   -0.52874  -0.50608  -0.48816  -0.48805  -0.48589
 Alpha  occ. eigenvalues --   -0.47339  -0.46551  -0.46503  -0.44809  -0.44499
 Alpha  occ. eigenvalues --   -0.37373  -0.36390
 Alpha virt. eigenvalues --    0.05022   0.11211   0.16401   0.18840   0.23045
 Alpha virt. eigenvalues --    0.23639   0.24823   0.26122   0.27145   0.28405
 Alpha virt. eigenvalues --    0.29478   0.30597   0.31124   0.31396   0.31643

 Mulliken charges:
               1
     1  C   -0.173774
     2  C   -0.224891
     3  C   -0.174145
     4  C    0.158810
     5  C   -0.170772
     6  C   -0.218465
     7  H    0.226056
     8  H    0.235089
     9  H    0.276431
    10  H    0.275818
    11  H    0.223595
    12  N    0.488112
    13  O   -0.460446
    14  O   -0.460158
    15  C   -0.302909
    16  C   -0.299612
    17  C   -0.475738
    18  H    0.155573
    19  H    0.140866
    20  H    0.156043
    21  H    0.148119
    22  H    0.152563
    23  H    0.158337
    24  H    0.162826
    25  C   -0.298604
    26  C   -0.301445
    27  C   -0.475818
    28  H    0.153570
    29  H    0.145426
    30  H    0.154740
    31  H    0.149516
    32  H    0.154748
    33  H    0.156116
    34  H    0.164422
 Sum of Mulliken charges =  -0.00000

 Dipole moment (field-independent basis, Debye):
    X=             -3.8252    Y=             -1.9288    Z=              3.0760  Tot=              5.2739
 Quadrupole moment (field-independent basis, Debye-Ang):
   XX=           -112.8618   YY=            -94.6389   ZZ=            -93.0089
   XY=             -6.0027   XZ=             12.4624   YZ=             -1.9426

 Normal termination of Gaussian 16 at Wed May  5 20:36:26 2021.
