 Gaussian 16, Revision A.03,
 Gaussian 16:  EM64L-G16RevA.03 25-Dec-2016

 -------------
 #p 6-31g* mp2
 -------------

 ------------------------------------------------------
 Input file generated by CHIRIPA (05-May-2021 14:53:16)
 ------------------------------------------------------
 Symbolic Z-matrix:
 Charge =  0 Multiplicity = 1

                         Standard orientation:
 ---------------------------------------------------------------------
 Center     Atomic      Atomic             Coordinates (Angstroms)
 Number     Number       Type             X           Y           Z
 ---------------------------------------------------------------------
      1          6           0       -3.483343   -0.481823    0.468763
      2          6           0       -2.916843   -1.901018    0.414453
      3          6           0       -1.624844   -2.052945    1.217851
      4          1           0       -2.729455    0.221822    0.089975
      5          1           0       -3.667826   -0.208003    1.516801
      6          1           0       -2.734781   -2.172593   -0.633267
      7          1           0       -3.672238   -2.601388    0.793235
      8          1           0       -1.795242   -1.808354    2.271294
      9          1           0       -0.852458   -1.377123    0.836686
     10          1           0       -1.237260   -3.075137    1.165297
     11          6           0       -4.774927   -0.314127   -0.329622
     12          6           0       -5.341427    1.105068   -0.275312
     13          6           0       -6.633427    1.256994   -1.078710
     14          1           0       -4.590444   -0.587947   -1.377660
     15          1           0       -5.528815   -1.017772    0.049166
     16          1           0       -4.586032    1.805438   -0.654094
     17          1           0       -5.523490    1.376643    0.772408
     18          1           0       -7.405813    0.581173   -0.697546
     19          1           0       -6.463029    1.012404   -2.132153
     20          1           0       -7.021010    2.279187   -1.026156
     21          6           0        2.290346    2.535293    0.682425
     22          6           0        3.588490    2.457898    0.167302
     23          6           0        4.117151    1.230753   -0.244015
     24          6           0        3.316332    0.095874   -0.125581
     25          6           0        2.019391    0.140590    0.383570
     26          6           0        1.511313    1.378432    0.788728
     27          1           0        1.887664    3.492723    0.999555
     28          1           0        4.195777    3.354692    0.083587
     29          1           0        5.118983    1.142253   -0.646407
     30          1           0        1.438039   -0.770657    0.454816
     31          1           0        0.502827    1.435542    1.188403
     32          7           0        3.865106   -1.208912   -0.557763
     33          8           0        3.139301   -2.194154   -0.443120
     34          8           0        5.010648   -1.221654   -1.002969
 ---------------------------------------------------------------------

 SCF Done:  E(RHF) =  -669.535541243     A.U. after   15 cycles
 E2 =    -0.2091141926D+01 EUMP2 =    -0.67162668316966D+03

 The electronic state is 1-A.
 Alpha  occ. eigenvalues --  -20.60731 -20.60725 -15.85782 -11.31142 -11.27720
 Alpha  occ. eigenvalues --  -11.27689 -11.27466 -11.26738 -11.26718 -11.22027
 Alpha  occ. eigenvalues --  -11.21987 -11.21900 -11.21756 -11.21657 -11.21375
 Alpha  occ. eigenvalues --   -1.59806  -1.39359  -1.19319  -1.08866  -1.08717
 Alpha  occ. eigenvalues --   -1.04725  -1.03953  -0.96417  -0.95551  -0.87435
 Alpha  occ. eigenvalues --   -0.86121  -0.82385  -0.80021  -0.78687  -0.77429
 Alpha  occ. eigenvalues --   -0.72002  -0.71128  -0.70440  -0.65497  -0.64973
 Alpha  occ. eigenvalues --   -0.64731  -0.62136  -0.61309  -0.59763  -0.58016
 Alpha  occ. eigenvalues --   -0.55740  -0.55212  -0.53091  -0.53054  -0.52925
 Alpha  occ. eigenvalues --   -0.52723  -0.50357  -0.48761  -0.48756  -0.48335
 Alpha  occ. eigenvalues --   -0.47047  -0.46233  -0.46140  -0.44765  -0.44200
 Alpha  occ. eigenvalues --   -0.37305  -0.36327
 Alpha virt. eigenvalues --    0.05100   0.11323   0.16583   0.19692   0.22663
 Alpha virt. eigenvalues --    0.23774   0.25294   0.26444   0.26875   0.28121
 Alpha virt. eigenvalues --    0.29106   0.30229   0.31375   0.31567   0.31679

 Mulliken charges:
               1
     1  C   -0.298512
     2  C   -0.300100
     3  C   -0.479316
     4  H    0.144222
     5  H    0.148749
     6  H    0.156317
     7  H    0.155130
     8  H    0.155590
     9  H    0.144603
    10  H    0.170506
    11  C   -0.298606
    12  C   -0.299761
    13  C   -0.475943
    14  H    0.151654
    15  H    0.151525
    16  H    0.150274
    17  H    0.151444
    18  H    0.156256
    19  H    0.156319
    20  H    0.160528
    21  C   -0.170776
    22  C   -0.218909
    23  C   -0.170488
    24  C    0.160726
    25  C   -0.180807
    26  C   -0.221920
    27  H    0.225507
    28  H    0.223322
    29  H    0.275458
    30  H    0.285489
    31  H    0.224581
    32  N    0.487696
    33  O   -0.460091
    34  O   -0.460666
 Sum of Mulliken charges =  -0.00000

 Dipole moment (field-independent basis, Debye):
    X=             -2.0827    Y=              4.4871    Z=              1.5086  Tot=              5.1718
 Quadrupole moment (field-independent basis, Debye-Ang):
   XX=           -104.1718   YY=            -92.9981   ZZ=            -95.2289
   XY=             18.0998   XZ=              3.1670   YZ=             -1.1855

 Normal termination of Gaussian 16 at Wed May  5 15:42:04 2021.
