 Gaussian 16, Revision A.03,
 Gaussian 16:  EM64L-G16RevA.03 25-Dec-2016

 -------------
 #p 6-31g* mp2
 -------------

 ------------------------------------------------------
 Input file generated by CHIRIPA (05-May-2021 14:51:09)
 ------------------------------------------------------
 Symbolic Z-matrix:
 Charge =  0 Multiplicity = 1

                         Standard orientation:
 ---------------------------------------------------------------------
 Center     Atomic      Atomic             Coordinates (Angstroms)
 Number     Number       Type             X           Y           Z
 ---------------------------------------------------------------------
      1          6           0       -3.153669    0.732968   -0.177615
      2          6           0       -3.887891    2.058397    0.027672
      3          6           0       -2.958586    3.269177   -0.062872
      4          1           0       -2.356860    0.642376    0.573274
      5          1           0       -2.658866    0.744026   -1.158656
      6          1           0       -4.382309    2.044295    1.007452
      7          1           0       -4.683168    2.145756   -0.723672
      8          1           0       -2.475044    3.311139   -1.044212
      9          1           0       -2.172475    3.209102    0.696748
     10          1           0       -3.504154    4.206085    0.086857
     11          6           0       -4.069322   -0.486714   -0.089965
     12          6           0       -3.335101   -1.812143   -0.295252
     13          6           0       -4.264406   -3.022923   -0.204708
     14          1           0       -4.564126   -0.497773    0.891076
     15          1           0       -4.866131   -0.396122   -0.840854
     16          1           0       -2.539823   -1.899503    0.456092
     17          1           0       -2.840683   -1.798041   -1.275032
     18          1           0       -5.050516   -2.962848   -0.964328
     19          1           0       -4.747947   -3.064886    0.776632
     20          1           0       -3.718838   -3.959831   -0.354437
     21          6           0        4.333288   -0.316475    0.292108
     22          6           0        5.350706    0.299204   -0.669029
     23          6           0        6.790237   -0.096852   -0.339354
     24          1           0        4.574253   -0.007367    1.318428
     25          1           0        4.428936   -1.410776    0.264651
     26          1           0        5.252226    1.391962   -0.640796
     27          1           0        5.107177   -0.011252   -1.693200
     28          1           0        6.911145   -1.183936   -0.386607
     29          1           0        7.057018    0.227251    0.671777
     30          1           0        7.500951    0.354269   -1.038807
     31          6           0        2.889704    0.070222   -0.024528
     32          6           0        1.872286   -0.545458    0.936609
     33          6           0        0.432755   -0.149401    0.606934
     34          1           0        2.794057    1.164522    0.002930
     35          1           0        2.648739   -0.238887   -1.050848
     36          1           0        2.115814   -0.235003    1.960780
     37          1           0        1.970766   -1.638216    0.908377
     38          1           0        0.165974   -0.473505   -0.404196
     39          1           0        0.311846    0.937681    0.654187
     40          1           0       -0.277959   -0.600523    1.306388
 ---------------------------------------------------------------------

 SCF Done:  E(RHF) =  -470.732621397     A.U. after   11 cycles
 E2 =    -0.1583475223D+01 EUMP2 =    -0.47231609662017D+03

 The electronic state is 1-A.
 Alpha  occ. eigenvalues --  -11.21600 -11.21582 -11.21530 -11.21513 -11.21403
 Alpha  occ. eigenvalues --  -11.21344 -11.21297 -11.21178 -11.21071 -11.21055
 Alpha  occ. eigenvalues --  -11.21028 -11.21026  -1.08434  -1.08333  -1.03530
 Alpha  occ. eigenvalues --   -1.03460  -0.96007  -0.95887  -0.87028  -0.86911
 Alpha  occ. eigenvalues --   -0.79644  -0.79516  -0.78289  -0.78054  -0.65061
 Alpha  occ. eigenvalues --   -0.64981  -0.60952  -0.60839  -0.59380  -0.59264
 Alpha  occ. eigenvalues --   -0.57594  -0.57516  -0.55281  -0.55189  -0.52807
 Alpha  occ. eigenvalues --   -0.52561  -0.52453  -0.52258  -0.49951  -0.49829
 Alpha  occ. eigenvalues --   -0.47987  -0.47777  -0.46668  -0.46504  -0.45921
 Alpha  occ. eigenvalues --   -0.45719  -0.45600  -0.45528  -0.43736  -0.43630
 Alpha virt. eigenvalues --    0.21634   0.23065   0.23892   0.24285   0.25723
 Alpha virt. eigenvalues --    0.26042   0.26797   0.27442   0.27812   0.29608
 Alpha virt. eigenvalues --    0.30231   0.31267   0.31821   0.31939   0.32269

 Mulliken charges:
               1
     1  C   -0.304971
     2  C   -0.299096
     3  C   -0.475909
     4  H    0.161446
     5  H    0.148520
     6  H    0.151204
     7  H    0.151308
     8  H    0.155125
     9  H    0.154762
    10  H    0.159946
    11  C   -0.298009
    12  C   -0.301789
    13  C   -0.475617
    14  H    0.148598
    15  H    0.148975
    16  H    0.154759
    17  H    0.151202
    18  H    0.155045
    19  H    0.154904
    20  H    0.159838
    21  C   -0.298257
    22  C   -0.299610
    23  C   -0.475697
    24  H    0.149601
    25  H    0.149509
    26  H    0.151961
    27  H    0.151915
    28  H    0.155167
    29  H    0.155167
    30  H    0.160256
    31  C   -0.298598
    32  C   -0.300880
    33  C   -0.477300
    34  H    0.149631
    35  H    0.149601
    36  H    0.151480
    37  H    0.151821
    38  H    0.158223
    39  H    0.155659
    40  H    0.160110
 Sum of Mulliken charges =  -0.00000

 Dipole moment (field-independent basis, Debye):
    X=              0.0366    Y=             -0.0003    Z=              0.0040  Tot=              0.0368
 Quadrupole moment (field-independent basis, Debye-Ang):
   XX=            -86.5689   YY=            -85.2233   ZZ=            -83.4100
   XY=             -0.2388   XZ=              0.0759   YZ=              0.5174

 Normal termination of Gaussian 16 at Thu May  6 02:08:38 2021.
