 Gaussian 16, Revision A.03,
 Gaussian 16:  EM64L-G16RevA.03 25-Dec-2016

 -------------
 #p 6-31g* mp2
 -------------

 ------------------------------------------------------
 Input file generated by CHIRIPA (05-May-2021 14:51:13)
 ------------------------------------------------------
 Symbolic Z-matrix:
 Charge =  0 Multiplicity = 1

                         Standard orientation:
 ---------------------------------------------------------------------
 Center     Atomic      Atomic             Coordinates (Angstroms)
 Number     Number       Type             X           Y           Z
 ---------------------------------------------------------------------
      1          6           0        3.280261    0.397708   -0.715430
      2          6           0        2.707776    1.687566   -0.126778
      3          6           0        1.713056    2.374197   -1.063188
      4          1           0        3.771351    0.624869   -1.671554
      5          1           0        2.454927   -0.290822   -0.943779
      6          1           0        3.534045    2.372916    0.101677
      7          1           0        2.218159    1.457339    0.828149
      8          1           0        0.869590    1.711465   -1.282173
      9          1           0        2.192953    2.632244   -2.012773
     10          1           0        1.316215    3.294125   -0.622610
     11          6           0        4.276256   -0.300266    0.208992
     12          6           0        4.848741   -1.590124   -0.379660
     13          6           0        5.843461   -2.276754    0.556750
     14          1           0        5.101591    0.388265    0.437341
     15          1           0        3.785166   -0.527427    1.165116
     16          1           0        5.338358   -1.359897   -1.334587
     17          1           0        4.022472   -2.275474   -0.608115
     18          1           0        5.363564   -2.534802    1.506334
     19          1           0        6.686927   -1.614023    0.775734
     20          1           0        6.240302   -3.196683    0.116171
     21          6           0       -3.372063    0.597175    0.288657
     22          6           0       -2.058354    0.445961    1.056307
     23          6           0       -1.256959    1.746608    1.118544
     24          1           0       -3.155777    0.945392   -0.730612
     25          1           0       -3.978595    1.380249    0.764376
     26          1           0       -1.455073   -0.337557    0.580105
     27          1           0       -2.277780    0.097879    2.073808
     28          1           0       -1.836557    2.532940    1.612862
     29          1           0       -1.009175    2.095031    0.110672
     30          1           0       -0.321715    1.615830    1.671785
     31          6           0       -4.184454   -0.694617    0.217781
     32          6           0       -5.498164   -0.543402   -0.549869
     33          6           0       -6.299558   -1.844051   -0.612106
     34          1           0       -3.577922   -1.477691   -0.257938
     35          1           0       -4.400741   -1.042833    1.237051
     36          1           0       -5.278737   -0.195321   -1.567370
     37          1           0       -6.101445    0.240115   -0.073667
     38          1           0       -6.547343   -2.192473    0.395766
     39          1           0       -5.719961   -2.630383   -1.106424
     40          1           0       -7.234802   -1.713272   -1.165347
 ---------------------------------------------------------------------

 SCF Done:  E(RHF) =  -470.732388758     A.U. after   11 cycles
 E2 =    -0.1583193719D+01 EUMP2 =    -0.47231558247659D+03

 The electronic state is 1-A.
 Alpha  occ. eigenvalues --  -11.21605 -11.21602 -11.21600 -11.21577 -11.21410
 Alpha  occ. eigenvalues --  -11.21401 -11.21350 -11.21342 -11.21075 -11.21071
 Alpha  occ. eigenvalues --  -11.21013 -11.20967  -1.08443  -1.08411  -1.03576
 Alpha  occ. eigenvalues --   -1.03467  -0.96065  -0.95878  -0.87088  -0.86890
 Alpha  occ. eigenvalues --   -0.79633  -0.79542  -0.78247  -0.78236  -0.65145
 Alpha  occ. eigenvalues --   -0.64991  -0.61182  -0.60714  -0.59406  -0.59262
 Alpha  occ. eigenvalues --   -0.57618  -0.57544  -0.55607  -0.54937  -0.52747
 Alpha  occ. eigenvalues --   -0.52610  -0.52387  -0.52360  -0.50184  -0.49604
 Alpha  occ. eigenvalues --   -0.47928  -0.47884  -0.46724  -0.46461  -0.45800
 Alpha  occ. eigenvalues --   -0.45772  -0.45715  -0.45659  -0.43768  -0.43763
 Alpha virt. eigenvalues --    0.21087   0.23129   0.23585   0.25270   0.26116
 Alpha virt. eigenvalues --    0.26426   0.27079   0.27355   0.27835   0.29193
 Alpha virt. eigenvalues --    0.30041   0.31082   0.31361   0.32178   0.32478

 Mulliken charges:
               1
     1  C   -0.298334
     2  C   -0.302280
     3  C   -0.476125
     4  H    0.149644
     5  H    0.149233
     6  H    0.151914
     7  H    0.154372
     8  H    0.156358
     9  H    0.154291
    10  H    0.161530
    11  C   -0.298324
    12  C   -0.299625
    13  C   -0.475710
    14  H    0.149580
    15  H    0.149539
    16  H    0.151939
    17  H    0.151829
    18  H    0.155195
    19  H    0.155199
    20  H    0.160238
    21  C   -0.298320
    22  C   -0.300157
    23  C   -0.481714
    24  H    0.149522
    25  H    0.149733
    26  H    0.150688
    27  H    0.151748
    28  H    0.154395
    29  H    0.162126
    30  H    0.161575
    31  C   -0.298222
    32  C   -0.299663
    33  C   -0.475704
    34  H    0.149304
    35  H    0.149661
    36  H    0.151982
    37  H    0.151979
    38  H    0.155170
    39  H    0.155142
    40  H    0.160291
 Sum of Mulliken charges =  -0.00000

 Dipole moment (field-independent basis, Debye):
    X=              0.0038    Y=              0.0247    Z=             -0.0078  Tot=              0.0262
 Quadrupole moment (field-independent basis, Debye-Ang):
   XX=            -85.0595   YY=            -85.5300   ZZ=            -84.2391
   XY=              0.1413   XZ=             -1.2059   YZ=              0.2223

 Normal termination of Gaussian 16 at Thu May  6 03:58:21 2021.
