 Gaussian 16, Revision A.03,
 Gaussian 16:  EM64L-G16RevA.03 25-Dec-2016

 -------------
 #p 6-31g* mp2
 -------------

 ------------------------------------------------------
 Input file generated by CHIRIPA (05-May-2021 14:55:25)
 ------------------------------------------------------
 Symbolic Z-matrix:
 Charge =  0 Multiplicity = 1

                         Standard orientation:
 ---------------------------------------------------------------------
 Center     Atomic      Atomic             Coordinates (Angstroms)
 Number     Number       Type             X           Y           Z
 ---------------------------------------------------------------------
      1          6           0        4.502029   -1.295676   -0.661915
      2          6           0        4.794760   -0.192141    0.146194
      3          6           0        3.812203    0.761351    0.429009
      4          6           0        2.541831    0.579188   -0.115290
      5          6           0        2.219325   -0.509577   -0.923912
      6          6           0        3.217510   -1.450599   -1.193452
      7          1           0        5.271373   -2.031528   -0.876456
      8          1           0        5.791462   -0.069254    0.560354
      9          1           0        4.011603    1.625124    1.051546
     10          1           0        1.216577   -0.604975   -1.322426
     11          1           0        2.987318   -2.306628   -1.821363
     12          7           0        1.493370    1.582006    0.177086
     13          8           0        0.381925    1.398639   -0.314549
     14          8           0        1.802883    2.532394    0.892350
     15          6           0       -2.713336   -0.547414    0.267616
     16          6           0       -2.193954   -1.742935    1.066965
     17          6           0       -0.668936   -1.764284    1.174936
     18          1           0       -2.273326   -0.568319   -0.738812
     19          1           0       -2.365359    0.380800    0.741670
     20          1           0       -2.543960   -2.668590    0.592333
     21          1           0       -2.635400   -1.719287    2.071544
     22          1           0       -0.304934   -0.857288    1.668356
     23          1           0       -0.212975   -1.811984    0.180741
     24          1           0       -0.319242   -2.627144    1.750305
     25          6           0       -4.236117   -0.512199    0.150884
     26          6           0       -4.755500    0.683322   -0.648462
     27          6           0       -6.280518    0.704672   -0.756436
     28          1           0       -4.584095   -1.440413   -0.323168
     29          1           0       -4.676127   -0.491294    1.157313
     30          1           0       -4.314053    0.659675   -1.653043
     31          1           0       -4.405493    1.608977   -0.173832
     32          1           0       -6.736478    0.752371    0.237761
     33          1           0       -6.644519   -0.202325   -1.249854
     34          1           0       -6.630211    1.567531   -1.331803
 ---------------------------------------------------------------------

 SCF Done:  E(RHF) =  -669.534939752     A.U. after   15 cycles
 E2 =    -0.2093186451D+01 EUMP2 =    -0.67162812620346D+03

 The electronic state is 1-A.
 Alpha  occ. eigenvalues --  -20.60878 -20.60843 -15.85883 -11.31199 -11.27780
 Alpha  occ. eigenvalues --  -11.27767 -11.27518 -11.26779 -11.26768 -11.21061
 Alpha  occ. eigenvalues --  -11.20868 -11.20713 -11.20666 -11.20496 -11.20421
 Alpha  occ. eigenvalues --   -1.59923  -1.39477  -1.19379  -1.08782  -1.07712
 Alpha  occ. eigenvalues --   -1.04782  -1.02935  -0.95632  -0.95385  -0.86450
 Alpha  occ. eigenvalues --   -0.86152  -0.82464  -0.79010  -0.77636  -0.77339
 Alpha  occ. eigenvalues --   -0.72106  -0.71236  -0.70507  -0.65036  -0.64808
 Alpha  occ. eigenvalues --   -0.64347  -0.62165  -0.60342  -0.58741  -0.56994
 Alpha  occ. eigenvalues --   -0.55304  -0.54688  -0.53136  -0.52893  -0.52122
 Alpha  occ. eigenvalues --   -0.51766  -0.49350  -0.48878  -0.48869  -0.47329
 Alpha  occ. eigenvalues --   -0.46023  -0.45253  -0.44970  -0.44532  -0.43141
 Alpha  occ. eigenvalues --   -0.37350  -0.36346
 Alpha virt. eigenvalues --    0.04987   0.11241   0.16457   0.20876   0.23422
 Alpha virt. eigenvalues --    0.24486   0.26336   0.27627   0.27788   0.28556
 Alpha virt. eigenvalues --    0.29128   0.30942   0.31498   0.32250   0.32397

 Mulliken charges:
               1
     1  C   -0.170269
     2  C   -0.218649
     3  C   -0.170921
     4  C    0.157753
     5  C   -0.166486
     6  C   -0.219751
     7  H    0.225682
     8  H    0.223410
     9  H    0.275470
    10  H    0.276015
    11  H    0.223416
    12  N    0.488768
    13  O   -0.459644
    14  O   -0.460239
    15  C   -0.297860
    16  C   -0.300514
    17  C   -0.470766
    18  H    0.148097
    19  H    0.166952
    20  H    0.146677
    21  H    0.150989
    22  H    0.160337
    23  H    0.143431
    24  H    0.154655
    25  C   -0.298769
    26  C   -0.299030
    27  C   -0.475380
    28  H    0.144588
    29  H    0.147556
    30  H    0.151584
    31  H    0.157085
    32  H    0.154039
    33  H    0.152510
    34  H    0.159265
 Sum of Mulliken charges =  -0.00000

 Dipole moment (field-independent basis, Debye):
    X=              3.8242    Y=             -3.3271    Z=             -1.0125  Tot=              5.1691
 Quadrupole moment (field-independent basis, Debye-Ang):
   XX=            -76.0807   YY=            -98.1938   ZZ=            -92.9424
   XY=             -5.3801   XZ=             -1.3516   YZ=              2.1958

 Normal termination of Gaussian 16 at Thu May  6 11:05:19 2021.
