 Gaussian 16, Revision A.03,
 Gaussian 16:  EM64L-G16RevA.03 25-Dec-2016

 -------------
 #p 6-31g* mp2
 -------------

 ------------------------------------------------------
 Input file generated by CHIRIPA (05-May-2021 14:51:12)
 ------------------------------------------------------
 Symbolic Z-matrix:
 Charge =  0 Multiplicity = 1

                         Standard orientation:
 ---------------------------------------------------------------------
 Center     Atomic      Atomic             Coordinates (Angstroms)
 Number     Number       Type             X           Y           Z
 ---------------------------------------------------------------------
      1          6           0       -4.048577    0.041740   -0.018209
      2          6           0       -5.450164   -0.500099   -0.300961
      3          6           0       -6.486692    0.608792   -0.484711
      4          1           0       -4.079898    0.669329    0.882955
      5          1           0       -3.742768    0.697397   -0.845246
      6          1           0       -5.752681   -1.155636    0.525702
      7          1           0       -5.415466   -1.126627   -1.201447
      8          1           0       -6.211576    1.258404   -1.321918
      9          1           0       -6.550706    1.229230    0.415045
     10          1           0       -7.481484    0.199150   -0.685818
     11          6           0       -3.001307   -1.054770    0.167847
     12          6           0       -1.599720   -0.512931    0.450598
     13          6           0       -0.563191   -1.621822    0.634348
     14          1           0       -3.307116   -1.710427    0.994883
     15          1           0       -2.969986   -1.682359   -0.733317
     16          1           0       -1.634418    0.113596    1.351085
     17          1           0       -1.297203    0.142606   -0.376065
     18          1           0       -0.499178   -2.242260   -0.265407
     19          1           0       -0.838308   -2.271434    1.471555
     20          1           0        0.431600   -1.212180    0.835455
     21          6           0        2.933084    0.882822    0.227719
     22          6           0        2.818420    2.326843   -0.261816
     23          6           0        1.629566    3.066601    0.352331
     24          1           0        2.003766    0.347063   -0.009504
     25          1           0        3.024479    0.880392    1.322723
     26          1           0        2.728660    2.326619   -1.355689
     27          1           0        3.748193    2.859175   -0.023572
     28          1           0        1.716277    3.096476    1.443289
     29          1           0        0.690951    2.560895    0.103603
     30          1           0        1.566513    4.096958   -0.011330
     31          6           0        4.116800    0.130208   -0.377356
     32          6           0        4.231464   -1.313813    0.112178
     33          6           0        5.420318   -2.053571   -0.501968
     34          1           0        4.025406    0.132639   -1.472361
     35          1           0        5.046118    0.665967   -0.140134
     36          1           0        3.301690   -1.846144   -0.126066
     37          1           0        4.321224   -1.313589    1.206051
     38          1           0        6.358933   -1.547864   -0.253241
     39          1           0        5.333606   -2.083445   -1.592927
     40          1           0        5.483370   -3.083927   -0.138308
 ---------------------------------------------------------------------

 SCF Done:  E(RHF) =  -470.733314071     A.U. after   11 cycles
 E2 =    -0.1583056394D+01 EUMP2 =    -0.47231637046467D+03

 The electronic state is 1-A.
 Alpha  occ. eigenvalues --  -11.21635 -11.21609 -11.21595 -11.21586 -11.21420
 Alpha  occ. eigenvalues --  -11.21395 -11.21360 -11.21335 -11.21074 -11.21059
 Alpha  occ. eigenvalues --  -11.21049 -11.21049  -1.08453  -1.08419  -1.03547
 Alpha  occ. eigenvalues --   -1.03513  -0.96004  -0.95955  -0.87023  -0.86968
 Alpha  occ. eigenvalues --   -0.79613  -0.79573  -0.78267  -0.78240  -0.65107
 Alpha  occ. eigenvalues --   -0.65038  -0.60956  -0.60899  -0.59396  -0.59314
 Alpha  occ. eigenvalues --   -0.57679  -0.57512  -0.55288  -0.55246  -0.52766
 Alpha  occ. eigenvalues --   -0.52626  -0.52485  -0.52297  -0.49941  -0.49898
 Alpha  occ. eigenvalues --   -0.47927  -0.47892  -0.46674  -0.46581  -0.45801
 Alpha  occ. eigenvalues --   -0.45763  -0.45733  -0.45670  -0.43797  -0.43726
 Alpha virt. eigenvalues --    0.20901   0.23127   0.23683   0.24227   0.26102
 Alpha virt. eigenvalues --    0.26458   0.26850   0.27042   0.28283   0.29308
 Alpha virt. eigenvalues --    0.30230   0.31366   0.31615   0.31871   0.32476

 Mulliken charges:
               1
     1  C   -0.298325
     2  C   -0.299668
     3  C   -0.475721
     4  H    0.149890
     5  H    0.149421
     6  H    0.151974
     7  H    0.151899
     8  H    0.155197
     9  H    0.155271
    10  H    0.160268
    11  C   -0.298240
    12  C   -0.301013
    13  C   -0.483367
    14  H    0.149851
    15  H    0.149582
    16  H    0.152986
    17  H    0.151664
    18  H    0.154287
    19  H    0.155548
    20  H    0.167956
    21  C   -0.306066
    22  C   -0.298977
    23  C   -0.477591
    24  H    0.157690
    25  H    0.149034
    26  H    0.151630
    27  H    0.151958
    28  H    0.155027
    29  H    0.157288
    30  H    0.160130
    31  C   -0.297689
    32  C   -0.301551
    33  C   -0.475660
    34  H    0.149306
    35  H    0.149664
    36  H    0.153928
    37  H    0.151767
    38  H    0.155149
    39  H    0.155116
    40  H    0.160389
 Sum of Mulliken charges =  -0.00000

 Dipole moment (field-independent basis, Debye):
    X=             -0.0054    Y=             -0.0040    Z=              0.0096  Tot=              0.0117
 Quadrupole moment (field-independent basis, Debye-Ang):
   XX=            -85.8286   YY=            -85.6551   ZZ=            -83.2918
   XY=              1.2876   XZ=              0.3994   YZ=              0.0908

 Normal termination of Gaussian 16 at Thu May  6 03:54:21 2021.
