 Gaussian 16, Revision A.03,
 Gaussian 16:  EM64L-G16RevA.03 25-Dec-2016

 -------------
 #p 6-31g* mp2
 -------------

 ------------------------------------------------------
 Input file generated by CHIRIPA (05-May-2021 14:53:17)
 ------------------------------------------------------
 Symbolic Z-matrix:
 Charge =  0 Multiplicity = 1

                         Standard orientation:
 ---------------------------------------------------------------------
 Center     Atomic      Atomic             Coordinates (Angstroms)
 Number     Number       Type             X           Y           Z
 ---------------------------------------------------------------------
      1          6           0        4.883812    0.281824   -0.292496
      2          6           0        5.314328   -1.151702    0.019982
      3          6           0        6.810132   -1.380736   -0.198899
      4          1           0        5.143775    0.517294   -1.333610
      5          1           0        5.457925    0.975265    0.337525
      6          1           0        4.738586   -1.842314   -0.609456
      7          1           0        5.053137   -1.383852    1.060415
      8          1           0        7.399344   -0.715097    0.440128
      9          1           0        7.083006   -1.176164   -1.239231
     10          1           0        7.096146   -2.411997    0.030357
     11          6           0        3.391125    0.526375   -0.078463
     12          6           0        2.960609    1.959901   -0.390942
     13          6           0        1.464805    2.188935   -0.172061
     14          1           0        2.817012   -0.167066   -0.708485
     15          1           0        3.131162    0.290905    0.962650
     16          1           0        3.221800    2.192051   -1.431375
     17          1           0        3.536351    2.650513    0.238496
     18          1           0        1.191932    1.984363    0.868271
     19          1           0        0.875594    1.523296   -0.811088
     20          1           0        1.178791    3.220195   -0.401317
     21          6           0       -0.901258   -0.765276    0.999071
     22          6           0       -1.608603   -1.771130    0.332406
     23          6           0       -2.900853   -1.533232   -0.145132
     24          6           0       -3.457764   -0.272239    0.062328
     25          6           0       -2.778460    0.750341    0.722757
     26          6           0       -1.487411    0.490037    1.191780
     27          1           0        0.102126   -0.958784    1.366727
     28          1           0       -1.155893   -2.746974    0.181317
     29          1           0       -3.470903   -2.293909   -0.664583
     30          1           0       -3.256142    1.713080    0.858303
     31          1           0       -0.940432    1.273085    1.709170
     32          7           0       -4.825175   -0.008527   -0.438712
     33          8           0       -5.293526    1.110878   -0.243218
     34          8           0       -5.402708   -0.926227   -1.017434
 ---------------------------------------------------------------------

 SCF Done:  E(RHF) =  -669.534853836     A.U. after   15 cycles
 E2 =    -0.2092088167D+01 EUMP2 =    -0.67162694200316D+03

 The electronic state is 1-A.
 Alpha  occ. eigenvalues --  -20.60712 -20.60707 -15.85764 -11.31117 -11.27681
 Alpha  occ. eigenvalues --  -11.27658 -11.27397 -11.26703 -11.26649 -11.22386
 Alpha  occ. eigenvalues --  -11.22281 -11.22273 -11.22078 -11.21947 -11.21616
 Alpha  occ. eigenvalues --   -1.59788  -1.39342  -1.19286  -1.09203  -1.08682
 Alpha  occ. eigenvalues --   -1.04691  -1.04264  -0.96733  -0.95517  -0.87761
 Alpha  occ. eigenvalues --   -0.86079  -0.82350  -0.80346  -0.79030  -0.77400
 Alpha  occ. eigenvalues --   -0.71983  -0.71111  -0.70382  -0.65833  -0.64936
 Alpha  occ. eigenvalues --   -0.64717  -0.62083  -0.61628  -0.60092  -0.58338
 Alpha  occ. eigenvalues --   -0.56031  -0.55177  -0.53446  -0.53344  -0.52912
 Alpha  occ. eigenvalues --   -0.52655  -0.50655  -0.48765  -0.48739  -0.48609
 Alpha  occ. eigenvalues --   -0.47364  -0.46565  -0.46477  -0.44750  -0.44531
 Alpha  occ. eigenvalues --   -0.37232  -0.36267
 Alpha virt. eigenvalues --    0.05117   0.11328   0.16567   0.19988   0.22403
 Alpha virt. eigenvalues --    0.23823   0.25371   0.25891   0.26365   0.28106
 Alpha virt. eigenvalues --    0.28974   0.29836   0.31011   0.31321   0.31629

 Mulliken charges:
               1
     1  C   -0.298485
     2  C   -0.300082
     3  C   -0.476058
     4  H    0.152504
     5  H    0.151399
     6  H    0.151264
     7  H    0.150250
     8  H    0.156370
     9  H    0.156787
    10  H    0.161421
    11  C   -0.299390
    12  C   -0.300148
    13  C   -0.478118
    14  H    0.149149
    15  H    0.143028
    16  H    0.156107
    17  H    0.153752
    18  H    0.142424
    19  H    0.162740
    20  H    0.164268
    21  C   -0.172410
    22  C   -0.219392
    23  C   -0.171463
    24  C    0.158488
    25  C   -0.173074
    26  C   -0.215075
    27  H    0.227396
    28  H    0.223112
    29  H    0.275183
    30  H    0.275425
    31  H    0.225854
    32  N    0.488048
    33  O   -0.460537
    34  O   -0.460739
 Sum of Mulliken charges =  -0.00000

 Dipole moment (field-independent basis, Debye):
    X=              4.9921    Y=             -0.8742    Z=              1.6705  Tot=              5.3363
 Quadrupole moment (field-independent basis, Debye-Ang):
   XX=           -129.3673   YY=            -89.9016   ZZ=            -93.7126
   XY=              2.6020   XZ=             -5.7045   YZ=              1.4801

 Normal termination of Gaussian 16 at Wed May  5 15:44:45 2021.
