 Gaussian 16, Revision A.03,
 Gaussian 16:  EM64L-G16RevA.03 25-Dec-2016

 -------------
 #p 6-31g* mp2
 -------------

 ------------------------------------------------------
 Input file generated by CHIRIPA (05-May-2021 14:53:11)
 ------------------------------------------------------
 Symbolic Z-matrix:
 Charge =  0 Multiplicity = 1

                         Standard orientation:
 ---------------------------------------------------------------------
 Center     Atomic      Atomic             Coordinates (Angstroms)
 Number     Number       Type             X           Y           Z
 ---------------------------------------------------------------------
      1          6           0        4.409757   -0.288057    0.143701
      2          6           0        5.926448   -0.379271    0.314914
      3          6           0        6.409237   -1.809977    0.555304
      4          1           0        3.920894   -0.695966    1.039005
      5          1           0        4.103714   -0.925491   -0.697376
      6          1           0        6.229701    0.259224    1.154544
      7          1           0        6.411758    0.029079   -0.580821
      8          1           0        6.135089   -2.455446   -0.285418
      9          1           0        5.951998   -2.223994    1.459806
     10          1           0        7.496332   -1.852081    0.674935
     11          6           0        3.911861    1.135919   -0.097381
     12          6           0        2.395170    1.227132   -0.268593
     13          6           0        1.912381    2.657839   -0.508984
     14          1           0        4.217904    1.773353    0.743696
     15          1           0        4.400724    1.543828   -0.992684
     16          1           0        1.909860    0.818782    0.627141
     17          1           0        2.091916    0.588638   -1.108223
     18          1           0        2.369620    3.071856   -1.413486
     19          1           0        2.186529    3.303308    0.331739
     20          1           0        0.825286    2.699943   -0.628614
     21          6           0       -5.552285    0.528540    0.555640
     22          6           0       -5.372172   -0.816005    0.214642
     23          6           0       -4.101403   -1.303331   -0.105057
     24          6           0       -3.028117   -0.414312   -0.073561
     25          6           0       -3.175408    0.930629    0.262190
     26          6           0       -4.455263    1.396036    0.578285
     27          1           0       -6.542978    0.898593    0.802590
     28          1           0       -6.222311   -1.491999    0.196230
     29          1           0       -3.933588   -2.339523   -0.372570
     30          1           0       -2.308743    1.580411    0.271838
     31          1           0       -4.592167    2.440722    0.842739
     32          7           0       -1.678001   -0.918620   -0.410104
     33          8           0       -0.748648   -0.115061   -0.375005
     34          8           0       -1.574698   -2.107907   -0.702613
 ---------------------------------------------------------------------

 SCF Done:  E(RHF) =  -669.535697574     A.U. after   15 cycles
 E2 =    -0.2091422447D+01 EUMP2 =    -0.67162712002094D+03

 The electronic state is 1-A.
 Alpha  occ. eigenvalues --  -20.60914 -20.60908 -15.85950 -11.31285 -11.27852
 Alpha  occ. eigenvalues --  -11.27847 -11.27589 -11.26860 -11.26850 -11.20792
 Alpha  occ. eigenvalues --  -11.20361 -11.20350 -11.20243 -11.20041 -11.19980
 Alpha  occ. eigenvalues --   -1.59980  -1.39536  -1.19455  -1.08857  -1.07347
 Alpha  occ. eigenvalues --   -1.04853  -1.02464  -0.95700  -0.94984  -0.86254
 Alpha  occ. eigenvalues --   -0.86013  -0.82535  -0.78528  -0.77594  -0.77077
 Alpha  occ. eigenvalues --   -0.72163  -0.71296  -0.70564  -0.65111  -0.64856
 Alpha  occ. eigenvalues --   -0.63993  -0.62202  -0.59876  -0.58338  -0.56535
 Alpha  occ. eigenvalues --   -0.55356  -0.54308  -0.53185  -0.52946  -0.51707
 Alpha  occ. eigenvalues --   -0.51398  -0.48986  -0.48943  -0.48920  -0.46808
 Alpha  occ. eigenvalues --   -0.45578  -0.44979  -0.44611  -0.44508  -0.42732
 Alpha  occ. eigenvalues --   -0.37435  -0.36456
 Alpha virt. eigenvalues --    0.04937   0.11199   0.16425   0.21046   0.23787
 Alpha virt. eigenvalues --    0.24670   0.26864   0.27634   0.27728   0.28709
 Alpha virt. eigenvalues --    0.29185   0.30451   0.31605   0.32376   0.32811

 Mulliken charges:
               1
     1  C   -0.297146
     2  C   -0.298785
     3  C   -0.475039
     4  H    0.150142
     5  H    0.152595
     6  H    0.149225
     7  H    0.149937
     8  H    0.155613
     9  H    0.154615
    10  H    0.157106
    11  C   -0.299492
    12  C   -0.293084
    13  C   -0.477106
    14  H    0.143556
    15  H    0.144980
    16  H    0.157519
    17  H    0.164553
    18  H    0.150131
    19  H    0.147383
    20  H    0.159710
    21  C   -0.170593
    22  C   -0.218609
    23  C   -0.170550
    24  C    0.157376
    25  C   -0.171272
    26  C   -0.218707
    27  H    0.225970
    28  H    0.223770
    29  H    0.275817
    30  H    0.276264
    31  H    0.223973
    32  N    0.494425
    33  O   -0.464895
    34  O   -0.459384
 Sum of Mulliken charges =  -0.00000

 Dipole moment (field-independent basis, Debye):
    X=             -5.0729    Y=              1.6086    Z=              1.1452  Tot=              5.4436
 Quadrupole moment (field-independent basis, Debye-Ang):
   XX=            -67.3244   YY=            -93.7449   ZZ=            -94.7608
   XY=             -1.4496   XZ=             -3.3996   YZ=              0.5935

 Normal termination of Gaussian 16 at Thu May  6 02:28:25 2021.
