 Gaussian 16, Revision A.03,
 Gaussian 16:  EM64L-G16RevA.03 25-Dec-2016

 -------------
 #p 6-31g* mp2
 -------------

 ------------------------------------------------------
 Input file generated by CHIRIPA (05-May-2021 14:53:13)
 ------------------------------------------------------
 Symbolic Z-matrix:
 Charge =  0 Multiplicity = 1

                         Standard orientation:
 ---------------------------------------------------------------------
 Center     Atomic      Atomic             Coordinates (Angstroms)
 Number     Number       Type             X           Y           Z
 ---------------------------------------------------------------------
      1          6           0        3.349418   -0.471080    0.253297
      2          6           0        2.996962   -1.951281    0.102418
      3          6           0        1.568308   -2.267007    0.546331
      4          1           0        3.215837   -0.174000    1.302509
      5          1           0        2.640844    0.129113   -0.334142
      6          1           0        3.706838   -2.548592    0.688859
      7          1           0        3.131582   -2.244919   -0.946519
      8          1           0        0.845833   -1.696225   -0.045986
      9          1           0        1.424357   -2.001623    1.598685
     10          1           0        1.337542   -3.330529    0.430019
     11          6           0        4.774408   -0.139764   -0.186431
     12          6           0        5.126864    1.340438   -0.035552
     13          6           0        6.555519    1.656164   -0.479464
     14          1           0        5.482983   -0.739957    0.401008
     15          1           0        4.907989   -0.436843   -1.235643
     16          1           0        4.992245    1.634075    1.013385
     17          1           0        4.416989    1.937748   -0.621993
     18          1           0        6.699469    1.390779   -1.531819
     19          1           0        7.277994    1.085381    0.112852
     20          1           0        6.786284    2.719686   -0.363153
     21          6           0       -3.302087    2.745585    0.227719
     22          6           0       -4.442795    2.018569   -0.128309
     23          6           0       -4.383132    0.629180   -0.271787
     24          6           0       -3.160926   -0.003754   -0.050660
     25          6           0       -2.006980    0.692772    0.305079
     26          6           0       -2.089957    2.081537    0.442897
     27          1           0       -3.357491    3.824654    0.336978
     28          1           0       -5.385495    2.531626   -0.296043
     29          1           0       -5.250848    0.041803   -0.546512
     30          1           0       -1.081411    0.153387    0.465716
     31          1           0       -1.202457    2.643575    0.719488
     32          7           0       -3.085422   -1.474308   -0.199557
     33          8           0       -1.996702   -2.008332    0.000801
     34          8           0       -4.116391   -2.065059   -0.513803
 ---------------------------------------------------------------------

 SCF Done:  E(RHF) =  -669.535643215     A.U. after   15 cycles
 E2 =    -0.2091319149D+01 EUMP2 =    -0.67162696236393D+03

 The electronic state is 1-A.
 Alpha  occ. eigenvalues --  -20.60798 -20.60792 -15.85840 -11.31198 -11.27770
 Alpha  occ. eigenvalues --  -11.27754 -11.27514 -11.26786 -11.26773 -11.21688
 Alpha  occ. eigenvalues --  -11.21378 -11.21319 -11.21202 -11.21142 -11.20337
 Alpha  occ. eigenvalues --   -1.59871  -1.39424  -1.19373  -1.08771  -1.08336
 Alpha  occ. eigenvalues --   -1.04774  -1.03338  -0.95773  -0.95595  -0.86771
 Alpha  occ. eigenvalues --   -0.86173  -0.82439  -0.79414  -0.78167  -0.77473
 Alpha  occ. eigenvalues --   -0.72063  -0.71189  -0.70482  -0.65034  -0.64967
 Alpha  occ. eigenvalues --   -0.64777  -0.62128  -0.60729  -0.59165  -0.57380
 Alpha  occ. eigenvalues --   -0.55280  -0.55046  -0.53106  -0.52878  -0.52399
 Alpha  occ. eigenvalues --   -0.52185  -0.49735  -0.48822  -0.48811  -0.47692
 Alpha  occ. eigenvalues --   -0.46456  -0.45678  -0.45619  -0.44817  -0.43594
 Alpha  occ. eigenvalues --   -0.37357  -0.36378
 Alpha virt. eigenvalues --    0.05033   0.11268   0.16527   0.20847   0.22930
 Alpha virt. eigenvalues --    0.24022   0.26022   0.26965   0.27638   0.27775
 Alpha virt. eigenvalues --    0.29265   0.30668   0.31556   0.31838   0.32431

 Mulliken charges:
               1
     1  C   -0.297450
     2  C   -0.301226
     3  C   -0.477951
     4  H    0.146800
     5  H    0.143197
     6  H    0.150702
     7  H    0.152335
     8  H    0.165407
     9  H    0.149446
    10  H    0.168207
    11  C   -0.297691
    12  C   -0.299247
    13  C   -0.475556
    14  H    0.150549
    15  H    0.150609
    16  H    0.150520
    17  H    0.149295
    18  H    0.155772
    19  H    0.155925
    20  H    0.159218
    21  C   -0.170499
    22  C   -0.218808
    23  C   -0.170578
    24  C    0.156582
    25  C   -0.173205
    26  C   -0.220425
    27  H    0.225651
    28  H    0.223452
    29  H    0.275579
    30  H    0.281762
    31  H    0.224281
    32  N    0.490975
    33  O   -0.463414
    34  O   -0.460215
 Sum of Mulliken charges =  -0.00000

 Dipole moment (field-independent basis, Debye):
    X=             -0.3667    Y=              5.0601    Z=              0.4984  Tot=              5.0978
 Quadrupole moment (field-independent basis, Debye-Ang):
   XX=            -89.5620   YY=            -95.1941   ZZ=            -94.6521
   XY=            -17.0415   XZ=              0.1966   YZ=             -0.2317

 Normal termination of Gaussian 16 at Thu May  6 13:41:54 2021.
