 Gaussian 16, Revision A.03,
 Gaussian 16:  EM64L-G16RevA.03 25-Dec-2016

 -------------
 #p 6-31g* mp2
 -------------

 ------------------------------------------------------
 Input file generated by CHIRIPA (05-May-2021 14:53:11)
 ------------------------------------------------------
 Symbolic Z-matrix:
 Charge =  0 Multiplicity = 1

                         Standard orientation:
 ---------------------------------------------------------------------
 Center     Atomic      Atomic             Coordinates (Angstroms)
 Number     Number       Type             X           Y           Z
 ---------------------------------------------------------------------
      1          6           0        3.001922    0.887803   -0.780591
      2          6           0        2.042378    1.980891   -0.308977
      3          6           0        2.153330    3.262061   -1.136071
      4          1           0        4.031694    1.267771   -0.734338
      5          1           0        2.799120    0.662251   -1.836712
      6          1           0        2.246009    2.203337    0.746328
      7          1           0        1.014786    1.598212   -0.356176
      8          1           0        1.929482    3.061564   -2.188826
      9          1           0        3.167700    3.670127   -1.080058
     10          1           0        1.458659    4.030041   -0.781814
     11          6           0        2.902797   -0.399169    0.036480
     12          6           0        3.862341   -1.492256   -0.435134
     13          6           0        3.751390   -2.773427    0.391960
     14          1           0        3.105599   -0.173617    1.092601
     15          1           0        1.873026   -0.779137   -0.009773
     16          1           0        4.889933   -1.109577   -0.387935
     17          1           0        3.658711   -1.714703   -1.490439
     18          1           0        2.737020   -3.181493    0.335947
     19          1           0        3.975238   -2.572929    1.444715
     20          1           0        4.446061   -3.541407    0.037703
     21          6           0       -3.857305   -0.936791   -1.554495
     22          6           0       -4.098284    0.265018   -0.880622
     23          6           0       -3.245675    0.688178    0.143361
     24          6           0       -2.156608   -0.118760    0.469052
     25          6           0       -1.889924   -1.321263   -0.183756
     26          6           0       -2.755836   -1.724706   -1.204529
     27          1           0       -4.524800   -1.257854   -2.348703
     28          1           0       -4.952927    0.878951   -1.150284
     29          1           0       -3.408769    1.614069    0.681454
     30          1           0       -1.029832   -1.911900    0.107462
     31          1           0       -2.566230   -2.658519   -1.726149
     32          7           0       -1.246947    0.318784    1.551397
     33          8           0       -0.294352   -0.410164    1.819416
     34          8           0       -1.503774    1.382395    2.111227
 ---------------------------------------------------------------------

 SCF Done:  E(RHF) =  -669.535653872     A.U. after   15 cycles
 E2 =    -0.2092662653D+01 EUMP2 =    -0.67162831652462D+03

 The electronic state is 1-A.
 Alpha  occ. eigenvalues --  -20.60909 -20.60893 -15.85922 -11.31295 -11.27863
 Alpha  occ. eigenvalues --  -11.27849 -11.27592 -11.26869 -11.26858 -11.21001
 Alpha  occ. eigenvalues --  -11.20836 -11.20678 -11.20570 -11.20487 -11.20414
 Alpha  occ. eigenvalues --   -1.59961  -1.39516  -1.19461  -1.08857  -1.07692
 Alpha  occ. eigenvalues --   -1.04861  -1.02885  -0.95695  -0.95331  -0.86357
 Alpha  occ. eigenvalues --   -0.86260  -0.82527  -0.78929  -0.77649  -0.77385
 Alpha  occ. eigenvalues --   -0.72148  -0.71275  -0.70566  -0.65116  -0.64865
 Alpha  occ. eigenvalues --   -0.64337  -0.62209  -0.60304  -0.58697  -0.56924
 Alpha  occ. eigenvalues --   -0.55360  -0.54640  -0.53190  -0.52953  -0.52065
 Alpha  occ. eigenvalues --   -0.51751  -0.49310  -0.48914  -0.48912  -0.47245
 Alpha  occ. eigenvalues --   -0.45974  -0.45406  -0.44935  -0.44449  -0.43099
 Alpha  occ. eigenvalues --   -0.37438  -0.36462
 Alpha virt. eigenvalues --    0.04924   0.11155   0.16394   0.20976   0.23235
 Alpha virt. eigenvalues --    0.24622   0.26057   0.27480   0.27847   0.28607
 Alpha virt. eigenvalues --    0.28804   0.30938   0.31410   0.32290   0.32479

 Mulliken charges:
               1
     1  C   -0.299311
     2  C   -0.294835
     3  C   -0.476010
     4  H    0.147302
     5  H    0.143246
     6  H    0.161601
     7  H    0.145146
     8  H    0.150475
     9  H    0.153913
    10  H    0.160567
    11  C   -0.298710
    12  C   -0.300117
    13  C   -0.472824
    14  H    0.157720
    15  H    0.155311
    16  H    0.150168
    17  H    0.146014
    18  H    0.150537
    19  H    0.158963
    20  H    0.156402
    21  C   -0.170596
    22  C   -0.218454
    23  C   -0.170865
    24  C    0.156854
    25  C   -0.172197
    26  C   -0.218566
    27  H    0.226039
    28  H    0.223909
    29  H    0.276009
    30  H    0.276343
    31  H    0.223931
    32  N    0.489381
    33  O   -0.458277
    34  O   -0.459067
 Sum of Mulliken charges =  -0.00000

 Dipole moment (field-independent basis, Debye):
    X=             -3.3526    Y=             -1.4993    Z=             -3.5890  Tot=              5.1350
 Quadrupole moment (field-independent basis, Debye-Ang):
   XX=            -79.6119   YY=            -92.5166   ZZ=            -98.9366
   XY=              1.6157   XZ=              7.6093   YZ=              1.3453

 Normal termination of Gaussian 16 at Wed May  5 23:19:04 2021.
