 Gaussian 16, Revision A.03,
 Gaussian 16:  EM64L-G16RevA.03 25-Dec-2016

 -------------
 #p 6-31g* mp2
 -------------

 ------------------------------------------------------
 Input file generated by CHIRIPA (05-May-2021 14:55:20)
 ------------------------------------------------------
 Symbolic Z-matrix:
 Charge =  0 Multiplicity = 1

                         Standard orientation:
 ---------------------------------------------------------------------
 Center     Atomic      Atomic             Coordinates (Angstroms)
 Number     Number       Type             X           Y           Z
 ---------------------------------------------------------------------
      1          6           0       -1.735528    0.852997    2.102413
      2          6           0       -1.757912    1.487022    0.855805
      3          6           0       -2.503552    0.952715   -0.199224
      4          6           0       -3.218259   -0.222305    0.028401
      5          6           0       -3.215983   -0.877356    1.258926
      6          6           0       -2.463352   -0.325092    2.299647
      7          1           0       -1.153582    1.275034    2.916427
      8          1           0       -1.193640    2.402058    0.699752
      9          1           0       -2.538550    1.422948   -1.174454
     10          1           0       -3.788653   -1.788280    1.384164
     11          1           0       -2.447821   -0.819645    3.266715
     12          7           0       -4.011335   -0.797457   -1.080937
     13          8           0       -4.632402   -1.833688   -0.854799
     14          8           0       -3.996865   -0.201139   -2.155569
     15          6           0        3.276596    0.445494   -0.488307
     16          6           0        3.176721    1.963795   -0.337404
     17          6           0        1.819555    2.513589   -0.777425
     18          1           0        3.092194    0.174706   -1.536932
     19          1           0        2.479473   -0.027836    0.101565
     20          1           0        3.974649    2.434066   -0.926279
     21          1           0        3.361572    2.231015    0.710946
     22          1           0        1.013652    2.071579   -0.182657
     23          1           0        1.630212    2.275783   -1.829185
     24          1           0        1.769976    3.600734   -0.661161
     25          6           0        4.627534   -0.119061   -0.052449
     26          6           0        4.727408   -1.637363   -0.203351
     27          6           0        6.084575   -2.187156    0.236669
     28          1           0        5.424657    0.354269   -0.642321
     29          1           0        4.811936    0.151726    0.996176
     30          1           0        4.542558   -1.904583   -1.251703
     31          1           0        3.929480   -2.107633    0.385523
     32          1           0        6.273918   -1.949350    1.288429
     33          1           0        6.890478   -1.745147   -0.358100
     34          1           0        6.134154   -3.274302    0.120405
 ---------------------------------------------------------------------

 SCF Done:  E(RHF) =  -669.535409223     A.U. after   15 cycles
 E2 =    -0.2091315780D+01 EUMP2 =    -0.67162672500285D+03

 The electronic state is 1-A.
 Alpha  occ. eigenvalues --  -20.60768 -20.60763 -15.85822 -11.31200 -11.27780
 Alpha  occ. eigenvalues --  -11.27767 -11.27528 -11.26794 -11.26755 -11.22163
 Alpha  occ. eigenvalues --  -11.21872 -11.21800 -11.21780 -11.21711 -11.21305
 Alpha  occ. eigenvalues --   -1.59843  -1.39396  -1.19380  -1.08838  -1.08772
 Alpha  occ. eigenvalues --   -1.04784  -1.03965  -0.96428  -0.95603  -0.87457
 Alpha  occ. eigenvalues --   -0.86179  -0.82434  -0.80035  -0.78626  -0.77476
 Alpha  occ. eigenvalues --   -0.72040  -0.71166  -0.70485  -0.65486  -0.65030
 Alpha  occ. eigenvalues --   -0.64796  -0.62168  -0.61339  -0.59797  -0.58021
 Alpha  occ. eigenvalues --   -0.55751  -0.55273  -0.53199  -0.53123  -0.52959
 Alpha  occ. eigenvalues --   -0.52684  -0.50348  -0.48801  -0.48794  -0.48336
 Alpha  occ. eigenvalues --   -0.47052  -0.46173  -0.46086  -0.44798  -0.44210
 Alpha  occ. eigenvalues --   -0.37359  -0.36363
 Alpha virt. eigenvalues --    0.05055   0.11152   0.16477   0.20946   0.22567
 Alpha virt. eigenvalues --    0.23973   0.26014   0.26424   0.27231   0.28296
 Alpha virt. eigenvalues --    0.28574   0.30465   0.31263   0.31404   0.31901

 Mulliken charges:
               1
     1  C   -0.172664
     2  C   -0.218932
     3  C   -0.171534
     4  C    0.158444
     5  C   -0.170605
     6  C   -0.218585
     7  H    0.225715
     8  H    0.227528
     9  H    0.276408
    10  H    0.275724
    11  H    0.223420
    12  N    0.488120
    13  O   -0.460475
    14  O   -0.460174
    15  C   -0.299049
    16  C   -0.298852
    17  C   -0.483124
    18  H    0.152456
    19  H    0.149548
    20  H    0.154680
    21  H    0.149877
    22  H    0.151405
    23  H    0.159954
    24  H    0.158879
    25  C   -0.298547
    26  C   -0.299936
    27  C   -0.475906
    28  H    0.150555
    29  H    0.148398
    30  H    0.153775
    31  H    0.151718
    32  H    0.154506
    33  H    0.155810
    34  H    0.161465
 Sum of Mulliken charges =  -0.00000

 Dipole moment (field-independent basis, Debye):
    X=              2.8572    Y=              1.9753    Z=              3.8674  Tot=              5.1983
 Quadrupole moment (field-independent basis, Debye-Ang):
   XX=           -113.5116   YY=            -93.6091   ZZ=            -92.2620
   XY=             -5.4724   XZ=            -14.3466   YZ=             -3.3870

 Normal termination of Gaussian 16 at Thu May  6 10:48:25 2021.
