 Gaussian 16, Revision A.03,
 Gaussian 16:  EM64L-G16RevA.03 25-Dec-2016

 -------------
 #p 6-31g* mp2
 -------------

 ------------------------------------------------------
 Input file generated by CHIRIPA (05-May-2021 14:51:14)
 ------------------------------------------------------
 Symbolic Z-matrix:
 Charge =  0 Multiplicity = 1

                         Standard orientation:
 ---------------------------------------------------------------------
 Center     Atomic      Atomic             Coordinates (Angstroms)
 Number     Number       Type             X           Y           Z
 ---------------------------------------------------------------------
      1          6           0        3.649549   -0.096808    0.232448
      2          6           0        4.309507   -1.041609   -0.772436
      3          6           0        5.033162   -2.208422   -0.099632
      4          1           0        4.414832    0.291122    0.918595
      5          1           0        2.937985   -0.665398    0.847083
      6          1           0        5.018601   -0.471131   -1.385914
      7          1           0        3.542595   -1.427185   -1.456390
      8          1           0        4.334000   -2.802268    0.497964
      9          1           0        5.818393   -1.840782    0.568840
     10          1           0        5.497662   -2.871233   -0.836369
     11          6           0        2.922119    1.074696   -0.424937
     12          6           0        2.262162    2.019497    0.579947
     13          6           0        1.538506    3.186310   -0.092857
     14          1           0        3.633684    1.643286   -1.039571
     15          1           0        2.156836    0.686766   -1.111084
     16          1           0        3.029073    2.405073    1.263901
     17          1           0        1.553067    1.449019    1.193425
     18          1           0        0.753276    2.818670   -0.761329
     19          1           0        2.237668    3.780156   -0.690453
     20          1           0        1.074006    3.849121    0.643880
     21          6           0       -2.572386   -0.594590   -0.155276
     22          6           0       -1.567652   -0.862451    0.965771
     23          6           0       -0.144751   -1.071752    0.446791
     24          1           0       -2.558035   -1.436601   -0.860795
     25          1           0       -2.253039    0.292084   -0.720272
     26          1           0       -1.889543   -1.747543    1.529343
     27          1           0       -1.584535   -0.019793    1.668807
     28          1           0        0.200566   -0.187207   -0.098129
     29          1           0       -0.106175   -1.924774   -0.238385
     30          1           0        0.557080   -1.261683    1.264848
     31          6           0       -3.999282   -0.383298    0.347765
     32          6           0       -5.004016   -0.115437   -0.773282
     33          6           0       -6.426917    0.093864   -0.254302
     34          1           0       -4.318630   -1.269973    0.912760
     35          1           0       -4.013633    0.458713    1.053284
     36          1           0       -4.987134   -0.958095   -1.476318
     37          1           0       -4.682125    0.769654   -1.336855
     38          1           0       -6.465493    0.946886    0.430873
     39          1           0       -6.772235   -0.790680    0.290618
     40          1           0       -7.128749    0.283794   -1.072360
 ---------------------------------------------------------------------

 SCF Done:  E(RHF) =  -470.731927171     A.U. after   11 cycles
 E2 =    -0.1584510125D+01 EUMP2 =    -0.47231643729613D+03

 The electronic state is 1-A.
 Alpha  occ. eigenvalues --  -11.21671 -11.21630 -11.21532 -11.21522 -11.21457
 Alpha  occ. eigenvalues --  -11.21393 -11.21314 -11.21240 -11.21132 -11.21091
 Alpha  occ. eigenvalues --  -11.21089 -11.21016  -1.08497  -1.08356  -1.03601
 Alpha  occ. eigenvalues --   -1.03472  -0.96068  -0.95914  -0.87083  -0.86942
 Alpha  occ. eigenvalues --   -0.79665  -0.79542  -0.78294  -0.78183  -0.65300
 Alpha  occ. eigenvalues --   -0.64902  -0.61211  -0.60670  -0.59428  -0.59296
 Alpha  occ. eigenvalues --   -0.57677  -0.57521  -0.55388  -0.55172  -0.52766
 Alpha  occ. eigenvalues --   -0.52612  -0.52476  -0.52345  -0.50162  -0.49691
 Alpha  occ. eigenvalues --   -0.48008  -0.47830  -0.46683  -0.46580  -0.45893
 Alpha  occ. eigenvalues --   -0.45780  -0.45646  -0.45556  -0.43791  -0.43707
 Alpha virt. eigenvalues --    0.20611   0.22913   0.23730   0.24431   0.26145
 Alpha virt. eigenvalues --    0.26339   0.26728   0.27907   0.28056   0.29544
 Alpha virt. eigenvalues --    0.30568   0.31002   0.31625   0.31743   0.32323

 Mulliken charges:
               1
     1  C   -0.302213
     2  C   -0.299597
     3  C   -0.475670
     4  H    0.148869
     5  H    0.155491
     6  H    0.151442
     7  H    0.152403
     8  H    0.155013
     9  H    0.154899
    10  H    0.159953
    11  C   -0.300747
    12  C   -0.304556
    13  C   -0.475922
    14  H    0.149924
    15  H    0.150852
    16  H    0.152342
    17  H    0.156543
    18  H    0.153590
    19  H    0.155671
    20  H    0.160078
    21  C   -0.298679
    22  C   -0.300489
    23  C   -0.483229
    24  H    0.149779
    25  H    0.149362
    26  H    0.152231
    27  H    0.152402
    28  H    0.162983
    29  H    0.155159
    30  H    0.161459
    31  C   -0.298337
    32  C   -0.299711
    33  C   -0.475743
    34  H    0.149659
    35  H    0.149892
    36  H    0.151955
    37  H    0.152066
    38  H    0.155289
    39  H    0.155208
    40  H    0.160377
 Sum of Mulliken charges =  -0.00000

 Dipole moment (field-independent basis, Debye):
    X=             -0.0350    Y=             -0.0188    Z=              0.0112  Tot=              0.0413
 Quadrupole moment (field-independent basis, Debye-Ang):
   XX=            -85.6416   YY=            -84.3751   ZZ=            -84.9611
   XY=              1.3316   XZ=              0.1181   YZ=              0.3821

 Normal termination of Gaussian 16 at Wed May  5 23:16:45 2021.
