 Gaussian 16, Revision A.03,
 Gaussian 16:  EM64L-G16RevA.03 25-Dec-2016

 -------------
 #p 6-31g* mp2
 -------------

 ------------------------------------------------------
 Input file generated by CHIRIPA (05-May-2021 14:55:21)
 ------------------------------------------------------
 Symbolic Z-matrix:
 Charge =  0 Multiplicity = 1

                         Standard orientation:
 ---------------------------------------------------------------------
 Center     Atomic      Atomic             Coordinates (Angstroms)
 Number     Number       Type             X           Y           Z
 ---------------------------------------------------------------------
      1          6           0        5.264541   -1.153784    0.096988
      2          6           0        4.166670   -1.788162    0.687551
      3          6           0        2.894020   -1.213307    0.620838
      4          6           0        2.754720    0.002179   -0.047353
      5          6           0        3.829059    0.658692   -0.645747
      6          6           0        5.092535    0.065468   -0.566607
      7          1           0        6.249603   -1.607480    0.153639
      8          1           0        4.297286   -2.735116    1.203558
      9          1           0        2.026882   -1.682833    1.069208
     10          1           0        3.667596    1.601966   -1.153272
     11          1           0        5.943352    0.560398   -1.026171
     12          7           0        1.412278    0.620475   -0.124557
     13          8           0        1.315944    1.691907   -0.719023
     14          8           0        0.481825    0.021956    0.410858
     15          6           0       -3.165250    0.514783    0.181554
     16          6           0       -3.375692    2.026022    0.280838
     17          6           0       -2.078175    2.786767    0.555633
     18          1           0       -2.716315    0.151328    1.116061
     19          1           0       -2.439680    0.304277   -0.616338
     20          1           0       -4.101692    2.233530    1.077380
     21          1           0       -3.824355    2.385891   -0.653940
     22          1           0       -1.350873    2.609096   -0.243158
     23          1           0       -1.629786    2.455869    1.498000
     24          1           0       -2.251667    3.865310    0.622758
     25          6           0       -4.453233   -0.259490   -0.092904
     26          6           0       -4.242792   -1.770729   -0.192189
     27          6           0       -5.540308   -2.531473   -0.466984
     28          1           0       -5.178803   -0.048983    0.704987
     29          1           0       -4.902169    0.103964   -1.027411
     30          1           0       -3.794129   -2.130599    0.742589
     31          1           0       -3.516791   -1.978236   -0.988731
     32          1           0       -5.988698   -2.200575   -1.409350
     33          1           0       -6.267610   -2.353803    0.331806
     34          1           0       -5.366817   -3.610017   -0.534108
 ---------------------------------------------------------------------

 SCF Done:  E(RHF) =  -669.536348643     A.U. after   15 cycles
 E2 =    -0.2092371580D+01 EUMP2 =    -0.67162872022292D+03

 The electronic state is 1-A.
 Alpha  occ. eigenvalues --  -20.61085 -20.61078 -15.86080 -11.31370 -11.27923
 Alpha  occ. eigenvalues --  -11.27920 -11.27654 -11.26920 -11.26911 -11.20595
 Alpha  occ. eigenvalues --  -11.20299 -11.20110 -11.19907 -11.19556 -11.18881
 Alpha  occ. eigenvalues --   -1.60119  -1.39676  -1.19530  -1.08942  -1.06993
 Alpha  occ. eigenvalues --   -1.04919  -1.02097  -0.95789  -0.94521  -0.86322
 Alpha  occ. eigenvalues --   -0.85529  -0.82625  -0.78233  -0.77683  -0.76676
 Alpha  occ. eigenvalues --   -0.72285  -0.71424  -0.70638  -0.65185  -0.64922
 Alpha  occ. eigenvalues --   -0.63649  -0.62266  -0.59514  -0.57987  -0.56121
 Alpha  occ. eigenvalues --   -0.55421  -0.53813  -0.53254  -0.53009  -0.51285
 Alpha  occ. eigenvalues --   -0.50926  -0.49196  -0.49072  -0.48346  -0.46441
 Alpha  occ. eigenvalues --   -0.45282  -0.45106  -0.44196  -0.44032  -0.42339
 Alpha  occ. eigenvalues --   -0.37507  -0.36518
 Alpha virt. eigenvalues --    0.04837   0.11138   0.16343   0.21274   0.24146
 Alpha virt. eigenvalues --    0.25806   0.27201   0.28058   0.28131   0.28917
 Alpha virt. eigenvalues --    0.29507   0.30873   0.32358   0.32795   0.32915

 Mulliken charges:
               1
     1  C   -0.170424
     2  C   -0.218595
     3  C   -0.170784
     4  C    0.158486
     5  C   -0.170547
     6  C   -0.218586
     7  H    0.226271
     8  H    0.224110
     9  H    0.276043
    10  H    0.276014
    11  H    0.224087
    12  N    0.489369
    13  O   -0.458657
    14  O   -0.458066
    15  C   -0.294321
    16  C   -0.300207
    17  C   -0.478984
    18  H    0.152502
    19  H    0.159947
    20  H    0.142944
    21  H    0.145020
    22  H    0.180941
    23  H    0.152502
    24  H    0.146641
    25  C   -0.298198
    26  C   -0.297503
    27  C   -0.474676
    28  H    0.144601
    29  H    0.145447
    30  H    0.150313
    31  H    0.151402
    32  H    0.153543
    33  H    0.153290
    34  H    0.156077
 Sum of Mulliken charges =  -0.00000

 Dipole moment (field-independent basis, Debye):
    X=              5.2810    Y=             -2.2341    Z=              0.2186  Tot=              5.7383
 Quadrupole moment (field-independent basis, Debye-Ang):
   XX=            -71.1128   YY=            -93.5016   ZZ=            -93.2409
   XY=             -4.8496   XZ=             -0.8431   YZ=             -2.7976

 Normal termination of Gaussian 16 at Wed May  5 17:25:37 2021.
