 Gaussian 16, Revision A.03,
 Gaussian 16:  EM64L-G16RevA.03 25-Dec-2016

 -------------
 #p 6-31g* mp2
 -------------

 ------------------------------------------------------
 Input file generated by CHIRIPA (05-May-2021 14:57:24)
 ------------------------------------------------------
 Symbolic Z-matrix:
 Charge =  0 Multiplicity = 1

                         Standard orientation:
 ---------------------------------------------------------------------
 Center     Atomic      Atomic             Coordinates (Angstroms)
 Number     Number       Type             X           Y           Z
 ---------------------------------------------------------------------
      1          6           0       -5.429071    1.705728    0.744131
      2          6           0       -4.052195    1.931384    0.843184
      3          6           0       -3.141446    0.989607    0.355187
      4          6           0       -3.644618   -0.172034   -0.228508
      5          6           0       -5.010672   -0.425671   -0.341878
      6          6           0       -5.903080    0.529993    0.152958
      7          1           0       -6.129438    2.442717    1.125875
      8          1           0       -3.681215    2.843571    1.301806
      9          1           0       -2.070431    1.138881    0.418917
     10          1           0       -5.350365   -1.344508   -0.804225
     11          1           0       -6.971847    0.352081    0.074675
     12          7           0       -2.690158   -1.176402   -0.748749
     13          8           0       -3.158880   -2.191767   -1.258621
     14          8           0       -1.491402   -0.929242   -0.636791
     15          6           0        5.422112    1.696277   -0.798283
     16          6           0        5.896001    0.491002   -0.269830
     17          6           0        5.007430   -0.452575    0.254241
     18          6           0        3.645291   -0.156859    0.233744
     19          6           0        3.142345    1.034951   -0.285797
     20          6           0        4.049216    1.963933   -0.804569
     21          1           0        6.119483    2.423601   -1.203335
     22          1           0        6.961682    0.280451   -0.263631
     23          1           0        5.347123   -1.393629    0.669502
     24          1           0        2.074456    1.216535   -0.278103
     25          1           0        3.678340    2.899130   -1.214327
     26          7           0        2.694912   -1.148056    0.785749
     27          8           0        1.499566   -0.863635    0.755979
     28          8           0        3.163349   -2.190611    1.237729
 ---------------------------------------------------------------------

 SCF Done:  E(RHF) =  -868.335677838     A.U. after   16 cycles
 E2 =    -0.2600238705D+01 EUMP2 =    -0.87093591654234D+03

 The electronic state is 1-A.
 Alpha  occ. eigenvalues --  -20.59992 -20.59982 -20.59899 -20.59889 -15.84998
 Alpha  occ. eigenvalues --  -15.84987 -11.30652 -11.30643 -11.27261 -11.27257
 Alpha  occ. eigenvalues --  -11.27255 -11.27243 -11.27067 -11.27062 -11.26351
 Alpha  occ. eigenvalues --  -11.26342 -11.26336 -11.26330  -1.59021  -1.59012
 Alpha  occ. eigenvalues --   -1.38574  -1.38543  -1.18856  -1.18848  -1.08204
 Alpha  occ. eigenvalues --   -1.08190  -1.04305  -1.04296  -0.95010  -0.94950
 Alpha  occ. eigenvalues --   -0.85689  -0.85680  -0.81874  -0.81741  -0.76874
 Alpha  occ. eigenvalues --   -0.76740  -0.71380  -0.71013  -0.70360  -0.70335
 Alpha  occ. eigenvalues --   -0.69975  -0.69947  -0.64526  -0.64467  -0.64319
 Alpha  occ. eigenvalues --   -0.64308  -0.61654  -0.61638  -0.54805  -0.54797
 Alpha  occ. eigenvalues --   -0.52616  -0.52609  -0.52408  -0.52394  -0.48048
 Alpha  occ. eigenvalues --   -0.47999  -0.47947  -0.47902  -0.43939  -0.43843
 Alpha  occ. eigenvalues --   -0.36855  -0.36847  -0.35921  -0.35913
 Alpha virt. eigenvalues --    0.05702   0.05769   0.11731   0.11738   0.17133
 Alpha virt. eigenvalues --    0.17204   0.21578   0.21963   0.27255   0.27817
 Alpha virt. eigenvalues --    0.28290   0.29101   0.30865   0.31634   0.32455

 Mulliken charges:
               1
     1  C   -0.171686
     2  C   -0.218620
     3  C   -0.170630
     4  C    0.159009
     5  C   -0.171320
     6  C   -0.218604
     7  H    0.223348
     8  H    0.220594
     9  H    0.276739
    10  H    0.275138
    11  H    0.221716
    12  N    0.488058
    13  O   -0.464517
    14  O   -0.449298
    15  C   -0.171676
    16  C   -0.218555
    17  C   -0.171245
    18  C    0.159320
    19  C   -0.170093
    20  C   -0.218537
    21  H    0.223395
    22  H    0.221797
    23  H    0.275256
    24  H    0.275522
    25  H    0.220519
    26  N    0.488278
    27  O   -0.449892
    28  O   -0.464017
 Sum of Mulliken charges =  -0.00000

 Dipole moment (field-independent basis, Debye):
    X=             -0.0019    Y=              6.8986    Z=             -0.1021  Tot=              6.8994
 Quadrupole moment (field-independent basis, Debye-Ang):
   XX=            -52.5061   YY=           -104.9069   ZZ=           -107.7107
   XY=             -0.2613   XZ=            -10.2451   YZ=              0.1637

 Normal termination of Gaussian 16 at Thu May  6 14:39:45 2021.
