 Gaussian 16, Revision A.03,
 Gaussian 16:  EM64L-G16RevA.03 25-Dec-2016

 -------------
 #p 6-31g* mp2
 -------------

 ------------------------------------------------------
 Input file generated by CHIRIPA (05-May-2021 14:55:21)
 ------------------------------------------------------
 Symbolic Z-matrix:
 Charge =  0 Multiplicity = 1

                         Standard orientation:
 ---------------------------------------------------------------------
 Center     Atomic      Atomic             Coordinates (Angstroms)
 Number     Number       Type             X           Y           Z
 ---------------------------------------------------------------------
      1          6           0       -0.620235   -1.491570    0.386148
      2          6           0       -1.554130   -1.385845    1.422093
      3          6           0       -2.802170   -0.797902    1.195665
      4          6           0       -3.084334   -0.324162   -0.084664
      5          6           0       -2.174968   -0.414928   -1.137329
      6          6           0       -0.933083   -1.006629   -0.888011
      7          1           0        0.346882   -1.949757    0.570933
      8          1           0       -1.313900   -1.761585    2.412625
      9          1           0       -3.543776   -0.703198    1.979546
     10          1           0       -2.443224   -0.031193   -2.114163
     11          1           0       -0.209758   -1.087388   -1.694438
     12          7           0       -4.402320    0.300256   -0.336489
     13          8           0       -4.626607    0.709873   -1.473391
     14          8           0       -5.186114    0.368234    0.607800
     15          6           0        4.425689    0.481570    0.144620
     16          6           0        5.011712   -0.758277   -0.531652
     17          6           0        6.524671   -0.874576   -0.343971
     18          1           0        4.916592    1.377895   -0.258570
     19          1           0        4.661804    0.451684    1.217350
     20          1           0        4.773371   -0.726753   -1.602547
     21          1           0        4.519221   -1.651742   -0.126944
     22          1           0        6.777690   -0.931184    0.719691
     23          1           0        7.033284   -0.000940   -0.764294
     24          1           0        6.922681   -1.767864   -0.835382
     25          6           0        2.914122    0.611737   -0.034129
     26          6           0        2.328100    1.851584    0.642142
     27          6           0        0.815141    1.967883    0.454460
     28          1           0        2.678007    0.641624   -1.106861
     29          1           0        2.423219   -0.284588    0.369059
     30          1           0        2.820590    2.745049    0.237434
     31          1           0        2.566441    1.820060    1.713036
     32          1           0        0.306528    1.094246    0.874784
     33          1           0        0.562122    2.024491   -0.609202
     34          1           0        0.417130    2.861171    0.945871
 ---------------------------------------------------------------------

 SCF Done:  E(RHF) =  -669.533910217     A.U. after   15 cycles
 E2 =    -0.2094026822D+01 EUMP2 =    -0.67162793703834D+03

 The electronic state is 1-A.
 Alpha  occ. eigenvalues --  -20.60772 -20.60766 -15.85825 -11.31215 -11.27793
 Alpha  occ. eigenvalues --  -11.27755 -11.27484 -11.26810 -11.26747 -11.22307
 Alpha  occ. eigenvalues --  -11.22213 -11.22077 -11.22039 -11.21640 -11.21218
 Alpha  occ. eigenvalues --   -1.59846  -1.39399  -1.19391  -1.09100  -1.08780
 Alpha  occ. eigenvalues --   -1.04788  -1.04073  -0.96511  -0.95614  -0.87525
 Alpha  occ. eigenvalues --   -0.86184  -0.82441  -0.80149  -0.78948  -0.77479
 Alpha  occ. eigenvalues --   -0.72044  -0.71168  -0.70506  -0.65731  -0.65035
 Alpha  occ. eigenvalues --   -0.64786  -0.62131  -0.61485  -0.59897  -0.58176
 Alpha  occ. eigenvalues --   -0.55861  -0.55288  -0.53552  -0.53158  -0.52876
 Alpha  occ. eigenvalues --   -0.52560  -0.50428  -0.48805  -0.48797  -0.48405
 Alpha  occ. eigenvalues --   -0.47184  -0.46447  -0.46405  -0.44800  -0.44364
 Alpha  occ. eigenvalues --   -0.37253  -0.36365
 Alpha virt. eigenvalues --    0.05005   0.11205   0.16376   0.20092   0.22678
 Alpha virt. eigenvalues --    0.23977   0.24931   0.25992   0.27484   0.27783
 Alpha virt. eigenvalues --    0.29467   0.30411   0.31329   0.31469   0.31646

 Mulliken charges:
               1
     1  C   -0.176634
     2  C   -0.218322
     3  C   -0.170659
     4  C    0.159718
     5  C   -0.171044
     6  C   -0.211682
     7  H    0.227197
     8  H    0.223647
     9  H    0.275848
    10  H    0.275572
    11  H    0.224707
    12  N    0.488065
    13  O   -0.460251
    14  O   -0.460385
    15  C   -0.298218
    16  C   -0.299378
    17  C   -0.475924
    18  H    0.152979
    19  H    0.150673
    20  H    0.151651
    21  H    0.147240
    22  H    0.156088
    23  H    0.157220
    24  H    0.161311
    25  C   -0.298390
    26  C   -0.299944
    27  C   -0.480565
    28  H    0.147234
    29  H    0.139347
    30  H    0.153950
    31  H    0.151563
    32  H    0.163763
    33  H    0.151905
    34  H    0.161720
 Sum of Mulliken charges =  -0.00000

 Dipole moment (field-independent basis, Debye):
    X=              4.6548    Y=             -2.1689    Z=              0.8842  Tot=              5.2109
 Quadrupole moment (field-independent basis, Debye-Ang):
   XX=           -124.5193   YY=            -93.7727   ZZ=            -89.6812
   XY=              5.9836   XZ=             -4.7617   YZ=             -1.4423

 Normal termination of Gaussian 16 at Wed May  5 18:58:03 2021.
