 Gaussian 16, Revision A.03,
 Gaussian 16:  EM64L-G16RevA.03 25-Dec-2016

 -------------
 #p 6-31g* mp2
 -------------

 ------------------------------------------------------
 Input file generated by CHIRIPA (05-May-2021 14:55:18)
 ------------------------------------------------------
 Symbolic Z-matrix:
 Charge =  0 Multiplicity = 1

                         Standard orientation:
 ---------------------------------------------------------------------
 Center     Atomic      Atomic             Coordinates (Angstroms)
 Number     Number       Type             X           Y           Z
 ---------------------------------------------------------------------
      1          6           0        1.375461    1.765400   -1.275518
      2          6           0        0.778842    0.503246   -1.188719
      3          6           0        1.470265   -0.571449   -0.621698
      4          6           0        2.762547   -0.347426   -0.149353
      5          6           0        3.384095    0.898267   -0.221572
      6          6           0        2.673894    1.958542   -0.792519
      7          1           0        0.831054    2.594648   -1.717518
      8          1           0       -0.229411    0.350328   -1.563001
      9          1           0        1.032314   -1.558998   -0.541918
     10          1           0        4.390516    1.019916    0.160184
     11          1           0        3.139745    2.937654   -0.858609
     12          7           0        3.504465   -1.477525    0.453005
     13          8           0        4.641833   -1.254167    0.861836
     14          8           0        2.934564   -2.565255    0.504896
     15          6           0       -4.008025   -0.065706   -0.020072
     16          6           0       -4.102392   -1.591481    0.012948
     17          6           0       -5.365130   -2.120534   -0.667782
     18          1           0       -4.895297    0.360825    0.467538
     19          1           0       -4.032056    0.273662   -1.064891
     20          1           0       -4.076796   -1.927958    1.057336
     21          1           0       -3.214699   -2.014432   -0.474628
     22          1           0       -5.394101   -1.813205   -1.718167
     23          1           0       -6.261096   -1.726240   -0.177501
     24          1           0       -5.412300   -3.213421   -0.632636
     25          6           0       -2.751066    0.478307    0.656562
     26          6           0       -2.656699    2.004082    0.623541
     27          6           0       -1.393961    2.533135    1.304271
     28          1           0       -2.727035    0.138938    1.701380
     29          1           0       -1.863794    0.051776    0.168951
     30          1           0       -3.544391    2.427033    1.111117
     31          1           0       -2.682295    2.340559   -0.420846
     32          1           0       -0.497995    2.138841    0.813990
     33          1           0       -1.364990    2.225806    2.354657
     34          1           0       -1.346792    3.626021    1.269126
 ---------------------------------------------------------------------

 SCF Done:  E(RHF) =  -669.533895071     A.U. after   15 cycles
 E2 =    -0.2094070111D+01 EUMP2 =    -0.67162796518160D+03

 The electronic state is 1-A.
 Alpha  occ. eigenvalues --  -20.60817 -20.60811 -15.85872 -11.31275 -11.27852
 Alpha  occ. eigenvalues --  -11.27848 -11.27585 -11.26866 -11.26847 -11.22257
 Alpha  occ. eigenvalues --  -11.22103 -11.22028 -11.21948 -11.21465 -11.21445
 Alpha  occ. eigenvalues --   -1.59891  -1.39444  -1.19467  -1.09044  -1.08844
 Alpha  occ. eigenvalues --   -1.04876  -1.04057  -0.96498  -0.95674  -0.87508
 Alpha  occ. eigenvalues --   -0.86271  -0.82508  -0.80128  -0.78851  -0.77540
 Alpha  occ. eigenvalues --   -0.72090  -0.71215  -0.70565  -0.65813  -0.65116
 Alpha  occ. eigenvalues --   -0.64792  -0.62233  -0.61452  -0.59863  -0.58111
 Alpha  occ. eigenvalues --   -0.55882  -0.55333  -0.53323  -0.53165  -0.53006
 Alpha  occ. eigenvalues --   -0.52766  -0.50409  -0.48853  -0.48842  -0.48416
 Alpha  occ. eigenvalues --   -0.47176  -0.46359  -0.46316  -0.44841  -0.44330
 Alpha  occ. eigenvalues --   -0.37355  -0.36424
 Alpha virt. eigenvalues --    0.04955   0.11099   0.16305   0.19492   0.22978
 Alpha virt. eigenvalues --    0.23972   0.25315   0.26389   0.27437   0.28518
 Alpha virt. eigenvalues --    0.29334   0.31126   0.31197   0.31384   0.31730

 Mulliken charges:
               1
     1  C   -0.172904
     2  C   -0.218483
     3  C   -0.170635
     4  C    0.158698
     5  C   -0.170459
     6  C   -0.217763
     7  H    0.227865
     8  H    0.226498
     9  H    0.276239
    10  H    0.276202
    11  H    0.224337
    12  N    0.488092
    13  O   -0.460162
    14  O   -0.459989
    15  C   -0.298764
    16  C   -0.298969
    17  C   -0.476007
    18  H    0.152589
    19  H    0.145887
    20  H    0.155469
    21  H    0.147870
    22  H    0.154390
    23  H    0.156551
    24  H    0.162810
    25  C   -0.301538
    26  C   -0.299491
    27  C   -0.486109
    28  H    0.155042
    29  H    0.143337
    30  H    0.155468
    31  H    0.143586
    32  H    0.164611
    33  H    0.158625
    34  H    0.157106
 Sum of Mulliken charges =  -0.00000

 Dipole moment (field-independent basis, Debye):
    X=             -2.5800    Y=              3.9318    Z=             -2.0646  Tot=              5.1359
 Quadrupole moment (field-independent basis, Debye-Ang):
   XX=           -106.4349   YY=            -96.5171   ZZ=            -94.0998
   XY=             14.5993   XZ=             -5.8954   YZ=              0.4040

 Normal termination of Gaussian 16 at Thu May  6 07:39:01 2021.
