 Gaussian 16, Revision A.03,
 Gaussian 16:  EM64L-G16RevA.03 25-Dec-2016

 -------------
 #p 6-31g* mp2
 -------------

 ------------------------------------------------------
 Input file generated by CHIRIPA (05-May-2021 14:51:12)
 ------------------------------------------------------
 Symbolic Z-matrix:
 Charge =  0 Multiplicity = 1

                         Standard orientation:
 ---------------------------------------------------------------------
 Center     Atomic      Atomic             Coordinates (Angstroms)
 Number     Number       Type             X           Y           Z
 ---------------------------------------------------------------------
      1          6           0       -4.240647    0.136934    0.337812
      2          6           0       -5.474595   -0.216623   -0.493064
      3          6           0       -6.783266    0.158583    0.202921
      4          1           0       -4.301145   -0.374332    1.308322
      5          1           0       -4.247522    1.214776    0.551366
      6          1           0       -5.464672   -1.293241   -0.706161
      7          1           0       -5.411058    0.295393   -1.461784
      8          1           0       -6.819303    1.234651    0.401362
      9          1           0       -6.873221   -0.363009    1.161279
     10          1           0       -7.652497   -0.102929   -0.408561
     11          6           0       -2.924677   -0.232092   -0.344663
     12          6           0       -1.690729    0.121465    0.486213
     13          6           0       -0.382058   -0.253741   -0.209772
     14          1           0       -2.917802   -1.309933   -0.558217
     15          1           0       -2.864179    0.279175   -1.315173
     16          1           0       -1.754266   -0.390550    1.454933
     17          1           0       -1.700652    1.198084    0.699310
     18          1           0       -0.292103    0.267851   -1.168130
     19          1           0       -0.346021   -1.329809   -0.408213
     20          1           0        0.487173    0.007772    0.401710
     21          6           0        3.611827   -0.623758   -0.359739
     22          6           0        3.629563   -1.824747    0.586461
     23          6           0        3.688003   -3.160655   -0.154976
     24          1           0        2.748422   -0.708752   -1.033724
     25          1           0        4.508104   -0.652832   -0.994750
     26          1           0        2.734214   -1.792657    1.220446
     27          1           0        4.492916   -1.736785    1.258398
     28          1           0        4.588856   -3.218353   -0.774440
     29          1           0        2.820160   -3.274543   -0.812608
     30          1           0        3.699839   -4.005635    0.540530
     31          6           0        3.553497    0.718916    0.366591
     32          6           0        3.535761    1.919904   -0.579610
     33          6           0        3.477320    3.255813    0.161827
     34          1           0        2.657221    0.747990    1.001601
     35          1           0        4.416901    0.803909    1.040574
     36          1           0        2.672407    1.831943   -1.251547
     37          1           0        4.431111    1.887815   -1.213595
     38          1           0        4.345164    3.369701    0.819458
     39          1           0        2.576467    3.313511    0.781291
     40          1           0        3.465485    4.100793   -0.533679
 ---------------------------------------------------------------------

 SCF Done:  E(RHF) =  -470.733024263     A.U. after   11 cycles
 E2 =    -0.1583490219D+01 EUMP2 =    -0.47231651448252D+03

 The electronic state is 1-A.
 Alpha  occ. eigenvalues --  -11.21676 -11.21631 -11.21561 -11.21541 -11.21452
 Alpha  occ. eigenvalues --  -11.21390 -11.21348 -11.21267 -11.21157 -11.21094
 Alpha  occ. eigenvalues --  -11.21049 -11.21026  -1.08486  -1.08376  -1.03587
 Alpha  occ. eigenvalues --   -1.03483  -0.96061  -0.95917  -0.87062  -0.86951
 Alpha  occ. eigenvalues --   -0.79658  -0.79542  -0.78293  -0.78195  -0.65110
 Alpha  occ. eigenvalues --   -0.65072  -0.61023  -0.60841  -0.59403  -0.59301
 Alpha  occ. eigenvalues --   -0.57675  -0.57529  -0.55331  -0.55237  -0.52714
 Alpha  occ. eigenvalues --   -0.52633  -0.52471  -0.52336  -0.50002  -0.49855
 Alpha  occ. eigenvalues --   -0.47993  -0.47858  -0.46681  -0.46578  -0.45874
 Alpha  occ. eigenvalues --   -0.45756  -0.45736  -0.45595  -0.43812  -0.43712
 Alpha virt. eigenvalues --    0.20470   0.23016   0.24051   0.24754   0.25843
 Alpha virt. eigenvalues --    0.26254   0.26639   0.27753   0.27761   0.29534
 Alpha virt. eigenvalues --    0.30506   0.31377   0.31853   0.31887   0.32341

 Mulliken charges:
               1
     1  C   -0.298292
     2  C   -0.299671
     3  C   -0.475735
     4  H    0.149743
     5  H    0.149623
     6  H    0.151995
     7  H    0.151999
     8  H    0.155240
     9  H    0.155232
    10  H    0.160364
    11  C   -0.298701
    12  C   -0.300035
    13  C   -0.483276
    14  H    0.149661
    15  H    0.149744
    16  H    0.152134
    17  H    0.152044
    18  H    0.155210
    19  H    0.155382
    20  H    0.168053
    21  C   -0.301869
    22  C   -0.300098
    23  C   -0.475793
    24  H    0.155307
    25  H    0.149378
    26  H    0.152324
    27  H    0.151517
    28  H    0.155032
    29  H    0.155332
    30  H    0.159860
    31  C   -0.301265
    32  C   -0.300377
    33  C   -0.475665
    34  H    0.150597
    35  H    0.149976
    36  H    0.153050
    37  H    0.151913
    38  H    0.155111
    39  H    0.154909
    40  H    0.160046
 Sum of Mulliken charges =  -0.00000

 Dipole moment (field-independent basis, Debye):
    X=             -0.0297    Y=             -0.0013    Z=             -0.0126  Tot=              0.0323
 Quadrupole moment (field-independent basis, Debye-Ang):
   XX=            -84.8665   YY=            -85.1158   ZZ=            -84.8957
   XY=              0.3288   XZ=              0.3604   YZ=             -0.9044

 Normal termination of Gaussian 16 at Wed May  5 18:17:36 2021.
