 Gaussian 16, Revision A.03,
 Gaussian 16:  EM64L-G16RevA.03 25-Dec-2016

 -------------
 #p 6-31g* mp2
 -------------

 ------------------------------------------------------
 Input file generated by CHIRIPA (05-May-2021 14:51:14)
 ------------------------------------------------------
 Symbolic Z-matrix:
 Charge =  0 Multiplicity = 1

                         Standard orientation:
 ---------------------------------------------------------------------
 Center     Atomic      Atomic             Coordinates (Angstroms)
 Number     Number       Type             X           Y           Z
 ---------------------------------------------------------------------
      1          6           0        2.134042   -0.974780    0.247265
      2          6           0        1.851988   -2.466308    0.063491
      3          6           0        0.437787   -2.857829    0.493073
      4          1           0        1.982143   -0.706588    1.301753
      5          1           0        1.400675   -0.396050   -0.331214
      6          1           0        2.586524   -3.042077    0.641039
      7          1           0        2.004763   -2.731020   -0.990646
      8          1           0       -0.308066   -2.309017   -0.090973
      9          1           0        0.277001   -2.621842    1.549983
     10          1           0        0.257614   -3.928271    0.353247
     11          6           0        3.543835   -0.567949   -0.177826
     12          6           0        3.825889    0.923579    0.005949
     13          6           0        5.240090    1.315099   -0.423633
     14          1           0        4.277202   -1.146680    0.400653
     15          1           0        3.695734   -0.836141   -1.232314
     16          1           0        3.673115    1.188291    1.060085
     17          1           0        3.091353    1.499348   -0.571600
     18          1           0        5.400876    1.079113   -1.480544
     19          1           0        5.985944    0.766288    0.160413
     20          1           0        5.420263    2.385542   -0.283808
     21          6           0       -3.459366    0.357047   -0.198557
     22          6           0       -3.230470   -1.150175   -0.080777
     23          6           0       -4.480816   -1.965627   -0.411633
     24          1           0       -4.278431    0.650620    0.472184
     25          1           0       -3.791845    0.591728   -1.219232
     26          1           0       -2.897191   -1.381770    0.938981
     27          1           0       -2.411727   -1.440162   -0.751734
     28          1           0       -4.812746   -1.763710   -1.435182
     29          1           0       -5.300968   -1.704986    0.265139
     30          1           0       -4.294783   -3.040362   -0.321098
     31          6           0       -2.218511    1.185682    0.129118
     32          6           0       -2.447408    2.692905    0.011338
     33          6           0       -1.197061    3.508356    0.342193
     34          1           0       -1.886032    0.951001    1.149793
     35          1           0       -1.399446    0.892109   -0.541623
     36          1           0       -3.266151    2.982892    0.682295
     37          1           0       -2.780686    2.924499   -1.008419
     38          1           0       -0.376909    3.247715   -0.334578
     39          1           0       -0.865131    3.306439    1.365743
     40          1           0       -1.383094    4.583091    0.251658
 ---------------------------------------------------------------------

 SCF Done:  E(RHF) =  -470.733083199     A.U. after   11 cycles
 E2 =    -0.1583345584D+01 EUMP2 =    -0.47231642878314D+03

 The electronic state is 1-A.
 Alpha  occ. eigenvalues --  -11.21606 -11.21578 -11.21578 -11.21547 -11.21408
 Alpha  occ. eigenvalues --  -11.21372 -11.21348 -11.21311 -11.21069 -11.21055
 Alpha  occ. eigenvalues --  -11.21052 -11.20946  -1.08439  -1.08387  -1.03537
 Alpha  occ. eigenvalues --   -1.03474  -0.95978  -0.95929  -0.87014  -0.86929
 Alpha  occ. eigenvalues --   -0.79672  -0.79482  -0.78323  -0.78121  -0.65113
 Alpha  occ. eigenvalues --   -0.64981  -0.60987  -0.60835  -0.59361  -0.59294
 Alpha  occ. eigenvalues --   -0.57630  -0.57500  -0.55295  -0.55197  -0.52683
 Alpha  occ. eigenvalues --   -0.52624  -0.52470  -0.52280  -0.50003  -0.49824
 Alpha  occ. eigenvalues --   -0.48089  -0.47691  -0.46743  -0.46516  -0.46028
 Alpha  occ. eigenvalues --   -0.45765  -0.45657  -0.45304  -0.43779  -0.43743
 Alpha virt. eigenvalues --    0.21026   0.23163   0.23620   0.24231   0.25170
 Alpha virt. eigenvalues --    0.26471   0.27297   0.27710   0.27994   0.29549
 Alpha virt. eigenvalues --    0.30635   0.31319   0.31704   0.31831   0.32112

 Mulliken charges:
               1
     1  C   -0.299506
     2  C   -0.299577
     3  C   -0.481377
     4  H    0.149718
     5  H    0.150649
     6  H    0.151535
     7  H    0.151206
     8  H    0.162950
     9  H    0.154297
    10  H    0.159248
    11  C   -0.298317
    12  C   -0.299398
    13  C   -0.475714
    14  H    0.149540
    15  H    0.149326
    16  H    0.152167
    17  H    0.151562
    18  H    0.155013
    19  H    0.155146
    20  H    0.160312
    21  C   -0.298070
    22  C   -0.303502
    23  C   -0.475423
    24  H    0.149726
    25  H    0.149131
    26  H    0.154094
    27  H    0.154667
    28  H    0.154790
    29  H    0.155100
    30  H    0.160766
    31  C   -0.299850
    32  C   -0.299714
    33  C   -0.475457
    34  H    0.150403
    35  H    0.150145
    36  H    0.152092
    37  H    0.151739
    38  H    0.154879
    39  H    0.155524
    40  H    0.160180
 Sum of Mulliken charges =  -0.00000

 Dipole moment (field-independent basis, Debye):
    X=             -0.0370    Y=              0.0092    Z=              0.0162  Tot=              0.0415
 Quadrupole moment (field-independent basis, Debye-Ang):
   XX=            -86.2842   YY=            -85.5620   ZZ=            -82.9985
   XY=             -1.0198   XZ=              0.1118   YZ=             -0.1463

 Normal termination of Gaussian 16 at Wed May  5 20:01:08 2021.
