 Gaussian 16, Revision A.03,
 Gaussian 16:  EM64L-G16RevA.03 25-Dec-2016

 -------------
 #p 6-31g* mp2
 -------------

 ------------------------------------------------------
 Input file generated by CHIRIPA (05-May-2021 14:53:13)
 ------------------------------------------------------
 Symbolic Z-matrix:
 Charge =  0 Multiplicity = 1

                         Standard orientation:
 ---------------------------------------------------------------------
 Center     Atomic      Atomic             Coordinates (Angstroms)
 Number     Number       Type             X           Y           Z
 ---------------------------------------------------------------------
      1          6           0        4.718379    0.183604    0.360390
      2          6           0        5.990541    0.307833   -0.478750
      3          6           0        7.208409    0.715805    0.350799
      4          1           0        4.520082    1.142610    0.858317
      5          1           0        4.883961   -0.554183    1.157665
      6          1           0        5.822150    1.044152   -1.275051
      7          1           0        6.185727   -0.651523   -0.974889
      8          1           0        7.404482   -0.021780    1.135735
      9          1           0        7.038839    1.683530    0.833868
     10          1           0        8.106739    0.798729   -0.268867
     11          6           0        3.492271   -0.223597   -0.454824
     12          6           0        2.220109   -0.347826    0.384316
     13          6           0        1.002241   -0.755798   -0.445234
     14          1           0        3.326689    0.514190   -1.252100
     15          1           0        3.690568   -1.182603   -0.952751
     16          1           0        2.024923    0.611530    0.880455
     17          1           0        2.388501   -1.084145    1.180616
     18          1           0        1.171812   -1.723523   -0.928303
     19          1           0        0.806169   -0.018213   -1.230170
     20          1           0        0.103911   -0.838722    0.174433
     21          6           0       -3.786310    2.469200   -0.066126
     22          6           0       -3.650403    1.731866   -1.246968
     23          6           0       -3.329820    0.371814   -1.201874
     24          6           0       -3.151307   -0.221580    0.046847
     25          6           0       -3.279854    0.486168    1.240941
     26          6           0       -3.600929    1.845098    1.171878
     27          1           0       -4.035538    3.525285   -0.110466
     28          1           0       -3.793801    2.213924   -2.209830
     29          1           0       -3.218552   -0.222718   -2.100522
     30          1           0       -3.130878   -0.022062    2.185888
     31          1           0       -3.705840    2.415235    2.090563
     32          7           0       -2.811660   -1.660812    0.107274
     33          8           0       -2.659481   -2.160216    1.219962
     34          8           0       -2.704054   -2.262227   -0.959196
 ---------------------------------------------------------------------

 SCF Done:  E(RHF) =  -669.535715366     A.U. after   15 cycles
 E2 =    -0.2091396650D+01 EUMP2 =    -0.67162711201629D+03

 The electronic state is 1-A.
 Alpha  occ. eigenvalues --  -20.60789 -20.60777 -15.85823 -11.31188 -11.27762
 Alpha  occ. eigenvalues --  -11.27752 -11.27506 -11.26779 -11.26769 -11.21455
 Alpha  occ. eigenvalues --  -11.21278 -11.21202 -11.21115 -11.20957 -11.20644
 Alpha  occ. eigenvalues --   -1.59856  -1.39408  -1.19364  -1.08764  -1.08202
 Alpha  occ. eigenvalues --   -1.04766  -1.03281  -0.95728  -0.95597  -0.86746
 Alpha  occ. eigenvalues --   -0.86165  -0.82428  -0.79350  -0.78015  -0.77475
 Alpha  occ. eigenvalues --   -0.72049  -0.71194  -0.70474  -0.65018  -0.64833
 Alpha  occ. eigenvalues --   -0.64772  -0.62114  -0.60674  -0.59104  -0.57339
 Alpha  occ. eigenvalues --   -0.55272  -0.55010  -0.53106  -0.52861  -0.52408
 Alpha  occ. eigenvalues --   -0.52150  -0.49662  -0.48809  -0.48804  -0.47666
 Alpha  occ. eigenvalues --   -0.46382  -0.45557  -0.45482  -0.44802  -0.43548
 Alpha  occ. eigenvalues --   -0.37336  -0.36367
 Alpha virt. eigenvalues --    0.05059   0.11266   0.16536   0.21413   0.23077
 Alpha virt. eigenvalues --    0.24481   0.26875   0.27316   0.27719   0.27926
 Alpha virt. eigenvalues --    0.28402   0.30708   0.31615   0.31792   0.32073

 Mulliken charges:
               1
     1  C   -0.298001
     2  C   -0.299457
     3  C   -0.475554
     4  H    0.147964
     5  H    0.150324
     6  H    0.150880
     7  H    0.152620
     8  H    0.155547
     9  H    0.154239
    10  H    0.159773
    11  C   -0.298297
    12  C   -0.299742
    13  C   -0.474822
    14  H    0.147404
    15  H    0.151247
    16  H    0.147987
    17  H    0.154873
    18  H    0.162990
    19  H    0.149816
    20  H    0.158578
    21  C   -0.170762
    22  C   -0.218723
    23  C   -0.170334
    24  C    0.156855
    25  C   -0.172063
    26  C   -0.218404
    27  H    0.225525
    28  H    0.223407
    29  H    0.275943
    30  H    0.275742
    31  H    0.223424
    32  N    0.490356
    33  O   -0.460806
    34  O   -0.458529
 Sum of Mulliken charges =  -0.00000

 Dipole moment (field-independent basis, Debye):
    X=             -1.2502    Y=              4.9966    Z=             -0.2362  Tot=              5.1560
 Quadrupole moment (field-independent basis, Debye-Ang):
   XX=            -89.1996   YY=            -96.6381   ZZ=            -89.9776
   XY=            -16.6527   XZ=              0.3887   YZ=              0.2996

 Normal termination of Gaussian 16 at Thu May  6 10:30:11 2021.
