 Gaussian 16, Revision A.03,
 Gaussian 16:  EM64L-G16RevA.03 25-Dec-2016

 -------------
 #p 6-31g* mp2
 -------------

 ------------------------------------------------------
 Input file generated by CHIRIPA (05-May-2021 14:57:21)
 ------------------------------------------------------
 Symbolic Z-matrix:
 Charge =  0 Multiplicity = 1

                         Standard orientation:
 ---------------------------------------------------------------------
 Center     Atomic      Atomic             Coordinates (Angstroms)
 Number     Number       Type             X           Y           Z
 ---------------------------------------------------------------------
      1          6           0       -4.832395   -1.118830    0.713929
      2          6           0       -3.607968   -1.792783    0.658384
      3          6           0       -2.493274   -1.192355    0.065516
      4          6           0       -2.639264    0.088781   -0.464265
      5          6           0       -3.845756    0.785969   -0.424323
      6          6           0       -4.947179    0.166130    0.173351
      7          1           0       -5.693162   -1.592796    1.176350
      8          1           0       -3.515900   -2.790783    1.077389
      9          1           0       -1.533508   -1.691420    0.008928
     10          1           0       -3.906710    1.779949   -0.850594
     11          1           0       -5.896843    0.691909    0.215063
     12          7           0       -1.466212    0.734702   -1.094452
     13          8           0       -1.620852    1.864123   -1.553941
     14          8           0       -0.414346    0.099322   -1.116971
     15          6           0        1.657265    1.866121    1.612506
     16          6           0        1.367350    0.529073    1.903664
     17          6           0        2.012480   -0.503291    1.216220
     18          6           0        2.946224   -0.161025    0.239354
     19          6           0        3.256683    1.161478   -0.073516
     20          6           0        2.599345    2.177507    0.626584
     21          1           0        1.151370    2.661741    2.151445
     22          1           0        0.636168    0.284285    2.668843
     23          1           0        1.807105   -1.546885    1.421523
     24          1           0        3.990312    1.374287   -0.841578
     25          1           0        2.826496    3.214986    0.398359
     26          7           0        3.635656   -1.245297   -0.495112
     27          8           0        4.454276   -0.917414   -1.351261
     28          8           0        3.344359   -2.402501   -0.200728
 ---------------------------------------------------------------------

 SCF Done:  E(RHF) =  -868.337566867     A.U. after   16 cycles
 E2 =    -0.2601394058D+01 EUMP2 =    -0.87093896092577D+03

 The electronic state is 1-A.
 Alpha  occ. eigenvalues --  -20.61134 -20.61067 -20.59901 -20.59879 -15.86133
 Alpha  occ. eigenvalues --  -15.84941 -11.31549 -11.30121 -11.28114 -11.28106
 Alpha  occ. eigenvalues --  -11.27845 -11.27130 -11.27118 -11.26802 -11.26691
 Alpha  occ. eigenvalues --  -11.26510 -11.25815 -11.25701  -1.60167  -1.58961
 Alpha  occ. eigenvalues --   -1.39722  -1.38526  -1.19719  -1.18293  -1.09103
 Alpha  occ. eigenvalues --   -1.07753  -1.05123  -1.03732  -0.95934  -0.94622
 Alpha  occ. eigenvalues --   -0.86516  -0.85166  -0.82765  -0.81491  -0.77811
 Alpha  occ. eigenvalues --   -0.76541  -0.72381  -0.71500  -0.71189  -0.70814
 Alpha  occ. eigenvalues --   -0.70245  -0.69521  -0.65367  -0.65116  -0.64020
 Alpha  occ. eigenvalues --   -0.63819  -0.62466  -0.61140  -0.55610  -0.54308
 Alpha  occ. eigenvalues --   -0.53463  -0.53207  -0.51992  -0.51900  -0.49131
 Alpha  occ. eigenvalues --   -0.49103  -0.47941  -0.47921  -0.45085  -0.43977
 Alpha  occ. eigenvalues --   -0.37699  -0.36738  -0.36253  -0.35226
 Alpha virt. eigenvalues --    0.04690   0.06056   0.10906   0.12344   0.16202
 Alpha virt. eigenvalues --    0.17543   0.21006   0.22196   0.26736   0.27568
 Alpha virt. eigenvalues --    0.28360   0.29141   0.30685   0.31562   0.32236

 Mulliken charges:
               1
     1  C   -0.171039
     2  C   -0.219074
     3  C   -0.173708
     4  C    0.157768
     5  C   -0.171923
     6  C   -0.218594
     7  H    0.226715
     8  H    0.224982
     9  H    0.276392
    10  H    0.275465
    11  H    0.224185
    12  N    0.489000
    13  O   -0.462623
    14  O   -0.456989
    15  C   -0.168745
    16  C   -0.218375
    17  C   -0.160910
    18  C    0.167893
    19  C   -0.164915
    20  C   -0.212393
    21  H    0.220997
    22  H    0.214237
    23  H    0.266325
    24  H    0.273583
    25  H    0.221277
    26  N    0.488579
    27  O   -0.461600
    28  O   -0.466511
 Sum of Mulliken charges =  -0.00000

 Dipole moment (field-independent basis, Debye):
    X=             -6.6406    Y=              1.6120    Z=              4.6137  Tot=              8.2451
 Quadrupole moment (field-independent basis, Debye-Ang):
   XX=            -95.5366   YY=           -101.6274   ZZ=           -105.8447
   XY=             17.2879   XZ=              1.7451   YZ=             -1.3410

 Normal termination of Gaussian 16 at Thu May  6 19:29:59 2021.
