 Gaussian 16, Revision A.03,
 Gaussian 16:  EM64L-G16RevA.03 25-Dec-2016

 -------------
 #p 6-31g* mp2
 -------------

 ------------------------------------------------------
 Input file generated by CHIRIPA (05-May-2021 14:55:20)
 ------------------------------------------------------
 Symbolic Z-matrix:
 Charge =  0 Multiplicity = 1

                         Standard orientation:
 ---------------------------------------------------------------------
 Center     Atomic      Atomic             Coordinates (Angstroms)
 Number     Number       Type             X           Y           Z
 ---------------------------------------------------------------------
      1          6           0        0.608302   -1.552313    1.210461
      2          6           0        0.479653   -1.153178   -0.123953
      3          6           0        1.526415   -0.489276   -0.770537
      4          6           0        2.692979   -0.239595   -0.049373
      5          6           0        2.851485   -0.624687    1.280992
      6          6           0        1.791721   -1.287261    1.907446
      7          1           0       -0.209897   -2.067532    1.704924
      8          1           0       -0.438249   -1.357690   -0.667714
      9          1           0        1.453581   -0.169183   -1.802842
     10          1           0        3.778683   -0.406788    1.796979
     11          1           0        1.894437   -1.596071    2.943849
     12          7           0        3.808022    0.462546   -0.723227
     13          8           0        4.825476    0.670669   -0.065879
     14          8           0        3.643423    0.791465   -1.895983
     15          6           0       -3.456934   -0.067378   -0.579618
     16          6           0       -3.545114   -1.476277    0.007930
     17          6           0       -4.037062   -2.509796   -1.005785
     18          1           0       -4.445571    0.228366   -0.956551
     19          1           0       -2.782864   -0.081005   -1.447281
     20          1           0       -4.217736   -1.459713    0.875065
     21          1           0       -2.556196   -1.768626    0.383681
     22          1           0       -3.362906   -2.555716   -1.867182
     23          1           0       -5.033886   -2.245047   -1.373007
     24          1           0       -4.092564   -3.509917   -0.564720
     25          6           0       -2.966636    0.976987    0.421701
     26          6           0       -2.878455    2.385886   -0.165847
     27          6           0       -2.386507    3.419405    0.847868
     28          1           0       -3.640706    0.990615    1.289363
     29          1           0       -1.977999    0.681243    0.798633
     30          1           0       -3.867373    2.678235   -0.541598
     31          1           0       -2.205833    2.369321   -1.032982
     32          1           0       -1.389684    3.154657    1.215090
     33          1           0       -3.060664    3.465325    1.709265
     34          1           0       -2.331006    4.419526    0.406803
 ---------------------------------------------------------------------

 SCF Done:  E(RHF) =  -669.535087291     A.U. after   15 cycles
 E2 =    -0.2093199639D+01 EUMP2 =    -0.67162828692942D+03

 The electronic state is 1-A.
 Alpha  occ. eigenvalues --  -20.60798 -20.60792 -15.85851 -11.31234 -11.27801
 Alpha  occ. eigenvalues --  -11.27798 -11.27542 -11.26815 -11.26791 -11.22764
 Alpha  occ. eigenvalues --  -11.22310 -11.22084 -11.22051 -11.22008 -11.21396
 Alpha  occ. eigenvalues --   -1.59873  -1.39426  -1.19409  -1.09258  -1.08794
 Alpha  occ. eigenvalues --   -1.04814  -1.04282  -0.96700  -0.95632  -0.87719
 Alpha  occ. eigenvalues --   -0.86216  -0.82461  -0.80393  -0.79014  -0.77511
 Alpha  occ. eigenvalues --   -0.72070  -0.71196  -0.70520  -0.66123  -0.65056
 Alpha  occ. eigenvalues --   -0.64668  -0.62212  -0.61588  -0.60094  -0.58305
 Alpha  occ. eigenvalues --   -0.56000  -0.55305  -0.53397  -0.53182  -0.53062
 Alpha  occ. eigenvalues --   -0.52896  -0.50647  -0.48836  -0.48824  -0.48667
 Alpha  occ. eigenvalues --   -0.47469  -0.46536  -0.46456  -0.44827  -0.44529
 Alpha  occ. eigenvalues --   -0.37367  -0.36400
 Alpha virt. eigenvalues --    0.05018   0.11115   0.16482   0.18857   0.22780
 Alpha virt. eigenvalues --    0.23638   0.24920   0.25606   0.27281   0.28442
 Alpha virt. eigenvalues --    0.29100   0.29913   0.31045   0.31417   0.31888

 Mulliken charges:
               1
     1  C   -0.174268
     2  C   -0.222034
     3  C   -0.172776
     4  C    0.158578
     5  C   -0.170898
     6  C   -0.218518
     7  H    0.228074
     8  H    0.231713
     9  H    0.275735
    10  H    0.275851
    11  H    0.223876
    12  N    0.488049
    13  O   -0.460201
    14  O   -0.460279
    15  C   -0.300238
    16  C   -0.304862
    17  C   -0.476093
    18  H    0.155458
    19  H    0.145041
    20  H    0.157400
    21  H    0.140123
    22  H    0.153623
    23  H    0.160745
    24  H    0.162076
    25  C   -0.303216
    26  C   -0.299613
    27  C   -0.476572
    28  H    0.150378
    29  H    0.151629
    30  H    0.153070
    31  H    0.152755
    32  H    0.157385
    33  H    0.154820
    34  H    0.163190
 Sum of Mulliken charges =  -0.00000

 Dipole moment (field-independent basis, Debye):
    X=             -4.0446    Y=             -2.4011    Z=              2.3818  Tot=              5.2723
 Quadrupole moment (field-independent basis, Debye-Ang):
   XX=           -113.4031   YY=            -94.7959   ZZ=            -91.9379
   XY=             -6.4208   XZ=              8.9000   YZ=             -1.2216

 Normal termination of Gaussian 16 at Wed May  5 15:54:30 2021.
