 Gaussian 16, Revision A.03,
 Gaussian 16:  EM64L-G16RevA.03 25-Dec-2016

 -------------
 #p 6-31g* mp2
 -------------

 ------------------------------------------------------
 Input file generated by CHIRIPA (05-May-2021 14:53:13)
 ------------------------------------------------------
 Symbolic Z-matrix:
 Charge =  0 Multiplicity = 1

                         Standard orientation:
 ---------------------------------------------------------------------
 Center     Atomic      Atomic             Coordinates (Angstroms)
 Number     Number       Type             X           Y           Z
 ---------------------------------------------------------------------
      1          6           0       -2.930616    0.911426    0.030120
      2          6           0       -3.259865   -0.553567    0.318868
      3          6           0       -4.732059   -0.770462    0.670147
      4          1           0       -3.193303    1.519321    0.906707
      5          1           0       -3.561845    1.265810   -0.796535
      6          1           0       -2.627226   -0.905481    1.143816
      7          1           0       -2.996186   -1.158071   -0.558437
      8          1           0       -5.376441   -0.446061   -0.153343
      9          1           0       -5.005385   -0.192036    1.558582
     10          1           0       -4.945345   -1.824644    0.872802
     11          6           0       -1.462596    1.144273   -0.322621
     12          6           0       -1.133347    2.609266   -0.611369
     13          6           0        0.338847    2.826161   -0.962648
     14          1           0       -0.831367    0.789889    0.504033
     15          1           0       -1.199909    0.536378   -1.199208
     16          1           0       -1.397026    3.213770    0.265936
     17          1           0       -1.765986    2.961180   -1.436318
     18          1           0        0.612173    2.247735   -1.851083
     19          1           0        0.983229    2.501760   -0.139158
     20          1           0        0.552133    3.880343   -1.165303
     21          6           0        3.166103    0.984366    1.148042
     22          6           0        2.201668    0.330871    1.922207
     23          6           0        1.392671   -0.661048    1.359916
     24          6           0        1.575917   -0.975804    0.014316
     25          6           0        2.528108   -0.342709   -0.783063
     26          6           0        3.325963    0.646087   -0.199746
     27          1           0        3.790223    1.753698    1.593011
     28          1           0        2.075300    0.591522    2.969173
     29          1           0        0.638361   -1.182841    1.936253
     30          1           0        2.630713   -0.624251   -1.824036
     31          1           0        4.074151    1.151934   -0.803382
     32          7           0        0.725366   -2.024250   -0.592086
     33          8           0        0.906532   -2.283220   -1.779836
     34          8           0       -0.106355   -2.567201    0.131848
 ---------------------------------------------------------------------

 SCF Done:  E(RHF) =  -669.533481941     A.U. after   15 cycles
 E2 =    -0.2097614479D+01 EUMP2 =    -0.67163109642038D+03

 The electronic state is 1-A.
 Alpha  occ. eigenvalues --  -20.60900 -20.60863 -15.85900 -11.31248 -11.27834
 Alpha  occ. eigenvalues --  -11.27815 -11.27573 -11.26885 -11.26827 -11.21447
 Alpha  occ. eigenvalues --  -11.21060 -11.20937 -11.20924 -11.20778 -11.20446
 Alpha  occ. eigenvalues --   -1.59936  -1.39493  -1.19464  -1.08853  -1.08046
 Alpha  occ. eigenvalues --   -1.04867  -1.03116  -0.95688  -0.95616  -0.86643
 Alpha  occ. eigenvalues --   -0.86259  -0.82518  -0.79213  -0.77895  -0.77531
 Alpha  occ. eigenvalues --   -0.72133  -0.71222  -0.70569  -0.65109  -0.64880
 Alpha  occ. eigenvalues --   -0.64689  -0.62205  -0.60540  -0.59021  -0.57237
 Alpha  occ. eigenvalues --   -0.55362  -0.54952  -0.53368  -0.52948  -0.52312
 Alpha  occ. eigenvalues --   -0.52017  -0.49597  -0.48903  -0.48894  -0.47405
 Alpha  occ. eigenvalues --   -0.46212  -0.45471  -0.45284  -0.44656  -0.43385
 Alpha  occ. eigenvalues --   -0.37355  -0.36373
 Alpha virt. eigenvalues --    0.04912   0.11082   0.16396   0.21092   0.23238
 Alpha virt. eigenvalues --    0.24513   0.26283   0.27072   0.27585   0.28364
 Alpha virt. eigenvalues --    0.28823   0.30867   0.31579   0.31876   0.32380

 Mulliken charges:
               1
     1  C   -0.297883
     2  C   -0.299735
     3  C   -0.476349
     4  H    0.144857
     5  H    0.148683
     6  H    0.152992
     7  H    0.163960
     8  H    0.153318
     9  H    0.150222
    10  H    0.162636
    11  C   -0.305784
    12  C   -0.297463
    13  C   -0.481377
    14  H    0.150101
    15  H    0.151499
    16  H    0.148608
    17  H    0.152315
    18  H    0.152559
    19  H    0.159879
    20  H    0.155385
    21  C   -0.173980
    22  C   -0.217186
    23  C   -0.176852
    24  C    0.166891
    25  C   -0.169538
    26  C   -0.214221
    27  H    0.226429
    28  H    0.224083
    29  H    0.276190
    30  H    0.275625
    31  H    0.224381
    32  N    0.489608
    33  O   -0.460892
    34  O   -0.458963
 Sum of Mulliken charges =  -0.00000

 Dipole moment (field-independent basis, Debye):
    X=              3.1426    Y=              3.4559    Z=              2.1163  Tot=              5.1281
 Quadrupole moment (field-independent basis, Debye-Ang):
   XX=            -85.8908   YY=           -103.1825   ZZ=            -90.1707
   XY=              3.4705   XZ=              1.8369   YZ=             -2.3202

 Normal termination of Gaussian 16 at Wed May  5 21:49:33 2021.
