 Gaussian 16, Revision A.03,
 Gaussian 16:  EM64L-G16RevA.03 25-Dec-2016

 -------------
 #p 6-31g* mp2
 -------------

 ------------------------------------------------------
 Input file generated by CHIRIPA (05-May-2021 14:57:22)
 ------------------------------------------------------
 Symbolic Z-matrix:
 Charge =  0 Multiplicity = 1

                         Standard orientation:
 ---------------------------------------------------------------------
 Center     Atomic      Atomic             Coordinates (Angstroms)
 Number     Number       Type             X           Y           Z
 ---------------------------------------------------------------------
      1          6           0       -5.040456   -0.911157    0.848320
      2          6           0       -4.635623    0.420096    0.991139
      3          6           0       -3.520368    0.901231    0.298849
      4          6           0       -2.830055    0.019641   -0.531546
      5          6           0       -3.208594   -1.312042   -0.694698
      6          6           0       -4.326907   -1.771460    0.007340
      7          1           0       -5.908000   -1.276479    1.389894
      8          1           0       -5.187867    1.090480    1.643562
      9          1           0       -3.185072    1.927146    0.391010
     10          1           0       -2.638001   -1.956487   -1.352369
     11          1           0       -4.639011   -2.805821   -0.105504
     12          7           0       -1.647766    0.517502   -1.269603
     13          8           0       -1.056558   -0.279296   -1.995016
     14          8           0       -1.334682    1.695096   -1.108703
     15          6           0        1.062765    1.281286    1.424921
     16          6           0        1.458473    0.041777    1.938297
     17          6           0        2.544194   -0.642514    1.383770
     18          6           0        3.214603   -0.055423    0.311778
     19          6           0        2.844477    1.178041   -0.221948
     20          6           0        1.755808    1.844468    0.348335
     21          1           0        0.218205    1.805921    1.861811
     22          1           0        0.922104   -0.398001    2.774329
     23          1           0        2.871827   -1.603413    1.761589
     24          1           0        3.398732    1.591117   -1.055966
     25          1           0        1.450728    2.806949   -0.052416
     26          7           0        4.365568   -0.770396   -0.283615
     27          8           0        4.939671   -0.231796   -1.227518
     28          8           0        4.671799   -1.855856    0.204892
 ---------------------------------------------------------------------

 SCF Done:  E(RHF) =  -868.338560592     A.U. after   16 cycles
 E2 =    -0.2600834616D+01 EUMP2 =    -0.87093939520843D+03

 The electronic state is 1-A.
 Alpha  occ. eigenvalues --  -20.61505 -20.61449 -20.59963 -20.59942 -15.86501
 Alpha  occ. eigenvalues --  -15.85001 -11.31835 -11.30224 -11.28434 -11.28340
 Alpha  occ. eigenvalues --  -11.28094 -11.27408 -11.27348 -11.26828 -11.26659
 Alpha  occ. eigenvalues --  -11.26489 -11.25896 -11.25625  -1.60525  -1.59030
 Alpha  occ. eigenvalues --   -1.40091  -1.38589  -1.19992  -1.18369  -1.09389
 Alpha  occ. eigenvalues --   -1.07804  -1.05387  -1.03746  -0.96237  -0.94668
 Alpha  occ. eigenvalues --   -0.86784  -0.85158  -0.83074  -0.81502  -0.78133
 Alpha  occ. eigenvalues --   -0.76561  -0.72751  -0.71849  -0.71229  -0.71089
 Alpha  occ. eigenvalues --   -0.70342  -0.69513  -0.65645  -0.65380  -0.64032
 Alpha  occ. eigenvalues --   -0.63751  -0.62735  -0.61102  -0.55872  -0.54302
 Alpha  occ. eigenvalues --   -0.53723  -0.53471  -0.52093  -0.51849  -0.49507
 Alpha  occ. eigenvalues --   -0.49463  -0.47989  -0.47971  -0.45515  -0.44027
 Alpha  occ. eigenvalues --   -0.37966  -0.36995  -0.36326  -0.35279
 Alpha virt. eigenvalues --    0.04375   0.05952   0.10645   0.12357   0.15914
 Alpha virt. eigenvalues --    0.17482   0.20765   0.22307   0.26634   0.27517
 Alpha virt. eigenvalues --    0.28341   0.28977   0.30566   0.31498   0.32567

 Mulliken charges:
               1
     1  C   -0.170833
     2  C   -0.218580
     3  C   -0.174541
     4  C    0.159042
     5  C   -0.170621
     6  C   -0.218522
     7  H    0.227566
     8  H    0.224044
     9  H    0.271411
    10  H    0.278561
    11  H    0.226172
    12  N    0.490458
    13  O   -0.453054
    14  O   -0.468797
    15  C   -0.174052
    16  C   -0.220963
    17  C   -0.172451
    18  C    0.159816
    19  C   -0.169801
    20  C   -0.200260
    21  H    0.219733
    22  H    0.216496
    23  H    0.271055
    24  H    0.274995
    25  H    0.229974
    26  N    0.488340
    27  O   -0.460616
    28  O   -0.464570
 Sum of Mulliken charges =  -0.00000

 Dipole moment (field-independent basis, Debye):
    X=             -8.4447    Y=              0.8057    Z=              4.4269  Tot=              9.5687
 Quadrupole moment (field-independent basis, Debye-Ang):
   XX=           -108.6983   YY=            -98.5297   ZZ=           -104.6938
   XY=             14.0543   XZ=             -0.9427   YZ=              1.0276

 Normal termination of Gaussian 16 at Thu May  6 06:33:09 2021.
