 Gaussian 16, Revision A.03,
 Gaussian 16:  EM64L-G16RevA.03 25-Dec-2016

 -------------
 #p 6-31g* mp2
 -------------

 ------------------------------------------------------
 Input file generated by CHIRIPA (05-May-2021 14:55:24)
 ------------------------------------------------------
 Symbolic Z-matrix:
 Charge =  0 Multiplicity = 1

                         Standard orientation:
 ---------------------------------------------------------------------
 Center     Atomic      Atomic             Coordinates (Angstroms)
 Number     Number       Type             X           Y           Z
 ---------------------------------------------------------------------
      1          6           0       -1.672009   -2.349702    1.516668
      2          6           0       -1.569673   -1.049738    2.022771
      3          6           0       -1.798708    0.054139    1.196002
      4          6           0       -2.129606   -0.179576   -0.137854
      5          6           0       -2.239230   -1.462669   -0.671657
      6          6           0       -2.005873   -2.551663    0.173437
      7          1           0       -1.492410   -3.201440    2.166040
      8          1           0       -1.310551   -0.889887    3.065531
      9          1           0       -1.726246    1.071200    1.561728
     10          1           0       -2.499230   -1.590346   -1.715456
     11          1           0       -2.086057   -3.560114   -0.222343
     12          7           0       -2.374364    0.981172   -1.022818
     13          8           0       -2.664455    0.748531   -2.194296
     14          8           0       -2.271479    2.101627   -0.528216
     15          6           0        2.689111   -0.154021   -0.443697
     16          6           0        3.926465   -1.021712   -0.211208
     17          6           0        3.941775   -2.275896   -1.085612
     18          1           0        1.788164   -0.751060   -0.246762
     19          1           0        2.646754    0.135711   -1.502780
     20          1           0        3.967224   -1.308576    0.847405
     21          1           0        4.824576   -0.422482   -0.408535
     22          1           0        3.925532   -2.006081   -2.146525
     23          1           0        3.063311   -2.897209   -0.883448
     24          1           0        4.834941   -2.881579   -0.903227
     25          6           0        2.659413    1.103475    0.423222
     26          6           0        1.422059    1.971167    0.190734
     27          6           0        1.406749    3.225352    1.065137
     28          1           0        2.701770    0.813744    1.482304
     29          1           0        3.560361    1.700515    0.226286
     30          1           0        0.523949    1.371938    0.388059
     31          1           0        1.381301    2.258030   -0.867882
     32          1           0        2.285215    3.846664    0.862973
     33          1           0        1.422992    2.955536    2.126050
     34          1           0        0.513585    3.831034    0.882752
 ---------------------------------------------------------------------

 SCF Done:  E(RHF) =  -669.535203672     A.U. after   15 cycles
 E2 =    -0.2093921638D+01 EUMP2 =    -0.67162912530986D+03

 The electronic state is 1-A.
 Alpha  occ. eigenvalues --  -20.60880 -20.60858 -15.85902 -11.31280 -11.27855
 Alpha  occ. eigenvalues --  -11.27848 -11.27606 -11.26876 -11.26864 -11.21633
 Alpha  occ. eigenvalues --  -11.21302 -11.21225 -11.21172 -11.21164 -11.20699
 Alpha  occ. eigenvalues --   -1.59927  -1.39483  -1.19470  -1.08854  -1.08300
 Alpha  occ. eigenvalues --   -1.04876  -1.03379  -0.95844  -0.95684  -0.86864
 Alpha  occ. eigenvalues --   -0.86272  -0.82518  -0.79461  -0.78124  -0.77549
 Alpha  occ. eigenvalues --   -0.72129  -0.71244  -0.70577  -0.65123  -0.65001
 Alpha  occ. eigenvalues --   -0.64821  -0.62237  -0.60789  -0.59200  -0.57418
 Alpha  occ. eigenvalues --   -0.55378  -0.55147  -0.53240  -0.52954  -0.52506
 Alpha  occ. eigenvalues --   -0.52261  -0.49817  -0.48896  -0.48882  -0.47775
 Alpha  occ. eigenvalues --   -0.46524  -0.45704  -0.45576  -0.44758  -0.43620
 Alpha  occ. eigenvalues --   -0.37416  -0.36426
 Alpha virt. eigenvalues --    0.04950   0.11081   0.16441   0.21115   0.22968
 Alpha virt. eigenvalues --    0.24210   0.26692   0.27192   0.27512   0.27719
 Alpha virt. eigenvalues --    0.28848   0.30844   0.31516   0.31865   0.32135

 Mulliken charges:
               1
     1  C   -0.171126
     2  C   -0.218848
     3  C   -0.175881
     4  C    0.162639
     5  C   -0.170691
     6  C   -0.218597
     7  H    0.226150
     8  H    0.224124
     9  H    0.277677
    10  H    0.276148
    11  H    0.224051
    12  N    0.489632
    13  O   -0.459464
    14  O   -0.459975
    15  C   -0.299777
    16  C   -0.298970
    17  C   -0.475196
    18  H    0.148759
    19  H    0.151947
    20  H    0.149188
    21  H    0.152881
    22  H    0.156754
    23  H    0.151936
    24  H    0.159517
    25  C   -0.297022
    26  C   -0.303526
    27  C   -0.479121
    28  H    0.144050
    29  H    0.149753
    30  H    0.151403
    31  H    0.158352
    32  H    0.154737
    33  H    0.146440
    34  H    0.172055
 Sum of Mulliken charges =  -0.00000

 Dipole moment (field-independent basis, Debye):
    X=              0.7126    Y=             -4.0326    Z=              3.0170  Tot=              5.0865
 Quadrupole moment (field-independent basis, Debye-Ang):
   XX=            -99.1234   YY=            -92.1196   ZZ=            -92.8206
   XY=              9.7533   XZ=             -6.5159   YZ=              1.5506

 Normal termination of Gaussian 16 at Thu May  6 00:00:32 2021.
