 Gaussian 16, Revision A.03,
 Gaussian 16:  EM64L-G16RevA.03 25-Dec-2016

 -------------
 #p 6-31g* mp2
 -------------

 ------------------------------------------------------
 Input file generated by CHIRIPA (05-May-2021 14:51:08)
 ------------------------------------------------------
 Symbolic Z-matrix:
 Charge =  0 Multiplicity = 1

                         Standard orientation:
 ---------------------------------------------------------------------
 Center     Atomic      Atomic             Coordinates (Angstroms)
 Number     Number       Type             X           Y           Z
 ---------------------------------------------------------------------
      1          6           0       -3.898939    0.726350   -0.289346
      2          6           0       -4.867910    1.720793    0.351095
      3          6           0       -4.583681    3.167511   -0.053891
      4          1           0       -2.870985    0.992345   -0.007384
      5          1           0       -3.957437    0.820304   -1.382573
      6          1           0       -4.808610    1.624025    1.442762
      7          1           0       -5.893690    1.452286    0.067732
      8          1           0       -4.662382    3.286246   -1.139391
      9          1           0       -3.571137    3.458961    0.243452
     10          1           0       -5.288036    3.861517    0.415257
     11          6           0       -4.170286   -0.724113    0.105944
     12          6           0       -3.201316   -1.718556   -0.534498
     13          6           0       -3.485544   -3.165274   -0.129511
     14          1           0       -4.111788   -0.818067    1.199171
     15          1           0       -5.198240   -0.990109   -0.176019
     16          1           0       -2.175535   -1.450049   -0.251134
     17          1           0       -3.260615   -1.621788   -1.626164
     18          1           0       -4.498088   -3.456724   -0.426854
     19          1           0       -3.406843   -3.284010    0.955989
     20          1           0       -2.781189   -3.859280   -0.598659
     21          6           0        4.590021    0.361220   -0.287329
     22          6           0        5.983645    0.103714    0.286680
     23          6           0        7.084160    0.835390   -0.482286
     24          1           0        4.571377    0.051015   -1.341070
     25          1           0        4.390312    1.441675   -0.275989
     26          1           0        6.180115   -0.976051    0.275539
     27          1           0        5.998918    0.414390    1.339231
     28          1           0        6.915600    1.916922   -0.460428
     29          1           0        7.097828    0.518580   -1.530163
     30          1           0        8.072140    0.637311   -0.055060
     31          6           0        3.479204   -0.363457    0.470733
     32          6           0        2.085580   -0.105950   -0.103278
     33          6           0        0.985065   -0.837627    0.665688
     34          1           0        3.678913   -1.443912    0.459391
     35          1           0        3.497848   -0.053251    1.524472
     36          1           0        2.070307   -0.416628   -1.155829
     37          1           0        1.889110    0.973814   -0.092137
     38          1           0        0.971398   -0.520817    1.713564
     39          1           0        1.153625   -1.919158    0.643830
     40          1           0       -0.002914   -0.639548    0.238462
 ---------------------------------------------------------------------

 SCF Done:  E(RHF) =  -470.733336124     A.U. after   11 cycles
 E2 =    -0.1582466321D+01 EUMP2 =    -0.47231580244480D+03

 The electronic state is 1-A.
 Alpha  occ. eigenvalues --  -11.21633 -11.21613 -11.21594 -11.21551 -11.21424
 Alpha  occ. eigenvalues --  -11.21392 -11.21364 -11.21329 -11.21114 -11.21080
 Alpha  occ. eigenvalues --  -11.21066 -11.21034  -1.08452  -1.08412  -1.03558
 Alpha  occ. eigenvalues --   -1.03504  -0.96009  -0.95956  -0.87034  -0.86967
 Alpha  occ. eigenvalues --   -0.79647  -0.79546  -0.78264  -0.78226  -0.65080
 Alpha  occ. eigenvalues --   -0.65053  -0.60960  -0.60920  -0.59440  -0.59264
 Alpha  occ. eigenvalues --   -0.57630  -0.57555  -0.55296  -0.55238  -0.52768
 Alpha  occ. eigenvalues --   -0.52629  -0.52441  -0.52368  -0.49948  -0.49892
 Alpha  occ. eigenvalues --   -0.48000  -0.47836  -0.46655  -0.46590  -0.45809
 Alpha  occ. eigenvalues --   -0.45765  -0.45728  -0.45692  -0.43789  -0.43723
 Alpha virt. eigenvalues --    0.21424   0.23014   0.23828   0.24560   0.25815
 Alpha virt. eigenvalues --    0.26638   0.27095   0.27492   0.27974   0.28768
 Alpha virt. eigenvalues --    0.30764   0.31389   0.31711   0.31914   0.31980

 Mulliken charges:
               1
     1  C   -0.299202
     2  C   -0.299624
     3  C   -0.475710
     4  H    0.149668
     5  H    0.149513
     6  H    0.152021
     7  H    0.152040
     8  H    0.155164
     9  H    0.155142
    10  H    0.160222
    11  C   -0.297570
    12  C   -0.308882
    13  C   -0.474965
    14  H    0.149605
    15  H    0.149588
    16  H    0.160701
    17  H    0.151524
    18  H    0.154912
    19  H    0.155342
    20  H    0.160102
    21  C   -0.298249
    22  C   -0.299648
    23  C   -0.475716
    24  H    0.149746
    25  H    0.149564
    26  H    0.151964
    27  H    0.151937
    28  H    0.155207
    29  H    0.155219
    30  H    0.160291
    31  C   -0.298715
    32  C   -0.298807
    33  C   -0.483757
    34  H    0.149621
    35  H    0.149621
    36  H    0.152381
    37  H    0.151869
    38  H    0.155147
    39  H    0.155679
    40  H    0.167054
 Sum of Mulliken charges =  -0.00000

 Dipole moment (field-independent basis, Debye):
    X=              0.0182    Y=             -0.0021    Z=              0.0023  Tot=              0.0185
 Quadrupole moment (field-independent basis, Debye-Ang):
   XX=            -85.2367   YY=            -85.5462   ZZ=            -84.0049
   XY=             -0.5460   XZ=              0.8407   YZ=              1.0175

 Normal termination of Gaussian 16 at Thu May  6 05:16:26 2021.
