 Gaussian 16, Revision A.03,
 Gaussian 16:  EM64L-G16RevA.03 25-Dec-2016

 -------------
 #p 6-31g* mp2
 -------------

 ------------------------------------------------------
 Input file generated by CHIRIPA (05-May-2021 14:51:11)
 ------------------------------------------------------
 Symbolic Z-matrix:
 Charge =  0 Multiplicity = 1

                         Standard orientation:
 ---------------------------------------------------------------------
 Center     Atomic      Atomic             Coordinates (Angstroms)
 Number     Number       Type             X           Y           Z
 ---------------------------------------------------------------------
      1          6           0       -3.428046   -0.581655    0.194952
      2          6           0       -3.774666    0.796754   -0.368810
      3          6           0       -5.140290    1.300535    0.099241
      4          1           0       -4.206159   -1.298296   -0.101546
      5          1           0       -3.446686   -0.536413    1.292677
      6          1           0       -3.754023    0.749268   -1.465138
      7          1           0       -2.995538    1.510156   -0.071097
      8          1           0       -5.169433    1.376378    1.191028
      9          1           0       -5.932227    0.611167   -0.210933
     10          1           0       -5.367889    2.287436   -0.315589
     11          6           0       -2.065811   -1.098811   -0.263955
     12          6           0       -1.719191   -2.477219    0.299807
     13          6           0       -0.353567   -2.981000   -0.168244
     14          1           0       -2.047171   -1.144053   -1.361681
     15          1           0       -1.287698   -0.382170    0.032542
     16          1           0       -2.498319   -3.190621    0.002094
     17          1           0       -1.739834   -2.429733    1.396135
     18          1           0        0.438370   -2.291632    0.141930
     19          1           0       -0.324424   -3.056843   -1.260032
     20          1           0       -0.125968   -3.967901    0.246586
     21          6           0        2.833672    0.117975    0.267423
     22          6           0        4.051467   -0.574596   -0.345199
     23          6           0        4.211584   -2.018882    0.130400
     24          1           0        2.921029    0.098552    1.362382
     25          1           0        1.929990   -0.454228    0.015759
     26          1           0        4.952429   -0.000496   -0.093617
     27          1           0        3.961295   -0.553352   -1.438832
     28          1           0        3.330014   -2.611624   -0.134348
     29          1           0        4.326781   -2.055628    1.218510
     30          1           0        5.088223   -2.494965   -0.319833
     31          6           0        2.660185    1.562490   -0.198420
     32          6           0        1.442390    2.255061    0.414202
     33          6           0        1.282273    3.699347   -0.061397
     34          1           0        3.563867    2.134694    0.053245
     35          1           0        2.572828    1.581914   -1.293379
     36          1           0        1.532562    2.233817    1.507835
     37          1           0        0.541428    1.680962    0.162620
     38          1           0        1.167076    3.736093   -1.149506
     39          1           0        2.163843    4.292089    0.203352
     40          1           0        0.405634    4.175430    0.388836
 ---------------------------------------------------------------------

 SCF Done:  E(RHF) =  -470.733261604     A.U. after   11 cycles
 E2 =    -0.1583815547D+01 EUMP2 =    -0.47231707715120D+03

 The electronic state is 1-A.
 Alpha  occ. eigenvalues --  -11.21639 -11.21633 -11.21622 -11.21589 -11.21441
 Alpha  occ. eigenvalues --  -11.21415 -11.21379 -11.21354 -11.21094 -11.21091
 Alpha  occ. eigenvalues --  -11.21084 -11.21030  -1.08472  -1.08433  -1.03562
 Alpha  occ. eigenvalues --   -1.03529  -0.96010  -0.95979  -0.87032  -0.86993
 Alpha  occ. eigenvalues --   -0.79651  -0.79577  -0.78367  -0.78177  -0.65212
 Alpha  occ. eigenvalues --   -0.64963  -0.61013  -0.60881  -0.59382  -0.59351
 Alpha  occ. eigenvalues --   -0.57640  -0.57574  -0.55339  -0.55230  -0.52701
 Alpha  occ. eigenvalues --   -0.52675  -0.52482  -0.52369  -0.50026  -0.49874
 Alpha  occ. eigenvalues --   -0.48030  -0.47861  -0.46782  -0.46622  -0.46121
 Alpha  occ. eigenvalues --   -0.45774  -0.45761  -0.45183  -0.43811  -0.43789
 Alpha virt. eigenvalues --    0.20153   0.22498   0.23550   0.24202   0.25120
 Alpha virt. eigenvalues --    0.26804   0.27089   0.27195   0.27936   0.29695
 Alpha virt. eigenvalues --    0.31023   0.31467   0.31742   0.31845   0.31934

 Mulliken charges:
               1
     1  C   -0.298026
     2  C   -0.300176
     3  C   -0.475737
     4  H    0.149914
     5  H    0.149799
     6  H    0.151861
     7  H    0.152248
     8  H    0.155295
     9  H    0.155236
    10  H    0.160370
    11  C   -0.304610
    12  C   -0.299066
    13  C   -0.485159
    14  H    0.149305
    15  H    0.154733
    16  H    0.152202
    17  H    0.152322
    18  H    0.163836
    19  H    0.154736
    20  H    0.160916
    21  C   -0.307632
    22  C   -0.299024
    23  C   -0.478539
    24  H    0.149163
    25  H    0.157802
    26  H    0.151884
    27  H    0.151997
    28  H    0.158735
    29  H    0.154783
    30  H    0.160191
    31  C   -0.297196
    32  C   -0.305225
    33  C   -0.475470
    34  H    0.149762
    35  H    0.149927
    36  H    0.151771
    37  H    0.156053
    38  H    0.155572
    39  H    0.155388
    40  H    0.160059
 Sum of Mulliken charges =  -0.00000

 Dipole moment (field-independent basis, Debye):
    X=             -0.0060    Y=             -0.0057    Z=             -0.0017  Tot=              0.0084
 Quadrupole moment (field-independent basis, Debye-Ang):
   XX=            -85.2353   YY=            -85.8420   ZZ=            -83.6262
   XY=              1.1270   XZ=              0.9528   YZ=              0.7303

 Normal termination of Gaussian 16 at Wed May  5 15:15:02 2021.
