 Gaussian 16, Revision A.03,
 Gaussian 16:  EM64L-G16RevA.03 25-Dec-2016

 -------------
 #p 6-31g* mp2
 -------------

 ------------------------------------------------------
 Input file generated by CHIRIPA (05-May-2021 14:51:13)
 ------------------------------------------------------
 Symbolic Z-matrix:
 Charge =  0 Multiplicity = 1

                         Standard orientation:
 ---------------------------------------------------------------------
 Center     Atomic      Atomic             Coordinates (Angstroms)
 Number     Number       Type             X           Y           Z
 ---------------------------------------------------------------------
      1          6           0        2.883617    0.474790   -0.410743
      2          6           0        2.623307   -0.987642   -0.773393
      3          6           0        3.852862   -1.678002   -1.364486
      4          1           0        3.213347    1.015456   -1.308464
      5          1           0        3.714043    0.525082    0.307072
      6          1           0        1.792709   -1.035259   -1.489254
      7          1           0        2.293975   -1.524846    0.125255
      8          1           0        4.684285   -1.660079   -0.652436
      9          1           0        4.180172   -1.167711   -2.276118
     10          1           0        3.644491   -2.722474   -1.616520
     11          6           0        1.663808    1.178492    0.181370
     12          6           0        1.924118    2.640924    0.544020
     13          6           0        0.694563    3.331284    1.135113
     14          1           0        0.833382    1.128200   -0.536445
     15          1           0        1.334078    0.637826    1.079092
     16          1           0        2.253450    3.178128   -0.354628
     17          1           0        2.754716    2.688542    1.259881
     18          1           0        0.367253    2.820994    2.046745
     19          1           0       -0.136860    3.313362    0.423063
     20          1           0        0.902934    4.375756    1.387147
     21          6           0       -2.575811   -0.524933   -0.518671
     22          6           0       -3.644010    0.532194   -0.236858
     23          6           0       -4.238957    1.126487   -1.513826
     24          1           0       -1.775762   -0.076468   -1.123439
     25          1           0       -3.015429   -1.327199   -1.127356
     26          1           0       -3.202874    1.331548    0.372280
     27          1           0       -4.441517    0.081211    0.367472
     28          1           0       -4.704585    0.344354   -2.122152
     29          1           0       -3.458904    1.601794   -2.117317
     30          1           0       -5.000361    1.879907   -1.289143
     31          6           0       -1.971614   -1.128350    0.748043
     32          6           0       -0.903415   -2.185476    0.466231
     33          6           0       -0.308468   -2.779770    1.743199
     34          1           0       -1.531996   -0.326083    1.356728
     35          1           0       -2.771664   -1.576815    1.352811
     36          1           0       -0.105909   -1.734494   -0.138099
     37          1           0       -1.344551   -2.984830   -0.142907
     38          1           0       -1.088521   -3.255077    2.346690
     39          1           0        0.157160   -1.997636    2.351525
     40          1           0        0.452936   -3.533189    1.518516
 ---------------------------------------------------------------------

 SCF Done:  E(RHF) =  -470.732404949     A.U. after   11 cycles
 E2 =    -0.1585327451D+01 EUMP2 =    -0.47231773239960D+03

 The electronic state is 1-A.
 Alpha  occ. eigenvalues --  -11.21699 -11.21653 -11.21556 -11.21517 -11.21447
 Alpha  occ. eigenvalues --  -11.21378 -11.21333 -11.21244 -11.21167 -11.21117
 Alpha  occ. eigenvalues --  -11.21052 -11.21034  -1.08555  -1.08327  -1.03632
 Alpha  occ. eigenvalues --   -1.03446  -0.96066  -0.95924  -0.87083  -0.86940
 Alpha  occ. eigenvalues --   -0.79780  -0.79467  -0.78439  -0.78081  -0.65168
 Alpha  occ. eigenvalues --   -0.64980  -0.61020  -0.60887  -0.59487  -0.59236
 Alpha  occ. eigenvalues --   -0.57714  -0.57493  -0.55361  -0.55214  -0.52760
 Alpha  occ. eigenvalues --   -0.52615  -0.52496  -0.52345  -0.50017  -0.49869
 Alpha  occ. eigenvalues --   -0.48213  -0.47755  -0.46709  -0.46607  -0.46185
 Alpha  occ. eigenvalues --   -0.45857  -0.45570  -0.45122  -0.43867  -0.43704
 Alpha virt. eigenvalues --    0.19814   0.22203   0.23501   0.23823   0.24936
 Alpha virt. eigenvalues --    0.26320   0.27273   0.27820   0.28962   0.30092
 Alpha virt. eigenvalues --    0.30817   0.31194   0.31809   0.31967   0.32172

 Mulliken charges:
               1
     1  C   -0.297584
     2  C   -0.307320
     3  C   -0.474694
     4  H    0.149844
     5  H    0.149895
     6  H    0.153255
     7  H    0.158683
     8  H    0.155311
     9  H    0.155185
    10  H    0.160598
    11  C   -0.303909
    12  C   -0.299682
    13  C   -0.476316
    14  H    0.151596
    15  H    0.151866
    16  H    0.152400
    17  H    0.152474
    18  H    0.155133
    19  H    0.155166
    20  H    0.160994
    21  C   -0.299843
    22  C   -0.300173
    23  C   -0.475533
    24  H    0.149939
    25  H    0.149265
    26  H    0.152639
    27  H    0.151991
    28  H    0.155125
    29  H    0.154381
    30  H    0.160252
    31  C   -0.298170
    32  C   -0.310082
    33  C   -0.476810
    34  H    0.150608
    35  H    0.148702
    36  H    0.165738
    37  H    0.150445
    38  H    0.155238
    39  H    0.153823
    40  H    0.159571
 Sum of Mulliken charges =  -0.00000

 Dipole moment (field-independent basis, Debye):
    X=              0.0804    Y=              0.0262    Z=             -0.0148  Tot=              0.0858
 Quadrupole moment (field-independent basis, Debye-Ang):
   XX=            -85.0923   YY=            -84.8827   ZZ=            -84.8373
   XY=              1.1883   XZ=              0.1866   YZ=             -0.0343

 Normal termination of Gaussian 16 at Wed May  5 19:57:32 2021.
