 Gaussian 16, Revision A.03,
 Gaussian 16:  EM64L-G16RevA.03 25-Dec-2016

 -------------
 #p 6-31g* mp2
 -------------

 ------------------------------------------------------
 Input file generated by CHIRIPA (05-May-2021 14:57:25)
 ------------------------------------------------------
 Symbolic Z-matrix:
 Charge =  0 Multiplicity = 1

                         Standard orientation:
 ---------------------------------------------------------------------
 Center     Atomic      Atomic             Coordinates (Angstroms)
 Number     Number       Type             X           Y           Z
 ---------------------------------------------------------------------
      1          6           0        2.897276    2.660013    0.432047
      2          6           0        3.479613    1.814409    1.381973
      3          6           0        3.568948    0.438928    1.148265
      4          6           0        3.063497   -0.059324   -0.051549
      5          6           0        2.477669    0.757377   -1.017517
      6          6           0        2.399041    2.129734   -0.762560
      7          1           0        2.832038    3.727307    0.621851
      8          1           0        3.867386    2.223449    2.310608
      9          1           0        4.014805   -0.238472    1.866429
     10          1           0        2.099935    0.320311   -1.933873
     11          1           0        1.946270    2.784056   -1.502091
     12          7           0        3.152405   -1.513830   -0.310213
     13          8           0        2.699657   -1.928041   -1.375148
     14          8           0        3.673154   -2.212120    0.556879
     15          6           0       -2.139481   -2.522955    0.235636
     16          6           0       -1.394458   -1.544262   -0.430416
     17          6           0       -1.888441   -0.243028   -0.562014
     18          6           0       -3.136758    0.046074   -0.013001
     19          6           0       -3.902835   -0.907095    0.656243
     20          6           0       -3.389087   -2.201813    0.775887
     21          1           0       -1.748065   -3.531254    0.333222
     22          1           0       -0.423692   -1.790810   -0.850976
     23          1           0       -1.332665    0.533991   -1.072673
     24          1           0       -4.867325   -0.631249    1.065003
     25          1           0       -3.969882   -2.959852    1.293674
     26          7           0       -3.670178    1.420183   -0.145990
     27          8           0       -4.772663    1.649490    0.346535
     28          8           0       -2.975686    2.241884   -0.740233
 ---------------------------------------------------------------------

 SCF Done:  E(RHF) =  -868.340304149     A.U. after   16 cycles
 E2 =    -0.2599214231D+01 EUMP2 =    -0.87093951837974D+03

 The electronic state is 1-A.
 Alpha  occ. eigenvalues --  -20.61643 -20.61594 -20.60796 -20.60775 -15.86627
 Alpha  occ. eigenvalues --  -15.85834 -11.31733 -11.31023 -11.28282 -11.28228
 Alpha  occ. eigenvalues --  -11.27870 -11.27563 -11.27559 -11.27178 -11.27178
 Alpha  occ. eigenvalues --  -11.27167 -11.26529 -11.26391  -1.60678  -1.59864
 Alpha  occ. eigenvalues --   -1.40240  -1.39425  -1.19859  -1.19155  -1.09288
 Alpha  occ. eigenvalues --   -1.08565  -1.05219  -1.04526  -0.96173  -0.95441
 Alpha  occ. eigenvalues --   -0.86620  -0.85918  -0.83014  -0.82281  -0.78113
 Alpha  occ. eigenvalues --   -0.77365  -0.72846  -0.72060  -0.71987  -0.71183
 Alpha  occ. eigenvalues --   -0.70937  -0.70238  -0.65505  -0.65194  -0.64796
 Alpha  occ. eigenvalues --   -0.64485  -0.62577  -0.61870  -0.55681  -0.54981
 Alpha  occ. eigenvalues --   -0.53558  -0.53290  -0.52869  -0.52591  -0.49629
 Alpha  occ. eigenvalues --   -0.49580  -0.48825  -0.48791  -0.45682  -0.44871
 Alpha  occ. eigenvalues --   -0.37791  -0.37102  -0.36822  -0.36124
 Alpha virt. eigenvalues --    0.04351   0.05151   0.10805   0.11529   0.15896
 Alpha virt. eigenvalues --    0.16707   0.20615   0.21946   0.26061   0.27446
 Alpha virt. eigenvalues --    0.28390   0.28984   0.30244   0.31405   0.32477

 Mulliken charges:
               1
     1  C   -0.168838
     2  C   -0.217793
     3  C   -0.170611
     4  C    0.158525
     5  C   -0.178189
     6  C   -0.217387
     7  H    0.230623
     8  H    0.226060
     9  H    0.276062
    10  H    0.272490
    11  H    0.229736
    12  N    0.487525
    13  O   -0.466890
    14  O   -0.455951
    15  C   -0.171256
    16  C   -0.226779
    17  C   -0.171609
    18  C    0.158336
    19  C   -0.172106
    20  C   -0.218584
    21  H    0.230708
    22  H    0.237592
    23  H    0.268120
    24  H    0.274256
    25  H    0.223189
    26  N    0.488454
    27  O   -0.460438
    28  O   -0.465247
 Sum of Mulliken charges =  -0.00000

 Dipole moment (field-independent basis, Debye):
    X=              1.8262    Y=              0.3288    Z=              1.5168  Tot=              2.3966
 Quadrupole moment (field-independent basis, Debye-Ang):
   XX=           -114.9023   YY=           -105.8029   ZZ=           -100.5784
   XY=             32.9035   XZ=              1.5305   YZ=             -1.6760

 Normal termination of Gaussian 16 at Wed May  5 21:08:17 2021.
