 Gaussian 16, Revision A.03,
 Gaussian 16:  EM64L-G16RevA.03 25-Dec-2016

 -------------
 #p 6-31g* mp2
 -------------

 ------------------------------------------------------
 Input file generated by CHIRIPA (05-May-2021 14:57:22)
 ------------------------------------------------------
 Symbolic Z-matrix:
 Charge =  0 Multiplicity = 1

                         Standard orientation:
 ---------------------------------------------------------------------
 Center     Atomic      Atomic             Coordinates (Angstroms)
 Number     Number       Type             X           Y           Z
 ---------------------------------------------------------------------
      1          6           0        2.985518    1.805372    1.226041
      2          6           0        2.498340    0.662740    1.869136
      3          6           0        2.054579   -0.435326    1.126253
      4          6           0        2.112423   -0.356297   -0.264321
      5          6           0        2.592457    0.768020   -0.934222
      6          6           0        3.030941    1.854279   -0.171122
      7          1           0        3.328192    2.653790    1.810983
      8          1           0        2.461899    0.621956    2.954057
      9          1           0        1.672699   -1.332368    1.598378
     10          1           0        2.616516    0.779145   -2.017142
     11          1           0        3.408795    2.740357   -0.673256
     12          7           0        1.645426   -1.512521   -1.061480
     13          8           0        1.706744   -1.417964   -2.285382
     14          8           0        1.226919   -2.491432   -0.447296
     15          6           0       -1.956884   -1.960341    1.471465
     16          6           0       -1.924015   -0.719769    2.116772
     17          6           0       -2.051877    0.464708    1.385189
     18          6           0       -2.211867    0.371279    0.003536
     19          6           0       -2.248558   -0.849620   -0.668290
     20          6           0       -2.118765   -2.021200    0.083442
     21          1           0       -1.856807   -2.875462    2.047604
     22          1           0       -1.798415   -0.669472    3.194613
     23          1           0       -2.029911    1.438455    1.859270
     24          1           0       -2.375025   -0.867798   -1.743973
     25          1           0       -2.144655   -2.983247   -0.420384
     26          7           0       -2.348252    1.618405   -0.781623
     27          8           0       -2.488136    1.509112   -1.997815
     28          8           0       -2.312684    2.681583   -0.165971
 ---------------------------------------------------------------------

 SCF Done:  E(RHF) =  -868.339115963     A.U. after   16 cycles
 E2 =    -0.2602307115D+01 EUMP2 =    -0.87094142307788D+03

 The electronic state is 1-A.
 Alpha  occ. eigenvalues --  -20.61041 -20.61023 -20.60561 -20.60532 -15.86054
 Alpha  occ. eigenvalues --  -15.85595 -11.31252 -11.30845 -11.27863 -11.27771
 Alpha  occ. eigenvalues --  -11.27532 -11.27441 -11.27241 -11.27055 -11.26839
 Alpha  occ. eigenvalues --  -11.26734 -11.26492 -11.26215  -1.60097  -1.59629
 Alpha  occ. eigenvalues --   -1.39657  -1.39183  -1.19418  -1.18986  -1.08845
 Alpha  occ. eigenvalues --   -1.08400  -1.04801  -1.04351  -0.95711  -0.95257
 Alpha  occ. eigenvalues --   -0.86206  -0.85753  -0.82555  -0.82084  -0.77622
 Alpha  occ. eigenvalues --   -0.77154  -0.72309  -0.71815  -0.71422  -0.70944
 Alpha  occ. eigenvalues --   -0.70530  -0.70073  -0.65080  -0.64812  -0.64626
 Alpha  occ. eigenvalues --   -0.64340  -0.62159  -0.61691  -0.55312  -0.54851
 Alpha  occ. eigenvalues --   -0.53216  -0.52917  -0.52609  -0.52428  -0.49072
 Alpha  occ. eigenvalues --   -0.49039  -0.48578  -0.48563  -0.45105  -0.44615
 Alpha  occ. eigenvalues --   -0.37428  -0.36920  -0.36496  -0.35748
 Alpha virt. eigenvalues --    0.04886   0.05349   0.11243   0.11725   0.16440
 Alpha virt. eigenvalues --    0.16903   0.21290   0.21916   0.27183   0.27867
 Alpha virt. eigenvalues --    0.28192   0.28784   0.30850   0.31442   0.32437

 Mulliken charges:
               1
     1  C   -0.168975
     2  C   -0.220396
     3  C   -0.166560
     4  C    0.156595
     5  C   -0.169492
     6  C   -0.216891
     7  H    0.226674
     8  H    0.220061
     9  H    0.270365
    10  H    0.278147
    11  H    0.226531
    12  N    0.488513
    13  O   -0.458652
    14  O   -0.466276
    15  C   -0.171178
    16  C   -0.223848
    17  C   -0.171846
    18  C    0.156421
    19  C   -0.178164
    20  C   -0.201666
    21  H    0.225658
    22  H    0.217668
    23  H    0.271189
    24  H    0.279464
    25  H    0.232179
    26  N    0.487986
    27  O   -0.458794
    28  O   -0.464715
 Sum of Mulliken charges =  -0.00000

 Dipole moment (field-independent basis, Debye):
    X=              2.1845    Y=             -0.4470    Z=              5.3297  Tot=              5.7773
 Quadrupole moment (field-independent basis, Debye-Ang):
   XX=           -101.2008   YY=           -108.8968   ZZ=            -99.8468
   XY=             19.9241   XZ=             -1.1161   YZ=             -0.8077

 Normal termination of Gaussian 16 at Thu May  6 16:15:03 2021.
