 Gaussian 16, Revision A.03,
 Gaussian 16:  EM64L-G16RevA.03 25-Dec-2016

 -------------
 #p 6-31g* mp2
 -------------

 ------------------------------------------------------
 Input file generated by CHIRIPA (05-May-2021 14:53:12)
 ------------------------------------------------------
 Symbolic Z-matrix:
 Charge =  0 Multiplicity = 1

                         Standard orientation:
 ---------------------------------------------------------------------
 Center     Atomic      Atomic             Coordinates (Angstroms)
 Number     Number       Type             X           Y           Z
 ---------------------------------------------------------------------
      1          6           0       -3.213903    1.138921    0.170411
      2          6           0       -1.969579    2.002569   -0.038767
      3          6           0       -2.040076    3.332610    0.712110
      4          1           0       -4.100582    1.699401   -0.156096
      5          1           0       -3.342880    0.948100    1.244817
      6          1           0       -1.842207    2.190550   -1.112571
      7          1           0       -1.085739    1.439895    0.288098
      8          1           0       -2.143376    3.162239    1.788635
      9          1           0       -2.904142    3.917159    0.380007
     10          1           0       -1.140454    3.934114    0.548608
     11          6           0       -3.158343   -0.193971   -0.573927
     12          6           0       -4.402667   -1.057619   -0.364749
     13          6           0       -4.332170   -2.387660   -1.115626
     14          1           0       -3.029366   -0.003151   -1.648333
     15          1           0       -2.271664   -0.754452   -0.247420
     16          1           0       -5.286507   -0.494945   -0.691614
     17          1           0       -4.530039   -1.245600    0.709055
     18          1           0       -3.468104   -2.972210   -0.783523
     19          1           0       -4.228870   -2.217289   -2.192150
     20          1           0       -5.231792   -2.989164   -0.952123
     21          6           0        0.910195   -1.828167    1.478223
     22          6           0        0.707880   -0.445065    1.427039
     23          6           0        1.576415    0.373065    0.698438
     24          6           0        2.641807   -0.228066    0.029953
     25          6           0        2.869868   -1.602935    0.061788
     26          6           0        1.988641   -2.401676    0.796635
     27          1           0        0.230567   -2.456179    2.046644
     28          1           0       -0.128814    0.003080    1.955388
     29          1           0        1.443163    1.446595    0.641907
     30          1           0        3.712786   -2.020695   -0.475226
     31          1           0        2.148211   -3.475519    0.834613
     32          7           0        3.568003    0.627788   -0.744691
     33          8           0        4.499134    0.073731   -1.324908
     34          8           0        3.345286    1.836459   -0.756972
 ---------------------------------------------------------------------

 SCF Done:  E(RHF) =  -669.534490784     A.U. after   15 cycles
 E2 =    -0.2093448720D+01 EUMP2 =    -0.67162793950348D+03

 The electronic state is 1-A.
 Alpha  occ. eigenvalues --  -20.60801 -20.60795 -15.85855 -11.31246 -11.27821
 Alpha  occ. eigenvalues --  -11.27812 -11.27580 -11.26842 -11.26833 -11.22134
 Alpha  occ. eigenvalues --  -11.22105 -11.21971 -11.21865 -11.21578 -11.21544
 Alpha  occ. eigenvalues --   -1.59875  -1.39428  -1.19433  -1.08988  -1.08815
 Alpha  occ. eigenvalues --   -1.04855  -1.04058  -0.96500  -0.95649  -0.87512
 Alpha  occ. eigenvalues --   -0.86234  -0.82503  -0.80128  -0.78800  -0.77513
 Alpha  occ. eigenvalues --   -0.72074  -0.71198  -0.70539  -0.65724  -0.65084
 Alpha  occ. eigenvalues --   -0.64804  -0.62304  -0.61364  -0.59850  -0.58100
 Alpha  occ. eigenvalues --   -0.55800  -0.55335  -0.53250  -0.53111  -0.52954
 Alpha  occ. eigenvalues --   -0.52886  -0.50448  -0.48835  -0.48828  -0.48425
 Alpha  occ. eigenvalues --   -0.47177  -0.46313  -0.46260  -0.44826  -0.44305
 Alpha  occ. eigenvalues --   -0.37405  -0.36364
 Alpha virt. eigenvalues --    0.04978   0.11112   0.16329   0.19744   0.22845
 Alpha virt. eigenvalues --    0.23586   0.25885   0.26277   0.27205   0.28414
 Alpha virt. eigenvalues --    0.29205   0.29762   0.31222   0.31362   0.32306

 Mulliken charges:
               1
     1  C   -0.298455
     2  C   -0.307721
     3  C   -0.477808
     4  H    0.153237
     5  H    0.144007
     6  H    0.158875
     7  H    0.148038
     8  H    0.151243
     9  H    0.159309
    10  H    0.164408
    11  C   -0.300609
    12  C   -0.299817
    13  C   -0.475261
    14  H    0.153378
    15  H    0.147860
    16  H    0.154140
    17  H    0.149053
    18  H    0.152252
    19  H    0.157744
    20  H    0.161269
    21  C   -0.172736
    22  C   -0.218141
    23  C   -0.169014
    24  C    0.156964
    25  C   -0.170765
    26  C   -0.218496
    27  H    0.225974
    28  H    0.225840
    29  H    0.277557
    30  H    0.275971
    31  H    0.223848
    32  N    0.488243
    33  O   -0.460246
    34  O   -0.460140
 Sum of Mulliken charges =  -0.00000

 Dipole moment (field-independent basis, Debye):
    X=             -3.2680    Y=             -2.9901    Z=              2.6213  Tot=              5.1470
 Quadrupole moment (field-independent basis, Debye-Ang):
   XX=           -110.7395   YY=            -90.8658   ZZ=            -94.5445
   XY=            -10.1926   XZ=              7.0038   YZ=             -0.5348

 Normal termination of Gaussian 16 at Thu May  6 07:17:06 2021.
