 Gaussian 16, Revision A.03,
 Gaussian 16:  EM64L-G16RevA.03 25-Dec-2016

 -------------
 #p 6-31g* mp2
 -------------

 ------------------------------------------------------
 Input file generated by CHIRIPA (05-May-2021 14:57:24)
 ------------------------------------------------------
 Symbolic Z-matrix:
 Charge =  0 Multiplicity = 1

                         Standard orientation:
 ---------------------------------------------------------------------
 Center     Atomic      Atomic             Coordinates (Angstroms)
 Number     Number       Type             X           Y           Z
 ---------------------------------------------------------------------
      1          6           0       -1.876197    0.604924    0.463854
      2          6           0       -2.639852    1.455598   -0.342189
      3          6           0       -3.978926    1.161545   -0.615976
      4          6           0       -4.524732    0.003249   -0.064855
      5          6           0       -3.789823   -0.864104    0.741926
      6          6           0       -2.452603   -0.550176    1.002390
      7          1           0       -0.836692    0.841071    0.671363
      8          1           0       -2.194841    2.353352   -0.761771
      9          1           0       -4.593010    1.802633   -1.236722
     10          1           0       -4.261189   -1.751777    1.145992
     11          1           0       -1.861938   -1.212652    1.628716
     12          7           0       -5.941369   -0.318573   -0.347649
     13          8           0       -6.398790   -1.345157    0.149873
     14          8           0       -6.567483    0.461861   -1.061469
     15          6           0        6.703055   -0.314344   -0.676407
     16          6           0        6.252909    0.899975   -0.147898
     17          6           0        4.918736    1.054282    0.240327
     18          6           0        4.058090   -0.031341    0.085404
     19          6           0        4.476432   -1.253812   -0.437897
     20          6           0        5.814946   -1.385472   -0.819468
     21          1           0        7.741158   -0.425418   -0.975405
     22          1           0        6.940388    1.733532   -0.035650
     23          1           0        4.543646    1.983235    0.652361
     24          1           0        3.767537   -2.066781   -0.537718
     25          1           0        6.161747   -2.329695   -1.229612
     26          7           0        2.643363    0.120031    0.492878
     27          8           0        1.905043   -0.851569    0.346199
     28          8           0        2.299608    1.207409    0.951221
 ---------------------------------------------------------------------

 SCF Done:  E(RHF) =  -868.341987897     A.U. after   16 cycles
 E2 =    -0.2598461894D+01 EUMP2 =    -0.87094044979069D+03

 The electronic state is 1-A.
 Alpha  occ. eigenvalues --  -20.62165 -20.62152 -20.59842 -20.59836 -15.87119
 Alpha  occ. eigenvalues --  -15.84888 -11.32089 -11.29968 -11.28604 -11.28594
 Alpha  occ. eigenvalues --  -11.28267 -11.27522 -11.27510 -11.26563 -11.26522
 Alpha  occ. eigenvalues --  -11.25894 -11.25408 -11.25318  -1.61193  -1.58925
 Alpha  occ. eigenvalues --   -1.40752  -1.38487  -1.20219  -1.18097  -1.09692
 Alpha  occ. eigenvalues --   -1.07478  -1.05556  -1.03479  -0.96592  -0.94368
 Alpha  occ. eigenvalues --   -0.86973  -0.84849  -0.83438  -0.81239  -0.78529
 Alpha  occ. eigenvalues --   -0.76380  -0.73348  -0.72467  -0.71317  -0.71110
 Alpha  occ. eigenvalues --   -0.70249  -0.69029  -0.65872  -0.65552  -0.63716
 Alpha  occ. eigenvalues --   -0.63447  -0.62905  -0.60851  -0.56077  -0.53913
 Alpha  occ. eigenvalues --   -0.53749  -0.53640  -0.51809  -0.51542  -0.50128
 Alpha  occ. eigenvalues --   -0.50074  -0.47883  -0.47836  -0.46238  -0.43959
 Alpha  occ. eigenvalues --   -0.38172  -0.37139  -0.35963  -0.35120
 Alpha virt. eigenvalues --    0.03971   0.06172   0.10523   0.12565   0.15557
 Alpha virt. eigenvalues --    0.17770   0.20707   0.22988   0.26653   0.27574
 Alpha virt. eigenvalues --    0.28587   0.29956   0.30431   0.31768   0.32844

 Mulliken charges:
               1
     1  C   -0.177000
     2  C   -0.222010
     3  C   -0.172372
     4  C    0.156235
     5  C   -0.172916
     6  C   -0.220742
     7  H    0.252120
     8  H    0.220559
     9  H    0.270791
    10  H    0.271174
    11  H    0.226985
    12  N    0.488414
    13  O   -0.463877
    14  O   -0.464283
    15  C   -0.169236
    16  C   -0.218601
    17  C   -0.170278
    18  C    0.158271
    19  C   -0.170122
    20  C   -0.218602
    21  H    0.228782
    22  H    0.226085
    23  H    0.275939
    24  H    0.276633
    25  H    0.226428
    26  N    0.489553
    27  O   -0.462759
    28  O   -0.465170
 Sum of Mulliken charges =  -0.00000

 Dipole moment (field-independent basis, Debye):
    X=             10.8393    Y=              0.5582    Z=             -0.4058  Tot=             10.8613
 Quadrupole moment (field-independent basis, Debye-Ang):
   XX=           -110.9633   YY=            -97.2450   ZZ=           -104.7031
   XY=             -6.9814   XZ=            -10.2899   YZ=             -1.0704

 Normal termination of Gaussian 16 at Wed May  5 16:24:03 2021.
