 Gaussian 16, Revision A.03,
 Gaussian 16:  EM64L-G16RevA.03 25-Dec-2016

 -------------
 #p 6-31g* mp2
 -------------

 ------------------------------------------------------
 Input file generated by CHIRIPA (05-May-2021 14:57:23)
 ------------------------------------------------------
 Symbolic Z-matrix:
 Charge =  0 Multiplicity = 1

                         Standard orientation:
 ---------------------------------------------------------------------
 Center     Atomic      Atomic             Coordinates (Angstroms)
 Number     Number       Type             X           Y           Z
 ---------------------------------------------------------------------
      1          6           0        4.838791    2.094903   -0.300468
      2          6           0        5.201548    0.892193   -0.915624
      3          6           0        4.473029   -0.276479   -0.674765
      4          6           0        3.382526   -0.206027    0.190757
      5          6           0        2.996208    0.977054    0.818744
      6          6           0        3.739217    2.133427    0.563230
      7          1           0        5.410350    2.997979   -0.493265
      8          1           0        6.055026    0.859309   -1.586846
      9          1           0        4.731899   -1.220996   -1.137683
     10          1           0        2.140517    0.978580    1.482980
     11          1           0        3.455192    3.066060    1.042365
     12          7           0        2.603606   -1.436738    0.453501
     13          8           0        1.647008   -1.348283    1.220139
     14          8           0        2.964434   -2.466521   -0.112174
     15          6           0       -5.327184    1.737739    0.094173
     16          6           0       -4.000729    2.135832   -0.102192
     17          6           0       -2.986203    1.183458   -0.237356
     18          6           0       -3.335309   -0.164498   -0.170813
     19          6           0       -4.647600   -0.592616    0.023866
     20          6           0       -5.645824    0.377185    0.156466
     21          1           0       -6.108960    2.484335    0.198176
     22          1           0       -3.750342    3.191754   -0.150984
     23          1           0       -1.951108    1.463863   -0.390228
     24          1           0       -4.866364   -1.652616    0.068138
     25          1           0       -6.675108    0.065109    0.308877
     26          7           0       -2.269905   -1.181959   -0.312548
     27          8           0       -2.603500   -2.363258   -0.250237
     28          8           0       -1.121420   -0.778878   -0.483265
 ---------------------------------------------------------------------

 SCF Done:  E(RHF) =  -868.335421181     A.U. after   16 cycles
 E2 =    -0.2600585330D+01 EUMP2 =    -0.87093600651115D+03

 The electronic state is 1-A.
 Alpha  occ. eigenvalues --  -20.60029 -20.59983 -20.59643 -20.59535 -15.85077
 Alpha  occ. eigenvalues --  -15.84653 -11.30770 -11.30435 -11.27405 -11.27355
 Alpha  occ. eigenvalues --  -11.27179 -11.27068 -11.27051 -11.26903 -11.26488
 Alpha  occ. eigenvalues --  -11.26445 -11.26201 -11.26168  -1.59066  -1.58634
 Alpha  occ. eigenvalues --   -1.38620  -1.38186  -1.18971  -1.18651  -1.08302
 Alpha  occ. eigenvalues --   -1.07970  -1.04428  -1.04126  -0.95085  -0.94735
 Alpha  occ. eigenvalues --   -0.85810  -0.85503  -0.81926  -0.81577  -0.76919
 Alpha  occ. eigenvalues --   -0.76545  -0.71333  -0.70876  -0.70402  -0.70087
 Alpha  occ. eigenvalues --   -0.69909  -0.69771  -0.64620  -0.64438  -0.64302
 Alpha  occ. eigenvalues --   -0.64147  -0.61778  -0.61474  -0.54917  -0.54627
 Alpha  occ. eigenvalues --   -0.52733  -0.52530  -0.52423  -0.52234  -0.48075
 Alpha  occ. eigenvalues --   -0.48029  -0.47638  -0.47603  -0.44043  -0.43364
 Alpha  occ. eigenvalues --   -0.36965  -0.36652  -0.36047  -0.35750
 Alpha virt. eigenvalues --    0.05599   0.06067   0.11604   0.11901   0.17038
 Alpha virt. eigenvalues --    0.17468   0.21662   0.21954   0.27516   0.27814
 Alpha virt. eigenvalues --    0.28539   0.28938   0.31123   0.31503   0.32717

 Mulliken charges:
               1
     1  C   -0.172324
     2  C   -0.218618
     3  C   -0.171127
     4  C    0.162139
     5  C   -0.170140
     6  C   -0.219295
     7  H    0.222087
     8  H    0.221035
     9  H    0.275496
    10  H    0.274450
    11  H    0.218724
    12  N    0.490207
    13  O   -0.449815
    14  O   -0.462654
    15  C   -0.171848
    16  C   -0.218386
    17  C   -0.171191
    18  C    0.160336
    19  C   -0.171037
    20  C   -0.218358
    21  H    0.223651
    22  H    0.220148
    23  H    0.272157
    24  H    0.276360
    25  H    0.222428
    26  N    0.488425
    27  O   -0.458286
    28  O   -0.454564
 Sum of Mulliken charges =  -0.00000

 Dipole moment (field-independent basis, Debye):
    X=             -1.1042    Y=              7.6279    Z=             -0.3900  Tot=              7.7173
 Quadrupole moment (field-independent basis, Debye-Ang):
   XX=            -59.5415   YY=           -104.9894   ZZ=           -104.9412
   XY=              3.7326   XZ=             -6.3545   YZ=              1.6355

 Normal termination of Gaussian 16 at Thu May  6 01:49:14 2021.
