 Gaussian 16, Revision A.03,
 Gaussian 16:  EM64L-G16RevA.03 25-Dec-2016

 -------------
 #p 6-31g* mp2
 -------------

 ------------------------------------------------------
 Input file generated by CHIRIPA (05-May-2021 14:53:16)
 ------------------------------------------------------
 Symbolic Z-matrix:
 Charge =  0 Multiplicity = 1

                         Standard orientation:
 ---------------------------------------------------------------------
 Center     Atomic      Atomic             Coordinates (Angstroms)
 Number     Number       Type             X           Y           Z
 ---------------------------------------------------------------------
      1          6           0       -2.630630   -0.111099   -0.750285
      2          6           0       -1.630412   -1.265287   -0.823768
      3          6           0       -0.362187   -0.900234   -1.595868
      4          1           0       -2.897050    0.200276   -1.769604
      5          1           0       -2.147388    0.754000   -0.275442
      6          1           0       -2.115825   -2.128401   -1.297079
      7          1           0       -1.366488   -1.574077    0.195844
      8          1           0        0.147327   -0.054896   -1.122159
      9          1           0       -0.606268   -0.612370   -2.623564
     10          1           0        0.338952   -1.739665   -1.636106
     11          6           0       -3.903640   -0.460663    0.018466
     12          6           0       -4.903858    0.693525    0.091950
     13          6           0       -6.172082    0.328473    0.864049
     14          1           0       -4.386882   -1.325762   -0.456377
     15          1           0       -3.637220   -0.772038    1.037785
     16          1           0       -5.167781    1.002315   -0.927662
     17          1           0       -4.418445    1.556639    0.565261
     18          1           0       -5.928002    0.040608    1.891746
     19          1           0       -6.681596   -0.516866    0.390340
     20          1           0       -6.873222    1.167904    0.904287
     21          6           0        2.839669   -2.244810    0.723636
     22          6           0        3.291729   -1.689769   -0.478068
     23          6           0        3.137854   -0.323488   -0.731334
     24          6           0        2.524682    0.461956    0.243544
     25          6           0        2.063823   -0.061474    1.450574
     26          6           0        2.228236   -1.430326    1.682431
     27          1           0        2.963295   -3.307169    0.912064
     28          1           0        3.766944   -2.319900   -1.224494
     29          1           0        3.478595    0.132299   -1.653056
     30          1           0        1.593991    0.592055    2.175541
     31          1           0        1.876193   -1.858643    2.616592
     32          7           0        2.356203    1.909739   -0.013244
     33          8           0        1.812717    2.580286    0.861757
     34          8           0        2.770826    2.346551   -1.084655
 ---------------------------------------------------------------------

 SCF Done:  E(RHF) =  -669.533800578     A.U. after   15 cycles
 E2 =    -0.2094209774D+01 EUMP2 =    -0.67162801035221D+03

 The electronic state is 1-A.
 Alpha  occ. eigenvalues --  -20.60826 -20.60815 -15.85870 -11.31174 -11.27818
 Alpha  occ. eigenvalues --  -11.27768 -11.27575 -11.26848 -11.26807 -11.21567
 Alpha  occ. eigenvalues --  -11.21470 -11.21315 -11.21224 -11.20985 -11.20908
 Alpha  occ. eigenvalues --   -1.59901  -1.39453  -1.19421  -1.08820  -1.08335
 Alpha  occ. eigenvalues --   -1.04818  -1.03441  -0.95896  -0.95641  -0.86916
 Alpha  occ. eigenvalues --   -0.86218  -0.82478  -0.79519  -0.78147  -0.77520
 Alpha  occ. eigenvalues --   -0.72092  -0.71248  -0.70527  -0.65070  -0.64976
 Alpha  occ. eigenvalues --   -0.64824  -0.62163  -0.60880  -0.59284  -0.57508
 Alpha  occ. eigenvalues --   -0.55383  -0.55312  -0.53320  -0.52912  -0.52357
 Alpha  occ. eigenvalues --   -0.52252  -0.49747  -0.48850  -0.48848  -0.47836
 Alpha  occ. eigenvalues --   -0.46545  -0.45690  -0.45613  -0.44855  -0.43701
 Alpha  occ. eigenvalues --   -0.37312  -0.36372
 Alpha virt. eigenvalues --    0.04981   0.11172   0.16465   0.21349   0.22907
 Alpha virt. eigenvalues --    0.24316   0.26662   0.27210   0.27549   0.28049
 Alpha virt. eigenvalues --    0.28280   0.30676   0.31387   0.31934   0.31983

 Mulliken charges:
               1
     1  C   -0.299789
     2  C   -0.298876
     3  C   -0.475857
     4  H    0.150959
     5  H    0.154212
     6  H    0.149571
     7  H    0.147267
     8  H    0.156207
     9  H    0.155175
    10  H    0.156772
    11  C   -0.297691
    12  C   -0.300091
    13  C   -0.475591
    14  H    0.148213
    15  H    0.146997
    16  H    0.152687
    17  H    0.154536
    18  H    0.154092
    19  H    0.154277
    20  H    0.160867
    21  C   -0.170628
    22  C   -0.217454
    23  C   -0.166384
    24  C    0.155768
    25  C   -0.171975
    26  C   -0.216924
    27  H    0.226012
    28  H    0.223746
    29  H    0.275854
    30  H    0.275469
    31  H    0.223712
    32  N    0.489942
    33  O   -0.461199
    34  O   -0.459878
 Sum of Mulliken charges =  -0.00000

 Dipole moment (field-independent basis, Debye):
    X=              0.6988    Y=             -5.0567    Z=              0.8995  Tot=              5.1834
 Quadrupole moment (field-independent basis, Debye-Ang):
   XX=            -92.1966   YY=           -100.0742   ZZ=            -90.0557
   XY=            -13.3353   XZ=              1.0471   YZ=             -0.0514

 Normal termination of Gaussian 16 at Thu May  6 01:11:07 2021.
