 Gaussian 16, Revision A.03,
 Gaussian 16:  EM64L-G16RevA.03 25-Dec-2016

 -------------
 #p 6-31g* mp2
 -------------

 ------------------------------------------------------
 Input file generated by CHIRIPA (05-May-2021 14:51:13)
 ------------------------------------------------------
 Symbolic Z-matrix:
 Charge =  0 Multiplicity = 1

                         Standard orientation:
 ---------------------------------------------------------------------
 Center     Atomic      Atomic             Coordinates (Angstroms)
 Number     Number       Type             X           Y           Z
 ---------------------------------------------------------------------
      1          6           0       -2.225932    0.629070    0.227327
      2          6           0       -1.755718    2.016850    0.664305
      3          6           0       -0.306128    2.023915    1.150549
      4          1           0       -2.116225   -0.069777    1.067876
      5          1           0       -1.568127    0.261696   -0.572501
      6          1           0       -2.415052    2.382081    1.462116
      7          1           0       -1.866736    2.712518   -0.177323
      8          1           0        0.367893    1.684356    0.357456
      9          1           0       -0.183537    1.352041    2.006211
     10          1           0        0.009315    3.025831    1.457991
     11          6           0       -3.673120    0.605813   -0.261377
     12          6           0       -4.143334   -0.781967   -0.698355
     13          6           0       -5.592924   -0.789032   -1.184599
     14          1           0       -4.330925    0.973187    0.538451
     15          1           0       -3.782827    1.304660   -1.101926
     16          1           0       -4.032316   -1.477635    0.143273
     17          1           0       -3.484001   -1.147197   -1.496166
     18          1           0       -5.715515   -0.117158   -2.040261
     19          1           0       -6.266945   -0.449473   -0.391506
     20          1           0       -5.908367   -1.790948   -1.492041
     21          6           0        2.218746   -0.598949    0.238497
     22          6           0        1.717523   -1.935134    0.787473
     23          6           0        0.253848   -1.882235    1.226390
     24          1           0        2.092592    0.176298    1.006626
     25          1           0        1.590383   -0.301153   -0.612308
     26          1           0        2.347503   -2.230999    1.636122
     27          1           0        1.845062   -2.707329    0.018017
     28          1           0       -0.391290   -1.611338    0.384360
     29          1           0        0.114006   -1.132302    2.011658
     30          1           0       -0.083752   -2.847891    1.615484
     31          6           0        3.680306   -0.635934   -0.204448
     32          6           0        4.181529    0.700251   -0.753423
     33          6           0        5.645205    0.647351   -1.192340
     34          1           0        4.308669   -0.933730    0.646359
     35          1           0        3.806460   -1.411182   -0.972575
     36          1           0        4.053989    1.472446    0.016033
     37          1           0        3.551548    0.996116   -1.602071
     38          1           0        5.785046   -0.102581   -1.977607
     39          1           0        6.290342    0.376455   -0.350309
     40          1           0        5.982804    1.613008   -1.581434
 ---------------------------------------------------------------------

 SCF Done:  E(RHF) =  -470.729323041     A.U. after   11 cycles
 E2 =    -0.1586065745D+01 EUMP2 =    -0.47231538878602D+03

 The electronic state is 1-A.
 Alpha  occ. eigenvalues --  -11.21584 -11.21582 -11.21520 -11.21513 -11.21338
 Alpha  occ. eigenvalues --  -11.21330 -11.21257 -11.21241 -11.21057 -11.21056
 Alpha  occ. eigenvalues --  -11.20897 -11.20864  -1.08448  -1.08321  -1.03555
 Alpha  occ. eigenvalues --   -1.03400  -0.96008  -0.95854  -0.87082  -0.86832
 Alpha  occ. eigenvalues --   -0.79841  -0.79411  -0.78447  -0.77862  -0.65094
 Alpha  occ. eigenvalues --   -0.64952  -0.61002  -0.60795  -0.59469  -0.59151
 Alpha  occ. eigenvalues --   -0.57758  -0.57376  -0.55268  -0.55171  -0.52860
 Alpha  occ. eigenvalues --   -0.52620  -0.52569  -0.51959  -0.49937  -0.49831
 Alpha  occ. eigenvalues --   -0.48436  -0.47600  -0.46787  -0.46450  -0.46065
 Alpha  occ. eigenvalues --   -0.45745  -0.45453  -0.44811  -0.43728  -0.43717
 Alpha virt. eigenvalues --    0.21683   0.23121   0.23617   0.24268   0.24797
 Alpha virt. eigenvalues --    0.26188   0.26317   0.27680   0.28289   0.29926
 Alpha virt. eigenvalues --    0.30208   0.31694   0.31781   0.31850   0.32337

 Mulliken charges:
               1
     1  C   -0.302616
     2  C   -0.299448
     3  C   -0.481493
     4  H    0.157167
     5  H    0.148417
     6  H    0.150986
     7  H    0.150983
     8  H    0.163681
     9  H    0.154843
    10  H    0.158595
    11  C   -0.297312
    12  C   -0.300173
    13  C   -0.475493
    14  H    0.149267
    15  H    0.148928
    16  H    0.152458
    17  H    0.150965
    18  H    0.155092
    19  H    0.155243
    20  H    0.160141
    21  C   -0.303130
    22  C   -0.299577
    23  C   -0.480950
    24  H    0.157305
    25  H    0.147863
    26  H    0.150921
    27  H    0.150935
    28  H    0.163208
    29  H    0.155476
    30  H    0.158292
    31  C   -0.297271
    32  C   -0.300138
    33  C   -0.475517
    34  H    0.149373
    35  H    0.149039
    36  H    0.152368
    37  H    0.151072
    38  H    0.155109
    39  H    0.155242
    40  H    0.160151
 Sum of Mulliken charges =  -0.00000

 Dipole moment (field-independent basis, Debye):
    X=             -0.0021    Y=              0.0025    Z=              0.0155  Tot=              0.0158
 Quadrupole moment (field-independent basis, Debye-Ang):
   XX=            -86.9478   YY=            -84.9854   ZZ=            -83.3126
   XY=              0.0063   XZ=             -0.0539   YZ=              0.0654

 Normal termination of Gaussian 16 at Wed May  5 23:12:11 2021.
