 Gaussian 16, Revision A.03,
 Gaussian 16:  EM64L-G16RevA.03 25-Dec-2016

 -------------
 #p 6-31g* mp2
 -------------

 ------------------------------------------------------
 Input file generated by CHIRIPA (05-May-2021 14:53:13)
 ------------------------------------------------------
 Symbolic Z-matrix:
 Charge =  0 Multiplicity = 1

                         Standard orientation:
 ---------------------------------------------------------------------
 Center     Atomic      Atomic             Coordinates (Angstroms)
 Number     Number       Type             X           Y           Z
 ---------------------------------------------------------------------
      1          6           0        4.004442    0.099261    0.899709
      2          6           0        2.541673   -0.341581    0.962567
      3          6           0        1.826999    0.158463    2.218349
      4          1           0        4.529738   -0.266642    1.792527
      5          1           0        4.051410    1.196434    0.937113
      6          1           0        2.497404   -1.437548    0.923660
      7          1           0        2.019844    0.025250    0.069401
      8          1           0        1.841521    1.252377    2.260071
      9          1           0        2.321795   -0.218732    3.119184
     10          1           0        0.782688   -0.168146    2.242884
     11          6           0        4.732329   -0.392902   -0.349965
     12          6           0        6.195098    0.047940   -0.412823
     13          6           0        6.909772   -0.452104   -1.668605
     14          1           0        4.685361   -1.490076   -0.387369
     15          1           0        4.207033   -0.027000   -1.242783
     16          1           0        6.716927   -0.318891    0.480343
     17          1           0        6.239366    1.143907   -0.373916
     18          1           0        6.414976   -0.074909   -2.569440
     19          1           0        6.895250   -1.546018   -1.710327
     20          1           0        7.954083   -0.125495   -1.693140
     21          6           0       -1.877926    2.117029   -0.242587
     22          6           0       -1.352569    0.834932   -0.050892
     23          6           0       -2.193594   -0.281726   -0.033641
     24          6           0       -3.561187   -0.078874   -0.212052
     25          6           0       -4.114828    1.185822   -0.405229
     26          6           0       -3.254952    2.288080   -0.418834
     27          1           0       -1.217275    2.978883   -0.254573
     28          1           0       -0.283556    0.699092    0.086243
     29          1           0       -1.813540   -1.285480    0.112835
     30          1           0       -5.184734    1.289628   -0.539191
     31          1           0       -3.665746    3.282600   -0.567910
     32          7           0       -4.461522   -1.253408   -0.195719
     33          8           0       -5.662775   -1.048011   -0.355214
     34          8           0       -3.948903   -2.357165   -0.023732
 ---------------------------------------------------------------------

 SCF Done:  E(RHF) =  -669.535222980     A.U. after   15 cycles
 E2 =    -0.2091696470D+01 EUMP2 =    -0.67162691944935D+03

 The electronic state is 1-A.
 Alpha  occ. eigenvalues --  -20.60725 -20.60720 -15.85778 -11.31137 -11.27706
 Alpha  occ. eigenvalues --  -11.27691 -11.27436 -11.26725 -11.26647 -11.22646
 Alpha  occ. eigenvalues --  -11.22165 -11.22102 -11.22050 -11.21981 -11.21474
 Alpha  occ. eigenvalues --   -1.59801  -1.39355  -1.19305  -1.09168  -1.08701
 Alpha  occ. eigenvalues --   -1.04713  -1.04270  -0.96701  -0.95539  -0.87710
 Alpha  occ. eigenvalues --   -0.86104  -0.82373  -0.80356  -0.78944  -0.77422
 Alpha  occ. eigenvalues --   -0.71997  -0.71124  -0.70417  -0.65852  -0.64956
 Alpha  occ. eigenvalues --   -0.64729  -0.62207  -0.61563  -0.60047  -0.58297
 Alpha  occ. eigenvalues --   -0.55981  -0.55195  -0.53433  -0.53166  -0.53005
 Alpha  occ. eigenvalues --   -0.52690  -0.50636  -0.48759  -0.48752  -0.48655
 Alpha  occ. eigenvalues --   -0.47394  -0.46483  -0.46384  -0.44762  -0.44507
 Alpha  occ. eigenvalues --   -0.37285  -0.36299
 Alpha virt. eigenvalues --    0.05099   0.11322   0.16533   0.19771   0.22580
 Alpha virt. eigenvalues --    0.23824   0.25669   0.26336   0.26965   0.27942
 Alpha virt. eigenvalues --    0.29078   0.30057   0.30830   0.30968   0.31929

 Mulliken charges:
               1
     1  C   -0.297421
     2  C   -0.307596
     3  C   -0.481653
     4  H    0.153429
     5  H    0.149169
     6  H    0.157827
     7  H    0.144683
     8  H    0.154066
     9  H    0.163324
    10  H    0.159931
    11  C   -0.299107
    12  C   -0.300197
    13  C   -0.476128
    14  H    0.151865
    15  H    0.149067
    16  H    0.153333
    17  H    0.151807
    18  H    0.155384
    19  H    0.156540
    20  H    0.161756
    21  C   -0.173893
    22  C   -0.227125
    23  C   -0.175478
    24  C    0.159022
    25  C   -0.171286
    26  C   -0.218338
    27  H    0.225545
    28  H    0.240409
    29  H    0.275644
    30  H    0.275390
    31  H    0.223111
    32  N    0.488109
    33  O   -0.460680
    34  O   -0.460510
 Sum of Mulliken charges =  -0.00000

 Dipole moment (field-independent basis, Debye):
    X=              3.4046    Y=              4.0963    Z=             -0.0014  Tot=              5.3265
 Quadrupole moment (field-independent basis, Debye-Ang):
   XX=           -114.0019   YY=            -93.3421   ZZ=            -95.7619
   XY=            -18.0669   XZ=              1.0855   YZ=             -2.1566

 Normal termination of Gaussian 16 at Thu May  6 17:02:20 2021.
