 Gaussian 16, Revision A.03,
 Gaussian 16:  EM64L-G16RevA.03 25-Dec-2016

 -------------
 #p 6-31g* mp2
 -------------

 ------------------------------------------------------
 Input file generated by CHIRIPA (05-May-2021 14:57:23)
 ------------------------------------------------------
 Symbolic Z-matrix:
 Charge =  0 Multiplicity = 1

                         Standard orientation:
 ---------------------------------------------------------------------
 Center     Atomic      Atomic             Coordinates (Angstroms)
 Number     Number       Type             X           Y           Z
 ---------------------------------------------------------------------
      1          6           0        1.259321    0.638072   -0.956482
      2          6           0        1.558406   -0.685715   -0.617870
      3          6           0        2.855207   -1.046268   -0.239906
      4          6           0        3.832926   -0.053021   -0.211339
      5          6           0        3.566162    1.274408   -0.543090
      6          6           0        2.262386    1.612191   -0.918079
      7          1           0        0.249226    0.909315   -1.248938
      8          1           0        0.781416   -1.444328   -0.646798
      9          1           0        3.114297   -2.063592    0.027191
     10          1           0        4.361813    2.008502   -0.504805
     11          1           0        2.033000    2.641048   -1.180530
     12          7           0        5.209483   -0.422670    0.187220
     13          8           0        6.053034    0.471066    0.204412
     14          8           0        5.418813   -1.599137    0.474872
     15          6           0       -1.411944    0.605067    1.361498
     16          6           0       -2.355055    1.598775    1.079353
     17          6           0       -3.574092    1.270671    0.478649
     18          6           0       -3.818170   -0.067161    0.172184
     19          6           0       -2.898704   -1.079932    0.440818
     20          6           0       -1.686295   -0.728764    1.041894
     21          1           0       -0.467542    0.868905    1.828284
     22          1           0       -2.144698    2.635470    1.326456
     23          1           0       -4.322021    2.019923    0.249216
     24          1           0       -3.136919   -2.104685    0.182834
     25          1           0       -0.955728   -1.502592    1.259858
     26          7           0       -5.105202   -0.426719   -0.463952
     27          8           0       -5.296159   -1.612676   -0.724105
     28          8           0       -5.898651    0.484223   -0.690357
 ---------------------------------------------------------------------

 SCF Done:  E(RHF) =  -868.336628629     A.U. after   16 cycles
 E2 =    -0.2602284025D+01 EUMP2 =    -0.87093891265357D+03

 The electronic state is 1-A.
 Alpha  occ. eigenvalues --  -20.61502 -20.61497 -20.61336 -20.61331 -15.86566
 Alpha  occ. eigenvalues --  -15.86397 -11.32090 -11.31866 -11.28724 -11.28704
 Alpha  occ. eigenvalues --  -11.28486 -11.28465 -11.28415 -11.28144 -11.27724
 Alpha  occ. eigenvalues --  -11.27696 -11.27473 -11.27454  -1.60577  -1.60412
 Alpha  occ. eigenvalues --   -1.40126  -1.39962  -1.20319  -1.20067  -1.09692
 Alpha  occ. eigenvalues --   -1.09398  -1.05749  -1.05485  -0.96479  -0.96210
 Alpha  occ. eigenvalues --   -0.87170  -0.86817  -0.83306  -0.83049  -0.78333
 Alpha  occ. eigenvalues --   -0.78096  -0.72775  -0.72607  -0.71910  -0.71742
 Alpha  occ. eigenvalues --   -0.71399  -0.71071  -0.65959  -0.65900  -0.65696
 Alpha  occ. eigenvalues --   -0.65336  -0.63130  -0.62745  -0.56201  -0.55936
 Alpha  occ. eigenvalues --   -0.54197  -0.53875  -0.53678  -0.53441  -0.49548
 Alpha  occ. eigenvalues --   -0.49523  -0.49374  -0.49359  -0.45496  -0.45345
 Alpha  occ. eigenvalues --   -0.38758  -0.37611  -0.37423  -0.37007
 Alpha virt. eigenvalues --    0.03972   0.04671   0.09810   0.10876   0.15243
 Alpha virt. eigenvalues --    0.16237   0.19879   0.21343   0.25214   0.27508
 Alpha virt. eigenvalues --    0.27635   0.27734   0.29590   0.31213   0.31609

 Mulliken charges:
               1
     1  C   -0.174215
     2  C   -0.225235
     3  C   -0.171905
     4  C    0.158113
     5  C   -0.170029
     6  C   -0.222704
     7  H    0.233398
     8  H    0.221800
     9  H    0.276398
    10  H    0.277488
    11  H    0.224518
    12  N    0.488085
    13  O   -0.458830
    14  O   -0.459372
    15  C   -0.173140
    16  C   -0.224214
    17  C   -0.169976
    18  C    0.158018
    19  C   -0.172359
    20  C   -0.226423
    21  H    0.233675
    22  H    0.225840
    23  H    0.278422
    24  H    0.277699
    25  H    0.223648
    26  N    0.488104
    27  O   -0.458541
    28  O   -0.458260
 Sum of Mulliken charges =  -0.00000

 Dipole moment (field-independent basis, Debye):
    X=             -0.3974    Y=              2.6524    Z=              0.8506  Tot=              2.8137
 Quadrupole moment (field-independent basis, Debye-Ang):
   XX=           -176.2327   YY=            -95.9698   ZZ=           -104.8105
   XY=              0.1659   XZ=            -12.5278   YZ=             -0.7012

 Normal termination of Gaussian 16 at Thu May  6 16:18:39 2021.
