 Gaussian 16, Revision A.03,
 Gaussian 16:  EM64L-G16RevA.03 25-Dec-2016

 -------------
 #p 6-31g* mp2
 -------------

 ------------------------------------------------------
 Input file generated by CHIRIPA (05-May-2021 14:57:23)
 ------------------------------------------------------
 Symbolic Z-matrix:
 Charge =  0 Multiplicity = 1

                         Standard orientation:
 ---------------------------------------------------------------------
 Center     Atomic      Atomic             Coordinates (Angstroms)
 Number     Number       Type             X           Y           Z
 ---------------------------------------------------------------------
      1          6           0       -4.581940    1.664445    0.706960
      2          6           0       -4.522996    0.346534    1.171885
      3          6           0       -3.595275   -0.553486    0.639114
      4          6           0       -2.737748   -0.099831   -0.361953
      5          6           0       -2.771992    1.206952   -0.846139
      6          6           0       -3.707791    2.089699   -0.298795
      7          1           0       -5.305754    2.356894    1.126490
      8          1           0       -5.200632    0.013505    1.952876
      9          1           0       -3.528039   -1.579316    0.980539
     10          1           0       -2.083422    1.509728   -1.625637
     11          1           0       -3.751303    3.112625   -0.661801
     12          7           0       -1.751335   -1.043498   -0.933688
     13          8           0       -1.006886   -0.619171   -1.814811
     14          8           0       -1.741312   -2.189603   -0.489864
     15          6           0        1.493596   -2.063827    0.863093
     16          6           0        1.832684   -1.129950    1.847681
     17          6           0        2.611622   -0.013543    1.529189
     18          6           0        3.036318    0.138442    0.210166
     19          6           0        2.715021   -0.774495   -0.793132
     20          6           0        1.935067   -1.883436   -0.451854
     21          1           0        0.888103   -2.928179    1.119354
     22          1           0        1.491232   -1.267478    2.869710
     23          1           0        2.888732    0.724882    2.271725
     24          1           0        3.070165   -0.610362   -1.803256
     25          1           0        1.673257   -2.607078   -1.218564
     26          7           0        3.861482    1.316380   -0.139069
     27          8           0        4.223171    1.427452   -1.308462
     28          8           0        4.130932    2.106272    0.763208
 ---------------------------------------------------------------------

 SCF Done:  E(RHF) =  -868.340276450     A.U. after   16 cycles
 E2 =    -0.2600585942D+01 EUMP2 =    -0.87094086239126D+03

 The electronic state is 1-A.
 Alpha  occ. eigenvalues --  -20.61600 -20.61532 -20.60004 -20.59987 -15.86551
 Alpha  occ. eigenvalues --  -15.85040 -11.31683 -11.30123 -11.28253 -11.28182
 Alpha  occ. eigenvalues --  -11.27912 -11.27201 -11.27146 -11.26731 -11.26555
 Alpha  occ. eigenvalues --  -11.26212 -11.25699 -11.25409  -1.60603  -1.59081
 Alpha  occ. eigenvalues --   -1.40171  -1.38641  -1.19830  -1.18255  -1.09272
 Alpha  occ. eigenvalues --   -1.07681  -1.05196  -1.03604  -0.96153  -0.94565
 Alpha  occ. eigenvalues --   -0.86605  -0.85005  -0.82999  -0.81409  -0.78071
 Alpha  occ. eigenvalues --   -0.76514  -0.72825  -0.71905  -0.71265  -0.70936
 Alpha  occ. eigenvalues --   -0.70402  -0.69292  -0.65488  -0.65198  -0.63887
 Alpha  occ. eigenvalues --   -0.63587  -0.62546  -0.60965  -0.55707  -0.54043
 Alpha  occ. eigenvalues --   -0.53542  -0.53283  -0.51986  -0.51685  -0.49587
 Alpha  occ. eigenvalues --   -0.49523  -0.48035  -0.47994  -0.45630  -0.44110
 Alpha  occ. eigenvalues --   -0.37806  -0.36788  -0.36170  -0.35144
 Alpha virt. eigenvalues --    0.04435   0.06004   0.10871   0.12477   0.15982
 Alpha virt. eigenvalues --    0.17595   0.21035   0.22658   0.26964   0.27896
 Alpha virt. eigenvalues --    0.28524   0.29525   0.30639   0.32020   0.32324

 Mulliken charges:
               1
     1  C   -0.169977
     2  C   -0.218666
     3  C   -0.171681
     4  C    0.159426
     5  C   -0.169785
     6  C   -0.218401
     7  H    0.227611
     8  H    0.224043
     9  H    0.272789
    10  H    0.278208
    11  H    0.226616
    12  N    0.490897
    13  O   -0.457125
    14  O   -0.470766
    15  C   -0.171602
    16  C   -0.223286
    17  C   -0.174764
    18  C    0.155291
    19  C   -0.169265
    20  C   -0.204346
    21  H    0.231386
    22  H    0.216935
    23  H    0.269826
    24  H    0.273975
    25  H    0.232296
    26  N    0.488069
    27  O   -0.462065
    28  O   -0.465640
 Sum of Mulliken charges =  -0.00000

 Dipole moment (field-independent basis, Debye):
    X=             -6.7401    Y=             -0.9214    Z=              2.9640  Tot=              7.4205
 Quadrupole moment (field-independent basis, Debye-Ang):
   XX=           -104.8757   YY=           -104.1451   ZZ=           -100.2119
   XY=            -21.6672   XZ=             -3.2281   YZ=             -2.8065

 Normal termination of Gaussian 16 at Thu May  6 09:45:05 2021.
