 Gaussian 16, Revision A.03,
 Gaussian 16:  EM64L-G16RevA.03 25-Dec-2016

 -------------
 #p 6-31g* mp2
 -------------

 ------------------------------------------------------
 Input file generated by CHIRIPA (05-May-2021 14:51:09)
 ------------------------------------------------------
 Symbolic Z-matrix:
 Charge =  0 Multiplicity = 1

                         Standard orientation:
 ---------------------------------------------------------------------
 Center     Atomic      Atomic             Coordinates (Angstroms)
 Number     Number       Type             X           Y           Z
 ---------------------------------------------------------------------
      1          6           0        3.650606    0.701811    0.338633
      2          6           0        4.575413    1.159646   -0.789686
      3          6           0        5.130930    2.566266   -0.564709
      4          1           0        2.820098    1.414440    0.435384
      5          1           0        4.200772    0.732048    1.289316
      6          1           0        4.024078    1.127234   -1.738156
      7          1           0        5.403714    0.445741   -0.883889
      8          1           0        5.704475    2.609511    0.366837
      9          1           0        4.317000    3.294877   -0.492284
     10          1           0        5.789454    2.873485   -1.383136
     11          6           0        3.087301   -0.702497    0.128078
     12          6           0        2.162494   -1.160331    1.256398
     13          6           0        1.606977   -2.566952    1.031420
     14          1           0        2.537135   -0.732733   -0.822605
     15          1           0        3.917810   -1.415126    0.031327
     16          1           0        1.334194   -0.446426    1.350600
     17          1           0        2.713830   -1.127919    2.204867
     18          1           0        2.420908   -3.295562    0.958995
     19          1           0        1.033433   -2.610197    0.099874
     20          1           0        0.948454   -2.874171    1.849847
     21          6           0       -3.575669    0.517032    0.289839
     22          6           0       -4.595482    1.531142   -0.229342
     23          6           0       -4.999187    2.558258    0.828887
     24          1           0       -3.994681   -0.000183    1.163832
     25          1           0       -2.683022    1.052493    0.641772
     26          1           0       -5.485381    0.993833   -0.581468
     27          1           0       -4.174069    2.045867   -1.102317
     28          1           0       -4.125044    3.119983    1.173764
     29          1           0       -5.443807    2.061972    1.697572
     30          1           0       -5.728828    3.273431    0.436447
     31          6           0       -3.162238   -0.516346   -0.756551
     32          6           0       -2.142426   -1.530457   -0.237369
     33          6           0       -1.738721   -2.557573   -1.295599
     34          1           0       -4.054885   -1.051808   -1.108484
     35          1           0       -2.743227    0.000868   -1.630544
     36          1           0       -2.563839   -2.045182    0.635606
     37          1           0       -1.252525   -0.993148    0.114757
     38          1           0       -1.294100   -2.061286   -2.164283
     39          1           0       -2.612863   -3.119297   -1.640477
     40          1           0       -1.009078   -3.272746   -0.903159
 ---------------------------------------------------------------------

 SCF Done:  E(RHF) =  -470.732968146     A.U. after   11 cycles
 E2 =    -0.1583160116D+01 EUMP2 =    -0.47231612826266D+03

 The electronic state is 1-A.
 Alpha  occ. eigenvalues --  -11.21619 -11.21617 -11.21609 -11.21607 -11.21424
 Alpha  occ. eigenvalues --  -11.21419 -11.21365 -11.21359 -11.21086 -11.21085
 Alpha  occ. eigenvalues --  -11.21068 -11.21011  -1.08462  -1.08428  -1.03589
 Alpha  occ. eigenvalues --   -1.03493  -0.96055  -0.95927  -0.87061  -0.86955
 Alpha  occ. eigenvalues --   -0.79624  -0.79583  -0.78263  -0.78251  -0.65168
 Alpha  occ. eigenvalues --   -0.65000  -0.61151  -0.60791  -0.59385  -0.59330
 Alpha  occ. eigenvalues --   -0.57694  -0.57540  -0.55382  -0.55133  -0.52791
 Alpha  occ. eigenvalues --   -0.52644  -0.52491  -0.52269  -0.49957  -0.49861
 Alpha  occ. eigenvalues --   -0.47969  -0.47871  -0.46670  -0.46582  -0.45843
 Alpha  occ. eigenvalues --   -0.45785  -0.45732  -0.45664  -0.43802  -0.43778
 Alpha virt. eigenvalues --    0.20675   0.23213   0.23499   0.24865   0.26069
 Alpha virt. eigenvalues --    0.26716   0.26945   0.27383   0.28209   0.29148
 Alpha virt. eigenvalues --    0.30630   0.30824   0.31593   0.31713   0.32335

 Mulliken charges:
               1
     1  C   -0.298237
     2  C   -0.299651
     3  C   -0.475699
     4  H    0.149235
     5  H    0.149670
     6  H    0.151831
     7  H    0.152066
     8  H    0.155255
     9  H    0.155070
    10  H    0.160310
    11  C   -0.298478
    12  C   -0.301369
    13  C   -0.481824
    14  H    0.149430
    15  H    0.149872
    16  H    0.152610
    17  H    0.152072
    18  H    0.154702
    19  H    0.162927
    20  H    0.160337
    21  C   -0.298168
    22  C   -0.299654
    23  C   -0.475712
    24  H    0.149818
    25  H    0.149024
    26  H    0.152043
    27  H    0.151859
    28  H    0.155130
    29  H    0.155255
    30  H    0.160314
    31  C   -0.298165
    32  C   -0.302945
    33  C   -0.479912
    34  H    0.149731
    35  H    0.149319
    36  H    0.152295
    37  H    0.155460
    38  H    0.154181
    39  H    0.155731
    40  H    0.164270
 Sum of Mulliken charges =  -0.00000

 Dipole moment (field-independent basis, Debye):
    X=             -0.0060    Y=             -0.0177    Z=              0.0015  Tot=              0.0187
 Quadrupole moment (field-independent basis, Debye-Ang):
   XX=            -83.9215   YY=            -85.8867   ZZ=            -84.9221
   XY=              0.0121   XZ=              0.3773   YZ=             -0.9352

 Normal termination of Gaussian 16 at Wed May  5 16:37:57 2021.
