 Gaussian 16, Revision A.03,
 Gaussian 16:  EM64L-G16RevA.03 25-Dec-2016

 -------------
 #p 6-31g* mp2
 -------------

 ------------------------------------------------------
 Input file generated by CHIRIPA (05-May-2021 14:53:13)
 ------------------------------------------------------
 Symbolic Z-matrix:
 Charge =  0 Multiplicity = 1

                         Standard orientation:
 ---------------------------------------------------------------------
 Center     Atomic      Atomic             Coordinates (Angstroms)
 Number     Number       Type             X           Y           Z
 ---------------------------------------------------------------------
      1          6           0       -4.640422    0.501914   -0.050475
      2          6           0       -6.083942    0.040305    0.152385
      3          6           0       -7.087482    1.192066    0.087972
      4          1           0       -4.390830    1.250766    0.713639
      5          1           0       -4.557698    1.007614   -1.022493
      6          1           0       -6.163613   -0.465595    1.123124
      7          1           0       -6.330065   -0.707676   -0.612183
      8          1           0       -7.037280    1.692840   -0.884296
      9          1           0       -6.869881    1.936297    0.860870
     10          1           0       -8.113098    0.839642    0.235514
     11          6           0       -3.625470   -0.638171    0.011215
     12          6           0       -2.181950   -0.176561   -0.191645
     13          6           0       -1.178410   -1.328322   -0.127231
     14          1           0       -3.708194   -1.143871    0.983233
     15          1           0       -3.875062   -1.387022   -0.752899
     16          1           0       -1.935827    0.571419    0.572923
     17          1           0       -2.102279    0.329338   -1.162384
     18          1           0       -1.396011   -2.072553   -0.900130
     19          1           0       -1.228612   -1.829097    0.845037
     20          1           0       -0.152794   -0.975898   -0.274774
     21          6           0        3.866459    2.494296   -0.008500
     22          6           0        3.617831    1.823981   -1.210741
     23          6           0        3.263839    0.471488   -1.209513
     24          6           0        3.167223   -0.182768    0.017640
     25          6           0        3.408728    0.457486    1.232152
     26          6           0        3.761300    1.810115    1.206966
     27          1           0        4.140897    3.544998   -0.018760
     28          1           0        3.698745    2.352789   -2.156182
     29          1           0        3.065881   -0.071798   -2.125520
     30          1           0        3.320119   -0.096369    2.158873
     31          1           0        3.953813    2.328139    2.142186
     32          7           0        2.793220   -1.614665    0.031622
     33          8           0        2.714815   -2.168514    1.126036
     34          8           0        2.585563   -2.156022   -1.052097
 ---------------------------------------------------------------------

 SCF Done:  E(RHF) =  -669.535550161     A.U. after   15 cycles
 E2 =    -0.2091295732D+01 EUMP2 =    -0.67162684589323D+03

 The electronic state is 1-A.
 Alpha  occ. eigenvalues --  -20.60786 -20.60781 -15.85827 -11.31218 -11.27787
 Alpha  occ. eigenvalues --  -11.27782 -11.27530 -11.26803 -11.26793 -11.21416
 Alpha  occ. eigenvalues --  -11.21211 -11.21168 -11.21039 -11.20944 -11.20407
 Alpha  occ. eigenvalues --   -1.59858  -1.39410  -1.19390  -1.08784  -1.08144
 Alpha  occ. eigenvalues --   -1.04792  -1.03206  -0.95635  -0.95614  -0.86643
 Alpha  occ. eigenvalues --   -0.86191  -0.82444  -0.79271  -0.77957  -0.77489
 Alpha  occ. eigenvalues --   -0.72051  -0.71202  -0.70495  -0.65042  -0.64794
 Alpha  occ. eigenvalues --   -0.64777  -0.62139  -0.60600  -0.59025  -0.57258
 Alpha  occ. eigenvalues --   -0.55293  -0.54912  -0.53123  -0.52885  -0.52320
 Alpha  occ. eigenvalues --   -0.52054  -0.49564  -0.48811  -0.48806  -0.47588
 Alpha  occ. eigenvalues --   -0.46316  -0.45491  -0.45427  -0.44803  -0.43454
 Alpha  occ. eigenvalues --   -0.37370  -0.36395
 Alpha virt. eigenvalues --    0.05040   0.11247   0.16508   0.21395   0.23125
 Alpha virt. eigenvalues --    0.24548   0.26927   0.27301   0.27748   0.28023
 Alpha virt. eigenvalues --    0.28406   0.30672   0.31768   0.31816   0.32127

 Mulliken charges:
               1
     1  C   -0.297687
     2  C   -0.299491
     3  C   -0.475474
     4  H    0.148068
     5  H    0.148238
     6  H    0.152162
     7  H    0.152325
     8  H    0.154495
     9  H    0.154312
    10  H    0.159961
    11  C   -0.298252
    12  C   -0.300264
    13  C   -0.471379
    14  H    0.150161
    15  H    0.150499
    16  H    0.148253
    17  H    0.148794
    18  H    0.159627
    19  H    0.159192
    20  H    0.154544
    21  C   -0.170641
    22  C   -0.218392
    23  C   -0.171745
    24  C    0.155679
    25  C   -0.170923
    26  C   -0.218580
    27  H    0.225731
    28  H    0.223603
    29  H    0.276048
    30  H    0.275846
    31  H    0.223546
    32  N    0.489715
    33  O   -0.458931
    34  O   -0.459041
 Sum of Mulliken charges =  -0.00000

 Dipole moment (field-independent basis, Debye):
    X=              1.4052    Y=              4.9599    Z=             -0.0412  Tot=              5.1552
 Quadrupole moment (field-independent basis, Debye-Ang):
   XX=            -88.2678   YY=            -97.5905   ZZ=            -88.7037
   XY=             16.8515   XZ=              0.3082   YZ=              0.2282

 Normal termination of Gaussian 16 at Thu May  6 12:03:13 2021.
