 Gaussian 16, Revision A.03,
 Gaussian 16:  EM64L-G16RevA.03 25-Dec-2016

 -------------
 #p 6-31g* mp2
 -------------

 ------------------------------------------------------
 Input file generated by CHIRIPA (05-May-2021 14:53:12)
 ------------------------------------------------------
 Symbolic Z-matrix:
 Charge =  0 Multiplicity = 1

                         Standard orientation:
 ---------------------------------------------------------------------
 Center     Atomic      Atomic             Coordinates (Angstroms)
 Number     Number       Type             X           Y           Z
 ---------------------------------------------------------------------
      1          6           0       -2.978756   -0.328358    0.354219
      2          6           0       -4.171674    0.481604   -0.154596
      3          6           0       -4.890751    1.239729    0.961634
      4          1           0       -3.324706   -1.038416    1.117816
      5          1           0       -2.271538    0.348060    0.853915
      6          1           0       -4.875772   -0.195934   -0.654399
      7          1           0       -3.822875    1.189684   -0.917208
      8          1           0       -4.207262    1.938113    1.455296
      9          1           0       -5.266142    0.544622    1.719599
     10          1           0       -5.740146    1.811966    0.575716
     11          6           0       -2.249646   -1.091823   -0.749977
     12          6           0       -1.056728   -1.901786   -0.241162
     13          6           0       -0.337650   -2.659910   -1.357392
     14          1           0       -2.956864   -1.768241   -1.249673
     15          1           0       -1.903696   -0.381765   -1.513574
     16          1           0       -1.405527   -2.609866    0.521450
     17          1           0       -0.352629   -1.224247    0.258641
     18          1           0        0.037740   -1.964803   -2.115356
     19          1           0       -1.021139   -3.358294   -1.851054
     20          1           0        0.511745   -3.232147   -0.971473
     21          6           0        2.657013   -1.576815    1.356468
     22          6           0        2.145397   -0.490913    2.074511
     23          6           0        1.801438    0.695060    1.418990
     24          6           0        1.982920    0.760830    0.038400
     25          6           0        2.490364   -0.303781   -0.704830
     26          6           0        2.827563   -1.479954   -0.028471
     27          1           0        2.921582   -2.494301    1.873786
     28          1           0        2.011876   -0.563294    3.150140
     29          1           0        1.403340    1.550993    1.950324
     30          1           0        2.612199   -0.201676   -1.776347
     31          1           0        3.224678   -2.321680   -0.588686
     32          7           0        1.622365    2.011180   -0.666601
     33          8           0        1.791762    2.043837   -1.883514
     34          8           0        1.177192    2.934871    0.011080
 ---------------------------------------------------------------------

 SCF Done:  E(RHF) =  -669.534562035     A.U. after   15 cycles
 E2 =    -0.2095198492D+01 EUMP2 =    -0.67162976052701D+03

 The electronic state is 1-A.
 Alpha  occ. eigenvalues --  -20.60884 -20.60879 -15.85937 -11.31311 -11.27862
 Alpha  occ. eigenvalues --  -11.27842 -11.27595 -11.26891 -11.26860 -11.21543
 Alpha  occ. eigenvalues --  -11.21377 -11.21286 -11.21237 -11.21226 -11.20854
 Alpha  occ. eigenvalues --   -1.59961  -1.39513  -1.19494  -1.08875  -1.08322
 Alpha  occ. eigenvalues --   -1.04885  -1.03442  -0.95920  -0.95705  -0.86945
 Alpha  occ. eigenvalues --   -0.86273  -0.82532  -0.79518  -0.78133  -0.77579
 Alpha  occ. eigenvalues --   -0.72152  -0.71292  -0.70574  -0.65129  -0.64972
 Alpha  occ. eigenvalues --   -0.64878  -0.62228  -0.60901  -0.59340  -0.57557
 Alpha  occ. eigenvalues --   -0.55372  -0.55282  -0.53156  -0.52979  -0.52526
 Alpha  occ. eigenvalues --   -0.52341  -0.49862  -0.48913  -0.48908  -0.47814
 Alpha  occ. eigenvalues --   -0.46494  -0.45661  -0.45552  -0.44912  -0.43709
 Alpha  occ. eigenvalues --   -0.37455  -0.36417
 Alpha virt. eigenvalues --    0.04933   0.11072   0.16425   0.20991   0.22955
 Alpha virt. eigenvalues --    0.24315   0.26537   0.26581   0.27482   0.28104
 Alpha virt. eigenvalues --    0.28719   0.30021   0.31375   0.31788   0.32136

 Mulliken charges:
               1
     1  C   -0.297946
     2  C   -0.300150
     3  C   -0.476046
     4  H    0.146828
     5  H    0.149416
     6  H    0.150758
     7  H    0.156869
     8  H    0.157015
     9  H    0.152712
    10  H    0.160840
    11  C   -0.299589
    12  C   -0.305723
    13  C   -0.472523
    14  H    0.148708
    15  H    0.153853
    16  H    0.147730
    17  H    0.160752
    18  H    0.153886
    19  H    0.154548
    20  H    0.150810
    21  C   -0.171371
    22  C   -0.216468
    23  C   -0.174745
    24  C    0.159184
    25  C   -0.170568
    26  C   -0.213306
    27  H    0.226317
    28  H    0.224419
    29  H    0.275936
    30  H    0.275922
    31  H    0.224549
    32  N    0.487928
    33  O   -0.460218
    34  O   -0.460328
 Sum of Mulliken charges =  -0.00000

 Dipole moment (field-independent basis, Debye):
    X=              1.3721    Y=             -4.3003    Z=              2.4976  Tot=              5.1587
 Quadrupole moment (field-independent basis, Debye-Ang):
   XX=            -89.9867   YY=           -101.2868   ZZ=            -91.3994
   XY=             -8.0118   XZ=              4.1450   YZ=              3.0558

 Normal termination of Gaussian 16 at Thu May  6 05:43:46 2021.
