 Gaussian 16, Revision A.03,
 Gaussian 16:  EM64L-G16RevA.03 25-Dec-2016

 -------------
 #p 6-31g* mp2
 -------------

 ------------------------------------------------------
 Input file generated by CHIRIPA (05-May-2021 14:55:24)
 ------------------------------------------------------
 Symbolic Z-matrix:
 Charge =  0 Multiplicity = 1

                         Standard orientation:
 ---------------------------------------------------------------------
 Center     Atomic      Atomic             Coordinates (Angstroms)
 Number     Number       Type             X           Y           Z
 ---------------------------------------------------------------------
      1          6           0       -5.116762   -0.954938   -0.750239
      2          6           0       -4.005165   -1.802687   -0.797099
      3          6           0       -2.782972   -1.401882   -0.249242
      4          6           0       -2.707576   -0.140977    0.340440
      5          6           0       -3.797158    0.726332    0.402717
      6          6           0       -5.009400    0.304645   -0.151537
      7          1           0       -6.062326   -1.274404   -1.178312
      8          1           0       -4.085624   -2.781446   -1.261428
      9          1           0       -1.906589   -2.038172   -0.271762
     10          1           0       -3.686183    1.696208    0.872231
     11          1           0       -5.871022    0.965115   -0.113703
     12          7           0       -1.418963    0.294391    0.923818
     13          8           0       -1.378517    1.410146    1.437716
     14          8           0       -0.473793   -0.488366    0.856124
     15          6           0        3.105345    0.490436   -0.681710
     16          6           0        2.694939    1.932416   -0.381304
     17          6           0        1.428440    2.354132   -1.126912
     18          1           0        3.260332    0.377827   -1.763488
     19          1           0        2.279182   -0.182202   -0.412624
     20          1           0        3.522151    2.602013   -0.649587
     21          1           0        2.541097    2.041654    0.699906
     22          1           0        0.586975    1.710001   -0.851897
     23          1           0        1.573605    2.273544   -2.209057
     24          1           0        1.153140    3.388297   -0.897628
     25          6           0        4.369741    0.054155    0.056322
     26          6           0        4.780148   -1.387826   -0.244085
     27          6           0        6.046646   -1.809541    0.501524
     28          1           0        5.195904    0.726793   -0.212765
     29          1           0        4.214754    0.166764    1.138100
     30          1           0        4.933989   -1.497063   -1.325295
     31          1           0        3.952934   -2.057422    0.024197
     32          1           0        5.901482   -1.728954    1.583667
     33          1           0        6.888111   -1.165411    0.226508
     34          1           0        6.321947   -2.843705    0.272239
 ---------------------------------------------------------------------

 SCF Done:  E(RHF) =  -669.536361906     A.U. after   15 cycles
 E2 =    -0.2092003248D+01 EUMP2 =    -0.67162836515434D+03

 The electronic state is 1-A.
 Alpha  occ. eigenvalues --  -20.61071 -20.61060 -15.86071 -11.31349 -11.27907
 Alpha  occ. eigenvalues --  -11.27902 -11.27636 -11.26900 -11.26890 -11.20707
 Alpha  occ. eigenvalues --  -11.20340 -11.20272 -11.20212 -11.19962 -11.19748
 Alpha  occ. eigenvalues --   -1.60121  -1.39673  -1.19512  -1.08927  -1.07238
 Alpha  occ. eigenvalues --   -1.04900  -1.02397  -0.95776  -0.94863  -0.86303
 Alpha  occ. eigenvalues --   -0.85892  -0.82614  -0.78501  -0.77675  -0.77029
 Alpha  occ. eigenvalues --   -0.72296  -0.71452  -0.70622  -0.65168  -0.64904
 Alpha  occ. eigenvalues --   -0.63841  -0.62247  -0.59772  -0.58258  -0.56478
 Alpha  occ. eigenvalues --   -0.55409  -0.54139  -0.53230  -0.52991  -0.51603
 Alpha  occ. eigenvalues --   -0.51308  -0.49089  -0.49069  -0.48770  -0.46818
 Alpha  occ. eigenvalues --   -0.45513  -0.45146  -0.44583  -0.44349  -0.42636
 Alpha  occ. eigenvalues --   -0.37487  -0.36497
 Alpha virt. eigenvalues --    0.04805   0.11159   0.16285   0.21279   0.24065
 Alpha virt. eigenvalues --    0.25448   0.27219   0.27695   0.28239   0.28749
 Alpha virt. eigenvalues --    0.28978   0.30849   0.32339   0.32471   0.32762

 Mulliken charges:
               1
     1  C   -0.170304
     2  C   -0.218615
     3  C   -0.170494
     4  C    0.158157
     5  C   -0.170333
     6  C   -0.218647
     7  H    0.226263
     8  H    0.224085
     9  H    0.275840
    10  H    0.276160
    11  H    0.224084
    12  N    0.487432
    13  O   -0.456824
    14  O   -0.461282
    15  C   -0.305721
    16  C   -0.296525
    17  C   -0.474758
    18  H    0.141091
    19  H    0.169038
    20  H    0.144163
    21  H    0.160759
    22  H    0.161220
    23  H    0.145486
    24  H    0.157150
    25  C   -0.297531
    26  C   -0.299161
    27  C   -0.475054
    28  H    0.144866
    29  H    0.152279
    30  H    0.148296
    31  H    0.153507
    32  H    0.155370
    33  H    0.153269
    34  H    0.156733
 Sum of Mulliken charges =  -0.00000

 Dipole moment (field-independent basis, Debye):
    X=             -4.9155    Y=             -1.5857    Z=             -1.8713  Tot=              5.4935
 Quadrupole moment (field-independent basis, Debye-Ang):
   XX=            -71.3648   YY=            -91.1624   ZZ=            -96.5059
   XY=              3.3684   XZ=              3.1700   YZ=              1.4916

 Normal termination of Gaussian 16 at Wed May  5 16:07:35 2021.
