 Gaussian 16, Revision A.03,
 Gaussian 16:  EM64L-G16RevA.03 25-Dec-2016

 -------------
 #p 6-31g* mp2
 -------------

 ------------------------------------------------------
 Input file generated by CHIRIPA (05-May-2021 14:55:25)
 ------------------------------------------------------
 Symbolic Z-matrix:
 Charge =  0 Multiplicity = 1

                         Standard orientation:
 ---------------------------------------------------------------------
 Center     Atomic      Atomic             Coordinates (Angstroms)
 Number     Number       Type             X           Y           Z
 ---------------------------------------------------------------------
      1          6           0        0.390767   -1.304557    0.047093
      2          6           0        0.735761   -0.238717    0.884640
      3          6           0        2.045497    0.249673    0.909396
      4          6           0        2.989197   -0.354095    0.079827
      5          6           0        2.676409   -1.417465   -0.765571
      6          6           0        1.360482   -1.889498   -0.773892
      7          1           0       -0.629072   -1.677597    0.034245
      8          1           0       -0.015256    0.217495    1.523301
      9          1           0        2.339880    1.073533    1.548154
     10          1           0        3.446942   -1.851797   -1.390914
     11          1           0        1.095417   -2.717377   -1.425354
     12          7           0        4.379033    0.154284    0.097336
     13          8           0        5.191960   -0.394897   -0.643061
     14          8           0        4.629143    1.092305    0.851125
     15          6           0       -2.939402    0.983728    0.129493
     16          6           0       -2.564834    2.086438   -0.861322
     17          6           0       -1.375592    2.924589   -0.391214
     18          1           0       -3.170682    1.437353    1.102983
     19          1           0       -2.069442    0.331335    0.287436
     20          1           0       -3.435661    2.735748   -1.018407
     21          1           0       -2.334606    1.630152   -1.832616
     22          1           0       -0.491065    2.294524   -0.252540
     23          1           0       -1.598377    3.406401    0.566296
     24          1           0       -1.124886    3.706873   -1.114428
     25          6           0       -4.126544    0.137249   -0.326464
     26          6           0       -4.501112   -0.965460    0.664352
     27          6           0       -5.690354   -1.803611    0.194244
     28          1           0       -4.996504    0.789643   -0.484406
     29          1           0       -3.895265   -0.316375   -1.299952
     30          1           0       -4.731340   -0.509174    1.635647
     31          1           0       -3.630285   -1.614769    0.821436
     32          1           0       -5.467570   -2.285423   -0.763266
     33          1           0       -6.574881   -1.173546    0.055570
     34          1           0       -5.941060   -2.585895    0.917458
 ---------------------------------------------------------------------

 SCF Done:  E(RHF) =  -669.534386261     A.U. after   15 cycles
 E2 =    -0.2093883887D+01 EUMP2 =    -0.67162827014824D+03

 The electronic state is 1-A.
 Alpha  occ. eigenvalues --  -20.60791 -20.60785 -15.85845 -11.31239 -11.27808
 Alpha  occ. eigenvalues --  -11.27800 -11.27543 -11.26831 -11.26783 -11.22590
 Alpha  occ. eigenvalues --  -11.22399 -11.22303 -11.22281 -11.21865 -11.21604
 Alpha  occ. eigenvalues --   -1.59865  -1.39418  -1.19419  -1.09349  -1.08804
 Alpha  occ. eigenvalues --   -1.04828  -1.04326  -0.96774  -0.95639  -0.87788
 Alpha  occ. eigenvalues --   -0.86229  -0.82466  -0.80406  -0.79212  -0.77497
 Alpha  occ. eigenvalues --   -0.72064  -0.71188  -0.70550  -0.66053  -0.65061
 Alpha  occ. eigenvalues --   -0.64779  -0.62206  -0.61685  -0.60134  -0.58396
 Alpha  occ. eigenvalues --   -0.56092  -0.55301  -0.53424  -0.53248  -0.53123
 Alpha  occ. eigenvalues --   -0.52906  -0.50725  -0.48839  -0.48816  -0.48690
 Alpha  occ. eigenvalues --   -0.47442  -0.46678  -0.46631  -0.44817  -0.44610
 Alpha  occ. eigenvalues --   -0.37367  -0.36379
 Alpha virt. eigenvalues --    0.04992   0.11114   0.16386   0.19204   0.22561
 Alpha virt. eigenvalues --    0.23394   0.25102   0.26128   0.26638   0.28034
 Alpha virt. eigenvalues --    0.29778   0.30371   0.31029   0.31376   0.31558

 Mulliken charges:
               1
     1  C   -0.174187
     2  C   -0.218960
     3  C   -0.172580
     4  C    0.158556
     5  C   -0.170574
     6  C   -0.219343
     7  H    0.228355
     8  H    0.228904
     9  H    0.276602
    10  H    0.275869
    11  H    0.223809
    12  N    0.488107
    13  O   -0.460290
    14  O   -0.459957
    15  C   -0.305217
    16  C   -0.298232
    17  C   -0.483188
    18  H    0.150766
    19  H    0.142820
    20  H    0.154860
    21  H    0.153570
    22  H    0.158652
    23  H    0.153702
    24  H    0.165011
    25  C   -0.298769
    26  C   -0.300014
    27  C   -0.476003
    28  H    0.154302
    29  H    0.149469
    30  H    0.154859
    31  H    0.142926
    32  H    0.155327
    33  H    0.158490
    34  H    0.162356
 Sum of Mulliken charges =  -0.00000

 Dipole moment (field-independent basis, Debye):
    X=             -4.9928    Y=             -1.7429    Z=             -0.1078  Tot=              5.2893
 Quadrupole moment (field-independent basis, Debye-Ang):
   XX=           -123.8049   YY=            -91.4827   ZZ=            -92.6222
   XY=             -5.7416   XZ=             -1.9632   YZ=              2.7024

 Normal termination of Gaussian 16 at Wed May  5 17:42:21 2021.
