 Gaussian 16, Revision A.03,
 Gaussian 16:  EM64L-G16RevA.03 25-Dec-2016

 -------------
 #p 6-31g* mp2
 -------------

 ------------------------------------------------------
 Input file generated by CHIRIPA (05-May-2021 14:57:26)
 ------------------------------------------------------
 Symbolic Z-matrix:
 Charge =  0 Multiplicity = 1

                         Standard orientation:
 ---------------------------------------------------------------------
 Center     Atomic      Atomic             Coordinates (Angstroms)
 Number     Number       Type             X           Y           Z
 ---------------------------------------------------------------------
      1          6           0       -2.054337    0.408921    2.173908
      2          6           0       -2.066173   -0.805362    1.479720
      3          6           0       -2.888502   -0.976287    0.362085
      4          6           0       -3.689820    0.092865   -0.035526
      5          6           0       -3.700290    1.314848    0.635249
      6          6           0       -2.869996    1.463292    1.750204
      7          1           0       -1.412439    0.532968    3.041072
      8          1           0       -1.433771   -1.625926    1.806504
      9          1           0       -2.917308   -1.905613   -0.193740
     10          1           0       -4.341754    2.114644    0.285582
     11          1           0       -2.862863    2.407445    2.287390
     12          7           0       -4.564599   -0.076186   -1.217297
     13          8           0       -5.261228    0.881088   -1.547404
     14          8           0       -4.537057   -1.162761   -1.791085
     15          6           0        5.485760    1.427144   -0.613090
     16          6           0        5.716970    0.071969   -0.355088
     17          6           0        4.649606   -0.794856   -0.102309
     18          6           0        3.358082   -0.270369   -0.115369
     19          6           0        3.095410    1.074961   -0.369103
     20          6           0        4.178024    1.923440   -0.619263
     21          1           0        6.320837    2.093389   -0.808437
     22          1           0        6.731520   -0.316237   -0.349654
     23          1           0        4.800089   -1.848278    0.100356
     24          1           0        2.072940    1.432692   -0.367788
     25          1           0        3.995475    2.975436   -0.819325
     26          7           0        2.220040   -1.178327    0.150850
     27          8           0        1.091591   -0.691556    0.133662
     28          8           0        2.478041   -2.359562    0.371660
 ---------------------------------------------------------------------

 SCF Done:  E(RHF) =  -868.339073130     A.U. after   15 cycles
 E2 =    -0.2599292961D+01 EUMP2 =    -0.87093836609043D+03

 The electronic state is 1-A.
 Alpha  occ. eigenvalues --  -20.61471 -20.61463 -20.59950 -20.59932 -15.86491
 Alpha  occ. eigenvalues --  -15.84985 -11.31684 -11.30140 -11.28231 -11.28227
 Alpha  occ. eigenvalues --  -11.27939 -11.27205 -11.27195 -11.26722 -11.26537
 Alpha  occ. eigenvalues --  -11.26350 -11.25773 -11.25471  -1.60547  -1.59022
 Alpha  occ. eigenvalues --   -1.40100  -1.38581  -1.19842  -1.18267  -1.09272
 Alpha  occ. eigenvalues --   -1.07712  -1.05216  -1.03619  -0.96135  -0.94589
 Alpha  occ. eigenvalues --   -0.86621  -0.85041  -0.82967  -0.81417  -0.78037
 Alpha  occ. eigenvalues --   -0.76491  -0.72724  -0.71855  -0.71212  -0.70943
 Alpha  occ. eigenvalues --   -0.70340  -0.69407  -0.65495  -0.65215  -0.63921
 Alpha  occ. eigenvalues --   -0.63620  -0.62562  -0.60974  -0.55721  -0.54172
 Alpha  occ. eigenvalues --   -0.53558  -0.53303  -0.51977  -0.51719  -0.49489
 Alpha  occ. eigenvalues --   -0.49465  -0.47977  -0.47947  -0.45543  -0.44034
 Alpha  occ. eigenvalues --   -0.37813  -0.36812  -0.36241  -0.35155
 Alpha virt. eigenvalues --    0.04469   0.06013   0.10845   0.12468   0.16016
 Alpha virt. eigenvalues --    0.17578   0.21021   0.22510   0.26938   0.27900
 Alpha virt. eigenvalues --    0.28511   0.29296   0.30602   0.32049   0.32114

 Mulliken charges:
               1
     1  C   -0.172815
     2  C   -0.198612
     3  C   -0.171444
     4  C    0.157273
     5  C   -0.174722
     6  C   -0.220156
     7  H    0.221283
     8  H    0.232865
     9  H    0.275612
    10  H    0.270454
    11  H    0.216950
    12  N    0.488026
    13  O   -0.464996
    14  O   -0.461094
    15  C   -0.170093
    16  C   -0.218574
    17  C   -0.170586
    18  C    0.157310
    19  C   -0.171449
    20  C   -0.218578
    21  H    0.227314
    22  H    0.224946
    23  H    0.276073
    24  H    0.276335
    25  H    0.224886
    26  N    0.489757
    27  O   -0.465142
    28  O   -0.460823
 Sum of Mulliken charges =  -0.00000

 Dipole moment (field-independent basis, Debye):
    X=              7.5398    Y=              3.5991    Z=              3.2285  Tot=              8.9569
 Quadrupole moment (field-independent basis, Debye-Ang):
   XX=            -99.8477   YY=            -99.5164   ZZ=           -106.5537
   XY=              4.1300   XZ=            -19.1661   YZ=              0.0317

 Normal termination of Gaussian 16 at Thu May  6 13:06:13 2021.
