 Gaussian 16, Revision A.03,
 Gaussian 16:  EM64L-G16RevA.03 25-Dec-2016

 -------------
 #p 6-31g* mp2
 -------------

 ------------------------------------------------------
 Input file generated by CHIRIPA (05-May-2021 14:51:08)
 ------------------------------------------------------
 Symbolic Z-matrix:
 Charge =  0 Multiplicity = 1

                         Standard orientation:
 ---------------------------------------------------------------------
 Center     Atomic      Atomic             Coordinates (Angstroms)
 Number     Number       Type             X           Y           Z
 ---------------------------------------------------------------------
      1          6           0       -4.111708   -0.150100   -0.040020
      2          6           0       -4.835833    1.121861   -0.482447
      3          6           0       -6.193114    0.836027   -1.125782
      4          1           0       -3.975815   -0.808203   -0.909146
      5          1           0       -4.747134   -0.697289    0.670059
      6          1           0       -4.198645    1.667188   -1.190421
      7          1           0       -4.969846    1.777097    0.387796
      8          1           0       -6.849841    0.312721   -0.423313
      9          1           0       -6.074258    0.202187   -2.010498
     10          1           0       -6.693425    1.759180   -1.434550
     11          6           0       -2.753355    0.119301    0.604982
     12          6           0       -2.029230   -1.152661    1.047409
     13          6           0       -0.671948   -0.866826    1.690743
     14          1           0       -2.117928    0.666490   -0.105097
     15          1           0       -2.889247    0.777404    1.474107
     16          1           0       -1.895216   -1.807896    0.177166
     17          1           0       -2.666417   -1.697987    1.755383
     18          1           0       -0.790804   -0.232986    2.575459
     19          1           0       -0.015221   -0.343520    0.988275
     20          1           0       -0.171637   -1.789979    1.999511
     21          6           0        3.881052    0.614747   -0.434284
     22          6           0        3.504190    1.869304    0.354414
     23          6           0        4.410579    3.059814    0.039870
     24          1           0        4.924660    0.350978   -0.214619
     25          1           0        3.834714    0.838134   -1.509155
     26          1           0        3.549882    1.643227    1.427455
     27          1           0        2.461298    2.130006    0.132994
     28          1           0        4.358060    3.313520   -1.023840
     29          1           0        5.452830    2.823975    0.277976
     30          1           0        4.123420    3.945888    0.614564
     31          6           0        2.984010   -0.583947   -0.130678
     32          6           0        3.360872   -1.838505   -0.919375
     33          6           0        2.454483   -3.029016   -0.604831
     34          1           0        3.030347   -0.807335    0.944193
     35          1           0        1.940401   -0.320179   -0.350342
     36          1           0        4.403764   -2.099207   -0.697955
     37          1           0        3.315180   -1.612428   -1.992417
     38          1           0        1.412232   -2.793176   -0.842938
     39          1           0        2.507002   -3.282720    0.458878
     40          1           0        2.741642   -3.915088   -1.179525
 ---------------------------------------------------------------------

 SCF Done:  E(RHF) =  -470.733071902     A.U. after   11 cycles
 E2 =    -0.1583003167D+01 EUMP2 =    -0.47231607506973D+03

 The electronic state is 1-A.
 Alpha  occ. eigenvalues --  -11.21602 -11.21600 -11.21596 -11.21567 -11.21399
 Alpha  occ. eigenvalues --  -11.21390 -11.21340 -11.21328 -11.21072 -11.21068
 Alpha  occ. eigenvalues --  -11.21067 -11.20951  -1.08437  -1.08407  -1.03536
 Alpha  occ. eigenvalues --   -1.03493  -0.95981  -0.95944  -0.87006  -0.86953
 Alpha  occ. eigenvalues --   -0.79631  -0.79534  -0.78290  -0.78178  -0.65117
 Alpha  occ. eigenvalues --   -0.65000  -0.60980  -0.60855  -0.59377  -0.59283
 Alpha  occ. eigenvalues --   -0.57671  -0.57483  -0.55321  -0.55198  -0.52686
 Alpha  occ. eigenvalues --   -0.52629  -0.52510  -0.52267  -0.50003  -0.49844
 Alpha  occ. eigenvalues --   -0.47933  -0.47865  -0.46707  -0.46596  -0.45882
 Alpha  occ. eigenvalues --   -0.45735  -0.45716  -0.45432  -0.43781  -0.43753
 Alpha virt. eigenvalues --    0.21202   0.23158   0.23622   0.24658   0.25706
 Alpha virt. eigenvalues --    0.26599   0.26790   0.27356   0.28077   0.29582
 Alpha virt. eigenvalues --    0.30314   0.31363   0.31649   0.32180   0.32247

 Mulliken charges:
               1
     1  C   -0.298233
     2  C   -0.299620
     3  C   -0.475696
     4  H    0.149504
     5  H    0.149649
     6  H    0.151730
     7  H    0.151977
     8  H    0.155232
     9  H    0.155143
    10  H    0.160228
    11  C   -0.298041
    12  C   -0.300148
    13  C   -0.480570
    14  H    0.148536
    15  H    0.149811
    16  H    0.151332
    17  H    0.151842
    18  H    0.154305
    19  H    0.161055
    20  H    0.160783
    21  C   -0.297886
    22  C   -0.299787
    23  C   -0.475652
    24  H    0.149641
    25  H    0.149095
    26  H    0.152450
    27  H    0.151468
    28  H    0.155043
    29  H    0.155224
    30  H    0.160329
    31  C   -0.302151
    32  C   -0.299495
    33  C   -0.476169
    34  H    0.150982
    35  H    0.153364
    36  H    0.151941
    37  H    0.151494
    38  H    0.155893
    39  H    0.155381
    40  H    0.160016
 Sum of Mulliken charges =  -0.00000

 Dipole moment (field-independent basis, Debye):
    X=              0.0273    Y=             -0.0023    Z=              0.0107  Tot=              0.0294
 Quadrupole moment (field-independent basis, Debye-Ang):
   XX=            -85.5280   YY=            -85.6509   ZZ=            -83.6299
   XY=             -0.8218   XZ=             -0.3017   YZ=             -0.0627

 Normal termination of Gaussian 16 at Wed May  5 15:06:32 2021.
