 Gaussian 16, Revision A.03,
 Gaussian 16:  EM64L-G16RevA.03 25-Dec-2016

 -------------
 #p 6-31g* mp2
 -------------

 ------------------------------------------------------
 Input file generated by CHIRIPA (05-May-2021 14:51:09)
 ------------------------------------------------------
 Symbolic Z-matrix:
 Charge =  0 Multiplicity = 1

                         Standard orientation:
 ---------------------------------------------------------------------
 Center     Atomic      Atomic             Coordinates (Angstroms)
 Number     Number       Type             X           Y           Z
 ---------------------------------------------------------------------
      1          6           0       -3.228837   -0.531429    0.304584
      2          6           0       -3.332201   -0.822303   -1.192978
      3          6           0       -4.524177   -1.714414   -1.541010
      4          1           0       -3.150009   -1.480974    0.851480
      5          1           0       -4.157901   -0.052070    0.642889
      6          1           0       -2.402671   -1.299716   -1.528638
      7          1           0       -3.410599    0.128053   -1.736387
      8          1           0       -5.462324   -1.241053   -1.233746
      9          1           0       -4.448669   -2.676934   -1.024816
     10          1           0       -4.579019   -1.909624   -2.616531
     11          6           0       -2.042149    0.359222    0.668233
     12          6           0       -1.938784    0.650096    2.165795
     13          6           0       -0.746808    1.542207    2.513827
     14          1           0       -1.113084   -0.120137    0.329928
     15          1           0       -2.120976    1.308767    0.121337
     16          1           0       -1.860386   -0.300260    2.709204
     17          1           0       -2.868314    1.127508    2.501455
     18          1           0       -0.822316    2.504727    1.997634
     19          1           0        0.191338    1.068846    2.206563
     20          1           0       -0.691967    1.737417    3.589348
     21          6           0        2.086658    0.616545   -0.457344
     22          6           0        2.154804    1.623162   -1.606285
     23          6           0        1.050318    2.678020   -1.534329
     24          1           0        1.105143    0.123136   -0.468311
     25          1           0        2.154856    1.155612    0.497721
     26          1           0        2.087889    1.082227   -2.558928
     27          1           0        3.136341    2.114094   -1.592699
     28          1           0        1.117798    3.243271   -0.599161
     29          1           0        0.063389    2.205542   -1.570880
     30          1           0        1.117860    3.387323   -2.365104
     31          6           0        3.184327   -0.444338   -0.515473
     32          6           0        3.116182   -1.450954    0.633468
     33          6           0        4.220667   -2.505813    0.561512
     34          1           0        3.116130   -0.983405   -1.470538
     35          1           0        4.165842    0.049072   -0.504506
     36          1           0        2.134644   -1.941887    0.619882
     37          1           0        3.183097   -0.910021    1.586111
     38          1           0        5.207596   -2.033334    0.598063
     39          1           0        4.153187   -3.071064   -0.373657
     40          1           0        4.153125   -3.215115    1.392287
 ---------------------------------------------------------------------

 SCF Done:  E(RHF) =  -470.732820456     A.U. after   11 cycles
 E2 =    -0.1584469484D+01 EUMP2 =    -0.47231728994053D+03

 The electronic state is 1-A.
 Alpha  occ. eigenvalues --  -11.21651 -11.21638 -11.21582 -11.21571 -11.21405
 Alpha  occ. eigenvalues --  -11.21401 -11.21334 -11.21331 -11.21104 -11.21095
 Alpha  occ. eigenvalues --  -11.21010 -11.20973  -1.08473  -1.08400  -1.03548
 Alpha  occ. eigenvalues --   -1.03501  -0.95984  -0.95961  -0.87001  -0.86979
 Alpha  occ. eigenvalues --   -0.79674  -0.79536  -0.78467  -0.78038  -0.65154
 Alpha  occ. eigenvalues --   -0.64995  -0.60936  -0.60919  -0.59409  -0.59271
 Alpha  occ. eigenvalues --   -0.57620  -0.57550  -0.55395  -0.55134  -0.52678
 Alpha  occ. eigenvalues --   -0.52657  -0.52449  -0.52370  -0.50058  -0.49780
 Alpha  occ. eigenvalues --   -0.48123  -0.47773  -0.46729  -0.46637  -0.46288
 Alpha  occ. eigenvalues --   -0.45739  -0.45653  -0.45037  -0.43788  -0.43773
 Alpha virt. eigenvalues --    0.20962   0.23281   0.23552   0.24213   0.24679
 Alpha virt. eigenvalues --    0.25360   0.26326   0.28183   0.28722   0.30096
 Alpha virt. eigenvalues --    0.30678   0.31631   0.31756   0.31833   0.32368

 Mulliken charges:
               1
     1  C   -0.297530
     2  C   -0.299712
     3  C   -0.475624
     4  H    0.149508
     5  H    0.149699
     6  H    0.150792
     7  H    0.151891
     8  H    0.155429
     9  H    0.155237
    10  H    0.160262
    11  C   -0.306891
    12  C   -0.299032
    13  C   -0.480792
    14  H    0.155939
    15  H    0.151420
    16  H    0.151569
    17  H    0.151659
    18  H    0.155466
    19  H    0.161081
    20  H    0.159227
    21  C   -0.308541
    22  C   -0.298905
    23  C   -0.478873
    24  H    0.156951
    25  H    0.152722
    26  H    0.151582
    27  H    0.151723
    28  H    0.155784
    29  H    0.158557
    30  H    0.159569
    31  C   -0.297366
    32  C   -0.300157
    33  C   -0.475575
    34  H    0.149348
    35  H    0.149776
    36  H    0.150747
    37  H    0.151978
    38  H    0.155483
    39  H    0.155292
    40  H    0.160308
 Sum of Mulliken charges =  -0.00000

 Dipole moment (field-independent basis, Debye):
    X=              0.0101    Y=              0.0014    Z=             -0.0032  Tot=              0.0107
 Quadrupole moment (field-independent basis, Debye-Ang):
   XX=            -85.2696   YY=            -84.8628   ZZ=            -84.7191
   XY=             -0.0321   XZ=              0.0689   YZ=              0.0414

 Normal termination of Gaussian 16 at Wed May  5 15:09:19 2021.
