 Gaussian 16, Revision A.03,
 Gaussian 16:  EM64L-G16RevA.03 25-Dec-2016

 -------------
 #p 6-31g* mp2
 -------------

 ------------------------------------------------------
 Input file generated by CHIRIPA (05-May-2021 14:53:16)
 ------------------------------------------------------
 Symbolic Z-matrix:
 Charge =  0 Multiplicity = 1

                         Standard orientation:
 ---------------------------------------------------------------------
 Center     Atomic      Atomic             Coordinates (Angstroms)
 Number     Number       Type             X           Y           Z
 ---------------------------------------------------------------------
      1          6           0        3.231670   -0.447630   -0.146332
      2          6           0        3.020204   -1.355717   -1.358209
      3          6           0        3.617209   -2.749817   -1.163619
      4          1           0        4.308021   -0.362103    0.056396
      5          1           0        2.783336   -0.919188    0.739119
      6          1           0        3.467594   -0.881941   -2.241381
      7          1           0        1.944240   -1.438938   -1.558192
      8          1           0        3.163686   -3.245920   -0.299444
      9          1           0        4.695695   -2.685758   -0.986515
     10          1           0        3.454609   -3.382344   -2.041873
     11          6           0        2.640392    0.949492   -0.325688
     12          6           0        2.851859    1.857579    0.886189
     13          6           0        2.254853    3.251679    0.691600
     14          1           0        3.088727    1.421050   -1.211139
     15          1           0        1.564041    0.863965   -0.528416
     16          1           0        3.927822    1.940800    1.086172
     17          1           0        2.404468    1.383803    1.769362
     18          1           0        1.176368    3.187620    0.514495
     19          1           0        2.708377    3.747781   -0.172576
     20          1           0        2.417454    3.884206    1.569854
     21          6           0       -3.666922    1.100298   -1.488906
     22          6           0       -2.426026    1.592063   -1.070741
     23          6           0       -1.656663    0.882218   -0.144053
     24          6           0       -2.161023   -0.321365    0.346150
     25          6           0       -3.393571   -0.837494   -0.051000
     26          6           0       -4.145890   -0.110776   -0.978601
     27          1           0       -4.257962    1.658276   -2.209135
     28          1           0       -2.051541    2.532317   -1.465365
     29          1           0       -0.692659    1.239833    0.196865
     30          1           0       -3.740413   -1.777749    0.360144
     31          1           0       -5.109237   -0.495108   -1.301553
     32          7           0       -1.355556   -1.081777    1.327676
     33          8           0       -1.822238   -2.139634    1.744549
     34          8           0       -0.272797   -0.605532    1.661540
 ---------------------------------------------------------------------

 SCF Done:  E(RHF) =  -669.535910095     A.U. after   15 cycles
 E2 =    -0.2092974706D+01 EUMP2 =    -0.67162888480117D+03

 The electronic state is 1-A.
 Alpha  occ. eigenvalues --  -20.60973 -20.60964 -15.86003 -11.31293 -11.27851
 Alpha  occ. eigenvalues --  -11.27830 -11.27579 -11.26856 -11.26841 -11.21193
 Alpha  occ. eigenvalues --  -11.21115 -11.21066 -11.21015 -11.20650 -11.20506
 Alpha  occ. eigenvalues --   -1.60030  -1.39586  -1.19458  -1.08867  -1.07940
 Alpha  occ. eigenvalues --   -1.04851  -1.03130  -0.95719  -0.95595  -0.86620
 Alpha  occ. eigenvalues --   -0.86254  -0.82549  -0.79191  -0.77778  -0.77584
 Alpha  occ. eigenvalues --   -0.72233  -0.71343  -0.70575  -0.65126  -0.64937
 Alpha  occ. eigenvalues --   -0.64468  -0.62205  -0.60496  -0.58980  -0.57210
 Alpha  occ. eigenvalues --   -0.55356  -0.54901  -0.53182  -0.52951  -0.52313
 Alpha  occ. eigenvalues --   -0.52043  -0.49558  -0.48978  -0.48966  -0.47516
 Alpha  occ. eigenvalues --   -0.46196  -0.45362  -0.45130  -0.44933  -0.43347
 Alpha  occ. eigenvalues --   -0.37433  -0.36440
 Alpha virt. eigenvalues --    0.04873   0.11129   0.16396   0.19618   0.23168
 Alpha virt. eigenvalues --    0.24220   0.26183   0.27396   0.28047   0.28244
 Alpha virt. eigenvalues --    0.29396   0.31070   0.31501   0.31984   0.32466

 Mulliken charges:
               1
     1  C   -0.302988
     2  C   -0.298368
     3  C   -0.476557
     4  H    0.146266
     5  H    0.169661
     6  H    0.147274
     7  H    0.150037
     8  H    0.161165
     9  H    0.153506
    10  H    0.157237
    11  C   -0.296203
    12  C   -0.304873
    13  C   -0.474595
    14  H    0.144417
    15  H    0.142650
    16  H    0.151526
    17  H    0.168622
    18  H    0.141744
    19  H    0.153772
    20  H    0.162562
    21  C   -0.170377
    22  C   -0.221247
    23  C   -0.178619
    24  C    0.157077
    25  C   -0.170075
    26  C   -0.218679
    27  H    0.226168
    28  H    0.224520
    29  H    0.288369
    30  H    0.275745
    31  H    0.223899
    32  N    0.489259
    33  O   -0.458685
    34  O   -0.464210
 Sum of Mulliken charges =  -0.00000

 Dipole moment (field-independent basis, Debye):
    X=             -2.9085    Y=              2.5331    Z=             -3.2595  Tot=              5.0497
 Quadrupole moment (field-independent basis, Debye-Ang):
   XX=            -79.5321   YY=            -95.6855   ZZ=            -97.7924
   XY=             -1.5387   XZ=              6.8605   YZ=              1.5934

 Normal termination of Gaussian 16 at Thu May  6 09:04:00 2021.
