 Gaussian 16, Revision A.03,
 Gaussian 16:  EM64L-G16RevA.03 25-Dec-2016

 -------------
 #p 6-31g* mp2
 -------------

 ------------------------------------------------------
 Input file generated by CHIRIPA (05-May-2021 14:55:24)
 ------------------------------------------------------
 Symbolic Z-matrix:
 Charge =  0 Multiplicity = 1

                         Standard orientation:
 ---------------------------------------------------------------------
 Center     Atomic      Atomic             Coordinates (Angstroms)
 Number     Number       Type             X           Y           Z
 ---------------------------------------------------------------------
      1          6           0       -2.818385    2.750639    0.519866
      2          6           0       -3.401723    2.273532   -0.658526
      3          6           0       -3.406780    0.905106   -0.944761
      4          6           0       -2.816946    0.038070   -0.026264
      5          6           0       -2.227808    0.482714    1.156317
      6          6           0       -2.234319    1.855286    1.421936
      7          1           0       -2.818950    3.815276    0.734213
      8          1           0       -3.856048    2.966561   -1.360911
      9          1           0       -3.851371    0.508649   -1.849514
     10          1           0       -1.782627   -0.232522    1.837250
     11          1           0       -1.780557    2.222972    2.337879
     12          7           0       -2.816176   -1.412816   -0.318376
     13          8           0       -2.290020   -2.156083    0.507064
     14          8           0       -3.341743   -1.779281   -1.367242
     15          6           0        2.918856   -0.666766   -0.146961
     16          6           0        2.724797   -1.999883    0.576313
     17          6           0        1.345556   -2.611541    0.328595
     18          1           0        2.140359    0.036609    0.178846
     19          1           0        2.772072   -0.817900   -1.225389
     20          1           0        2.873267   -1.846556    1.652910
     21          1           0        3.503963   -2.700106    0.248890
     22          1           0        1.190896   -2.793038   -0.739927
     23          1           0        0.556616   -1.934637    0.672070
     24          1           0        1.228339   -3.563950    0.854940
     25          6           0        4.292850   -0.042851    0.090948
     26          6           0        4.486909    1.290267   -0.632324
     27          6           0        5.866150    1.901925   -0.384606
     28          1           0        4.439635    0.108283    1.169377
     29          1           0        5.071348   -0.746226   -0.234857
     30          1           0        3.707744    1.990489   -0.304901
     31          1           0        4.338440    1.136940   -1.708922
     32          1           0        6.655090    1.225022   -0.728082
     33          1           0        6.020810    2.083421    0.683916
     34          1           0        5.983367    2.854333   -0.910951
 ---------------------------------------------------------------------

 SCF Done:  E(RHF) =  -669.535807504     A.U. after   15 cycles
 E2 =    -0.2091389845D+01 EUMP2 =    -0.67162719734896D+03

 The electronic state is 1-A.
 Alpha  occ. eigenvalues --  -20.60868 -20.60850 -15.85884 -11.31255 -11.27827
 Alpha  occ. eigenvalues --  -11.27813 -11.27560 -11.26841 -11.26829 -11.21569
 Alpha  occ. eigenvalues --  -11.21249 -11.21142 -11.21081 -11.21076 -11.20163
 Alpha  occ. eigenvalues --   -1.59917  -1.39474  -1.19424  -1.08820  -1.08200
 Alpha  occ. eigenvalues --   -1.04829  -1.03216  -0.95678  -0.95612  -0.86639
 Alpha  occ. eigenvalues --   -0.86227  -0.82489  -0.79290  -0.78004  -0.77533
 Alpha  occ. eigenvalues --   -0.72111  -0.71229  -0.70533  -0.65081  -0.64854
 Alpha  occ. eigenvalues --   -0.64820  -0.62180  -0.60619  -0.59048  -0.57249
 Alpha  occ. eigenvalues --   -0.55329  -0.54927  -0.53155  -0.52922  -0.52295
 Alpha  occ. eigenvalues --   -0.52056  -0.49607  -0.48870  -0.48859  -0.47604
 Alpha  occ. eigenvalues --   -0.46364  -0.45581  -0.45476  -0.44729  -0.43471
 Alpha  occ. eigenvalues --   -0.37401  -0.36430
 Alpha virt. eigenvalues --    0.04967   0.11174   0.16447   0.21189   0.23017
 Alpha virt. eigenvalues --    0.24427   0.26476   0.27165   0.27632   0.27856
 Alpha virt. eigenvalues --    0.28812   0.30470   0.31569   0.31979   0.32303

 Mulliken charges:
               1
     1  C   -0.170686
     2  C   -0.218350
     3  C   -0.170840
     4  C    0.159139
     5  C   -0.172340
     6  C   -0.218572
     7  H    0.225859
     8  H    0.223755
     9  H    0.275820
    10  H    0.276147
    11  H    0.223640
    12  N    0.488311
    13  O   -0.458134
    14  O   -0.459429
    15  C   -0.296983
    16  C   -0.301441
    17  C   -0.474081
    18  H    0.144710
    19  H    0.150359
    20  H    0.147731
    21  H    0.150602
    22  H    0.156206
    23  H    0.159210
    24  H    0.162665
    25  C   -0.297670
    26  C   -0.298947
    27  C   -0.475438
    28  H    0.147749
    29  H    0.150367
    30  H    0.148988
    31  H    0.152358
    32  H    0.155944
    33  H    0.154271
    34  H    0.159081
 Sum of Mulliken charges =  -0.00000

 Dipole moment (field-independent basis, Debye):
    X=             -0.1813    Y=              5.0387    Z=              0.9912  Tot=              5.1384
 Quadrupole moment (field-independent basis, Debye-Ang):
   XX=            -95.4242   YY=            -94.6546   ZZ=            -90.6991
   XY=            -15.8274   XZ=             -0.9435   YZ=             -0.5175

 Normal termination of Gaussian 16 at Thu May  6 09:29:23 2021.
