 Gaussian 16, Revision A.03,
 Gaussian 16:  EM64L-G16RevA.03 25-Dec-2016

 -------------
 #p 6-31g* mp2
 -------------

 ------------------------------------------------------
 Input file generated by CHIRIPA (05-May-2021 14:55:21)
 ------------------------------------------------------
 Symbolic Z-matrix:
 Charge =  0 Multiplicity = 1

                         Standard orientation:
 ---------------------------------------------------------------------
 Center     Atomic      Atomic             Coordinates (Angstroms)
 Number     Number       Type             X           Y           Z
 ---------------------------------------------------------------------
      1          6           0        2.415826    2.582098   -0.129458
      2          6           0        3.414112    2.107634    0.727765
      3          6           0        3.797221    0.763470    0.696176
      4          6           0        3.158202   -0.082261   -0.209187
      5          6           0        2.160203    0.360375   -1.075998
      6          6           0        1.793155    1.708494   -1.027021
      7          1           0        2.124456    3.627813   -0.098166
      8          1           0        3.899410    2.783805    1.425850
      9          1           0        4.567075    0.369610    1.348570
     10          1           0        1.694596   -0.337701   -1.761067
     11          1           0        1.017561    2.074187   -1.693929
     12          7           0        3.555281   -1.507361   -0.251833
     13          8           0        2.976970   -2.232160   -1.058592
     14          8           0        4.437303   -1.872572    0.522309
     15          6           0       -3.218648   -0.083296    0.106599
     16          6           0       -2.286979   -0.642637    1.182293
     17          6           0       -0.809657   -0.410737    0.863647
     18          1           0       -2.973249   -0.546398   -0.858938
     19          1           0       -3.031682    0.993549   -0.006723
     20          1           0       -2.476613   -1.717839    1.294527
     21          1           0       -2.534751   -0.178291    2.145417
     22          1           0       -0.598750    0.659642    0.771937
     23          1           0       -0.540283   -0.888654   -0.083788
     24          1           0       -0.161484   -0.818453    1.645632
     25          6           0       -4.698814   -0.307391    0.410928
     26          6           0       -5.630484    0.251949   -0.664766
     27          6           0       -7.107806    0.020049   -0.346121
     28          1           0       -4.885781   -1.384237    0.524250
     29          1           0       -4.944213    0.155711    1.376464
     30          1           0       -5.382711   -0.212396   -1.627890
     31          1           0       -5.440850    1.327152   -0.777000
     32          1           0       -7.377181    0.497965    0.601315
     33          1           0       -7.318712   -1.050329   -0.254410
     34          1           0       -7.755978    0.427765   -1.128105
 ---------------------------------------------------------------------

 SCF Done:  E(RHF) =  -669.535068659     A.U. after   15 cycles
 E2 =    -0.2092247643D+01 EUMP2 =    -0.67162731630277D+03

 The electronic state is 1-A.
 Alpha  occ. eigenvalues --  -20.60743 -20.60738 -15.85796 -11.31147 -11.27724
 Alpha  occ. eigenvalues --  -11.27720 -11.27479 -11.26736 -11.26724 -11.21785
 Alpha  occ. eigenvalues --  -11.21690 -11.21602 -11.21526 -11.21216 -11.21136
 Alpha  occ. eigenvalues --   -1.59817  -1.39372  -1.19330  -1.08728  -1.08596
 Alpha  occ. eigenvalues --   -1.04739  -1.03666  -0.96124  -0.95562  -0.87142
 Alpha  occ. eigenvalues --   -0.86135  -0.82397  -0.79739  -0.78424  -0.77440
 Alpha  occ. eigenvalues --   -0.72017  -0.71137  -0.70450  -0.65227  -0.64986
 Alpha  occ. eigenvalues --   -0.64742  -0.62093  -0.61059  -0.59487  -0.57748
 Alpha  occ. eigenvalues --   -0.55423  -0.55237  -0.53339  -0.52834  -0.52740
 Alpha  occ. eigenvalues --   -0.52342  -0.50061  -0.48773  -0.48771  -0.48048
 Alpha  occ. eigenvalues --   -0.46768  -0.45961  -0.45887  -0.44777  -0.43930
 Alpha  occ. eigenvalues --   -0.37303  -0.36256
 Alpha virt. eigenvalues --    0.05093   0.11245   0.16580   0.21145   0.22744
 Alpha virt. eigenvalues --    0.24106   0.26197   0.26727   0.27478   0.27934
 Alpha virt. eigenvalues --    0.28644   0.30271   0.31399   0.31756   0.31777

 Mulliken charges:
               1
     1  C   -0.171689
     2  C   -0.218377
     3  C   -0.171195
     4  C    0.158693
     5  C   -0.164931
     6  C   -0.217630
     7  H    0.225293
     8  H    0.223149
     9  H    0.275391
    10  H    0.274909
    11  H    0.223574
    12  N    0.488210
    13  O   -0.460951
    14  O   -0.460651
    15  C   -0.297881
    16  C   -0.300798
    17  C   -0.476073
    18  H    0.148960
    19  H    0.145015
    20  H    0.155041
    21  H    0.151235
    22  H    0.152642
    23  H    0.153457
    24  H    0.163101
    25  C   -0.298244
    26  C   -0.299609
    27  C   -0.475782
    28  H    0.151496
    29  H    0.149709
    30  H    0.152052
    31  H    0.150123
    32  H    0.155203
    33  H    0.156295
    34  H    0.160264
 Sum of Mulliken charges =  -0.00000

 Dipole moment (field-independent basis, Debye):
    X=             -1.3883    Y=              4.9868    Z=              0.1626  Tot=              5.1790
 Quadrupole moment (field-independent basis, Debye-Ang):
   XX=           -103.0936   YY=            -95.2968   ZZ=            -92.3676
   XY=             16.7716   XZ=              3.6392   YZ=              0.0453

 Normal termination of Gaussian 16 at Thu May  6 10:55:18 2021.
