 Gaussian 16, Revision A.03,
 Gaussian 16:  EM64L-G16RevA.03 25-Dec-2016

 -------------
 #p 6-31g* mp2
 -------------

 ------------------------------------------------------
 Input file generated by CHIRIPA (05-May-2021 14:51:13)
 ------------------------------------------------------
 Symbolic Z-matrix:
 Charge =  0 Multiplicity = 1

                         Standard orientation:
 ---------------------------------------------------------------------
 Center     Atomic      Atomic             Coordinates (Angstroms)
 Number     Number       Type             X           Y           Z
 ---------------------------------------------------------------------
      1          6           0        1.848120   -0.728913    0.396631
      2          6           0        1.493918   -1.965617    1.223123
      3          6           0        0.023348   -1.996337    1.640585
      4          1           0        1.611586    0.172811    0.977913
      5          1           0        1.211261   -0.699861   -0.498334
      6          1           0        2.132211   -1.993069    2.115560
      7          1           0        1.731502   -2.864504    0.639879
      8          1           0       -0.627217   -1.993480    0.760041
      9          1           0       -0.224231   -1.117094    2.244106
     10          1           0       -0.207982   -2.888776    2.230414
     11          6           0        3.314818   -0.683897   -0.028222
     12          6           0        3.669020    0.552807   -0.854714
     13          6           0        5.139589    0.583526   -1.272176
     14          1           0        3.951677   -0.712950    0.866742
     15          1           0        3.551352   -1.585622   -0.609505
     16          1           0        3.431436    1.451693   -0.271471
     17          1           0        3.030727    0.580259   -1.747152
     18          1           0        5.387169   -0.295716   -1.875698
     19          1           0        5.790155    0.580670   -0.391632
     20          1           0        5.370920    1.475966   -1.862005
     21          6           0       -2.138148    1.318330   -0.295777
     22          6           0       -1.818583    2.078479    0.991870
     23          6           0       -0.930842    3.300094    0.752361
     24          1           0       -1.198953    1.003387   -0.770822
     25          1           0       -2.632729    1.999315   -1.002208
     26          1           0       -1.325997    1.395899    1.696184
     27          1           0       -2.758655    2.391482    1.464005
     28          1           0       -1.418894    4.003048    0.069526
     29          1           0        0.021903    3.001808    0.303025
     30          1           0       -0.714844    3.828670    1.686070
     31          6           0       -3.024789    0.094481   -0.072631
     32          6           0       -3.344355   -0.665668   -1.360279
     33          6           0       -4.232096   -1.887284   -1.120769
     34          1           0       -2.530209   -0.586503    0.633799
     35          1           0       -3.963985    0.409424    0.402413
     36          1           0       -2.404284   -0.978672   -1.832414
     37          1           0       -3.836940    0.016912   -2.064593
     38          1           0       -5.184841   -1.588998   -0.671433
     39          1           0       -3.744044   -2.590238   -0.437935
     40          1           0       -4.448094   -2.415859   -2.054479
 ---------------------------------------------------------------------

 SCF Done:  E(RHF) =  -470.732980828     A.U. after   11 cycles
 E2 =    -0.1584467109D+01 EUMP2 =    -0.47231744793785D+03

 The electronic state is 1-A.
 Alpha  occ. eigenvalues --  -11.21711 -11.21664 -11.21564 -11.21541 -11.21507
 Alpha  occ. eigenvalues --  -11.21437 -11.21295 -11.21210 -11.21192 -11.21113
 Alpha  occ. eigenvalues --  -11.21043 -11.21029  -1.08531  -1.08348  -1.03620
 Alpha  occ. eigenvalues --   -1.03479  -0.96082  -0.95914  -0.87104  -0.86932
 Alpha  occ. eigenvalues --   -0.79700  -0.79539  -0.78343  -0.78159  -0.65171
 Alpha  occ. eigenvalues --   -0.64997  -0.61100  -0.60808  -0.59434  -0.59290
 Alpha  occ. eigenvalues --   -0.57716  -0.57513  -0.55374  -0.55205  -0.52765
 Alpha  occ. eigenvalues --   -0.52644  -0.52523  -0.52331  -0.50105  -0.49776
 Alpha  occ. eigenvalues --   -0.48057  -0.47865  -0.46805  -0.46486  -0.46062
 Alpha  occ. eigenvalues --   -0.45819  -0.45563  -0.45391  -0.43875  -0.43716
 Alpha virt. eigenvalues --    0.19573   0.22290   0.23254   0.24536   0.25095
 Alpha virt. eigenvalues --    0.25758   0.26562   0.28188   0.28909   0.29672
 Alpha virt. eigenvalues --    0.30381   0.31313   0.31746   0.32215   0.32283

 Mulliken charges:
               1
     1  C   -0.301743
     2  C   -0.299937
     3  C   -0.482105
     4  H    0.151416
     5  H    0.150543
     6  H    0.152509
     7  H    0.152423
     8  H    0.159109
     9  H    0.157748
    10  H    0.161131
    11  C   -0.298291
    12  C   -0.300076
    13  C   -0.475750
    14  H    0.149965
    15  H    0.149996
    16  H    0.152147
    17  H    0.151949
    18  H    0.155308
    19  H    0.155357
    20  H    0.160618
    21  C   -0.299914
    22  C   -0.302194
    23  C   -0.476885
    24  H    0.152012
    25  H    0.148986
    26  H    0.154165
    27  H    0.151682
    28  H    0.155193
    29  H    0.156163
    30  H    0.159550
    31  C   -0.305603
    32  C   -0.299944
    33  C   -0.475947
    34  H    0.158490
    35  H    0.149091
    36  H    0.150310
    37  H    0.151968
    38  H    0.155416
    39  H    0.155215
    40  H    0.159931
 Sum of Mulliken charges =  -0.00000

 Dipole moment (field-independent basis, Debye):
    X=              0.0552    Y=             -0.0387    Z=              0.0275  Tot=              0.0728
 Quadrupole moment (field-independent basis, Debye-Ang):
   XX=            -85.5090   YY=            -85.0852   ZZ=            -84.1713
   XY=             -1.1024   XZ=              0.6589   YZ=              0.3639

 Normal termination of Gaussian 16 at Thu May  6 07:09:02 2021.
