 Gaussian 16, Revision A.03,
 Gaussian 16:  EM64L-G16RevA.03 25-Dec-2016

 -------------
 #p 6-31g* mp2
 -------------

 ------------------------------------------------------
 Input file generated by CHIRIPA (05-May-2021 14:51:12)
 ------------------------------------------------------
 Symbolic Z-matrix:
 Charge =  0 Multiplicity = 1

                         Standard orientation:
 ---------------------------------------------------------------------
 Center     Atomic      Atomic             Coordinates (Angstroms)
 Number     Number       Type             X           Y           Z
 ---------------------------------------------------------------------
      1          6           0        3.092117   -0.462388    0.590298
      2          6           0        2.432546   -1.688284   -0.042259
      3          6           0        2.393216   -2.891105    0.900858
      4          1           0        4.114125   -0.721934    0.898650
      5          1           0        2.548001   -0.193622    1.506321
      6          1           0        2.976907   -1.953822   -0.957560
      7          1           0        1.412055   -1.425735   -0.349314
      8          1           0        1.832537   -2.649842    1.809722
      9          1           0        3.406280   -3.180929    1.198019
     10          1           0        1.917632   -3.756279    0.428467
     11          6           0        3.138947    0.748214   -0.340281
     12          6           0        3.798518    1.974111    0.292277
     13          6           0        3.837848    3.176932   -0.650841
     14          1           0        3.683062    0.479449   -1.256304
     15          1           0        2.116939    1.007761   -0.648632
     16          1           0        4.819009    1.711562    0.599331
     17          1           0        3.254157    2.239649    1.207578
     18          1           0        2.824784    3.466756   -0.948001
     19          1           0        4.398527    2.935669   -1.559704
     20          1           0        4.313431    4.042106   -0.178449
     21          6           0       -3.216469    0.611760   -0.185935
     22          6           0       -4.445705    1.121849    0.566909
     23          6           0       -4.634229    2.633469    0.435534
     24          1           0       -2.323093    1.128254    0.190971
     25          1           0       -3.307957    0.879895   -1.247599
     26          1           0       -4.352578    0.851622    1.626587
     27          1           0       -5.336234    0.603943    0.188298
     28          1           0       -4.752655    2.917037   -0.615259
     29          1           0       -3.763410    3.166124    0.831203
     30          1           0       -5.518656    2.976675    0.981299
     31          6           0       -3.014595   -0.897587   -0.064083
     32          6           0       -1.785359   -1.407676   -0.816926
     33          6           0       -1.596834   -2.919296   -0.685552
     34          1           0       -2.923107   -1.165721    0.997581
     35          1           0       -3.907971   -1.414080   -0.440989
     36          1           0       -0.894830   -0.889769   -0.438315
     37          1           0       -1.878486   -1.137449   -1.876605
     38          1           0       -2.467654   -3.451950   -1.081221
     39          1           0       -1.478409   -3.202864    0.365241
     40          1           0       -0.712408   -3.262501   -1.231316
 ---------------------------------------------------------------------

 SCF Done:  E(RHF) =  -470.733201898     A.U. after   11 cycles
 E2 =    -0.1583233370D+01 EUMP2 =    -0.47231643526751D+03

 The electronic state is 1-A.
 Alpha  occ. eigenvalues --  -11.21644 -11.21635 -11.21605 -11.21550 -11.21447
 Alpha  occ. eigenvalues --  -11.21404 -11.21388 -11.21344 -11.21100 -11.21090
 Alpha  occ. eigenvalues --  -11.21071 -11.21043  -1.08479  -1.08418  -1.03593
 Alpha  occ. eigenvalues --   -1.03494  -0.96032  -0.95949  -0.87037  -0.86974
 Alpha  occ. eigenvalues --   -0.79680  -0.79543  -0.78326  -0.78199  -0.65212
 Alpha  occ. eigenvalues --   -0.64972  -0.61160  -0.60755  -0.59492  -0.59226
 Alpha  occ. eigenvalues --   -0.57707  -0.57482  -0.55365  -0.55178  -0.52751
 Alpha  occ. eigenvalues --   -0.52614  -0.52444  -0.52377  -0.50015  -0.49861
 Alpha  occ. eigenvalues --   -0.48033  -0.47853  -0.46886  -0.46462  -0.45971
 Alpha  occ. eigenvalues --   -0.45784  -0.45746  -0.45420  -0.43833  -0.43758
 Alpha virt. eigenvalues --    0.20610   0.23258   0.23307   0.25294   0.25471
 Alpha virt. eigenvalues --    0.26810   0.26894   0.27103   0.28675   0.29118
 Alpha virt. eigenvalues --    0.30187   0.30994   0.31447   0.31806   0.32522

 Mulliken charges:
               1
     1  C   -0.297735
     2  C   -0.309669
     3  C   -0.475414
     4  H    0.149727
     5  H    0.148751
     6  H    0.151655
     7  H    0.162063
     8  H    0.154308
     9  H    0.154821
    10  H    0.161467
    11  C   -0.298572
    12  C   -0.299598
    13  C   -0.475728
    14  H    0.149726
    15  H    0.149374
    16  H    0.152036
    17  H    0.151679
    18  H    0.155266
    19  H    0.155235
    20  H    0.160233
    21  C   -0.298333
    22  C   -0.299676
    23  C   -0.475734
    24  H    0.149094
    25  H    0.149726
    26  H    0.151961
    27  H    0.152123
    28  H    0.155279
    29  H    0.155083
    30  H    0.160407
    31  C   -0.297719
    32  C   -0.305212
    33  C   -0.477055
    34  H    0.149520
    35  H    0.149947
    36  H    0.155339
    37  H    0.152321
    38  H    0.155289
    39  H    0.156087
    40  H    0.161929
 Sum of Mulliken charges =  -0.00000

 Dipole moment (field-independent basis, Debye):
    X=             -0.0263    Y=             -0.0126    Z=             -0.0149  Tot=              0.0328
 Quadrupole moment (field-independent basis, Debye-Ang):
   XX=            -83.7055   YY=            -86.7315   ZZ=            -84.2826
   XY=              0.0224   XZ=              0.1996   YZ=              0.7936

 Normal termination of Gaussian 16 at Thu May  6 00:45:37 2021.
