 Gaussian 16, Revision A.03,
 Gaussian 16:  EM64L-G16RevA.03 25-Dec-2016

 -------------
 #p 6-31g* mp2
 -------------

 ------------------------------------------------------
 Input file generated by CHIRIPA (05-May-2021 14:53:11)
 ------------------------------------------------------
 Symbolic Z-matrix:
 Charge =  0 Multiplicity = 1

                         Standard orientation:
 ---------------------------------------------------------------------
 Center     Atomic      Atomic             Coordinates (Angstroms)
 Number     Number       Type             X           Y           Z
 ---------------------------------------------------------------------
      1          6           0       -2.953411   -0.205365    0.212734
      2          6           0       -3.641682   -1.442348   -0.365313
      3          6           0       -4.067617   -2.439731    0.712463
      4          1           0       -2.074132   -0.519679    0.791544
      5          1           0       -3.634101    0.287092    0.920931
      6          1           0       -2.960414   -1.931549   -1.073250
      7          1           0       -4.519315   -1.125039   -0.942973
      8          1           0       -4.766965   -1.973537    1.414015
      9          1           0       -3.199208   -2.784630    1.282999
     10          1           0       -4.557503   -3.316322    0.277193
     11          6           0       -2.521748    0.801049   -0.852407
     12          6           0       -1.833477    2.038033   -0.274359
     13          6           0       -1.407542    3.035416   -1.352135
     14          1           0       -1.841058    0.308593   -1.560604
     15          1           0       -3.401026    1.115363   -1.431217
     16          1           0       -0.955844    1.720724    0.303301
     17          1           0       -2.514744    2.527234    0.433577
     18          1           0       -2.275951    3.380314   -1.922671
     19          1           0       -0.708193    2.569222   -2.053688
     20          1           0       -0.917655    3.912007   -0.916866
     21          6           0        1.498914    1.781661    1.627895
     22          6           0        2.261177    1.941799    0.466072
     23          6           0        2.621486    0.832802   -0.305194
     24          6           0        2.200589   -0.427429    0.116650
     25          6           0        1.440394   -0.619442    1.269266
     26          6           0        1.091673    0.503805    2.025084
     27          1           0        1.223519    2.648691    2.221033
     28          1           0        2.578846    2.933004    0.155194
     29          1           0        3.210956    0.928132   -1.208995
     30          1           0        1.138491   -1.620122    1.553713
     31          1           0        0.499622    0.376437    2.926914
     32          7           0        2.575898   -1.609017   -0.691678
     33          8           0        2.192621   -2.708645   -0.298545
     34          8           0        3.246236   -1.413144   -1.703072
 ---------------------------------------------------------------------

 SCF Done:  E(RHF) =  -669.534907148     A.U. after   15 cycles
 E2 =    -0.2094169314D+01 EUMP2 =    -0.67162907646230D+03

 The electronic state is 1-A.
 Alpha  occ. eigenvalues --  -20.60888 -20.60882 -15.85943 -11.31350 -11.27927
 Alpha  occ. eigenvalues --  -11.27920 -11.27632 -11.26925 -11.26915 -11.21675
 Alpha  occ. eigenvalues --  -11.21644 -11.21550 -11.21470 -11.21370 -11.21139
 Alpha  occ. eigenvalues --   -1.59963  -1.39515  -1.19535  -1.08927  -1.08550
 Alpha  occ. eigenvalues --   -1.04930  -1.03664  -0.96137  -0.95740  -0.87152
 Alpha  occ. eigenvalues --   -0.86320  -0.82565  -0.79736  -0.78390  -0.77605
 Alpha  occ. eigenvalues --   -0.72158  -0.71289  -0.70620  -0.65208  -0.65173
 Alpha  occ. eigenvalues --   -0.64914  -0.62267  -0.61089  -0.59526  -0.57755
 Alpha  occ. eigenvalues --   -0.55434  -0.55415  -0.53333  -0.53007  -0.52808
 Alpha  occ. eigenvalues --   -0.52561  -0.50068  -0.48921  -0.48912  -0.48049
 Alpha  occ. eigenvalues --   -0.46750  -0.45917  -0.45835  -0.44912  -0.43924
 Alpha  occ. eigenvalues --   -0.37389  -0.36508
 Alpha virt. eigenvalues --    0.04881   0.11073   0.16293   0.20939   0.22899
 Alpha virt. eigenvalues --    0.23960   0.26141   0.26850   0.27648   0.28081
 Alpha virt. eigenvalues --    0.28444   0.30791   0.31214   0.31589   0.31948

 Mulliken charges:
               1
     1  C   -0.298647
     2  C   -0.300543
     3  C   -0.475315
     4  H    0.145072
     5  H    0.147073
     6  H    0.156647
     7  H    0.152277
     8  H    0.153388
     9  H    0.153648
    10  H    0.162508
    11  C   -0.297153
    12  C   -0.310724
    13  C   -0.473956
    14  H    0.152213
    15  H    0.149627
    16  H    0.163297
    17  H    0.146923
    18  H    0.156424
    19  H    0.156309
    20  H    0.152367
    21  C   -0.173959
    22  C   -0.214785
    23  C   -0.171519
    24  C    0.158650
    25  C   -0.170661
    26  C   -0.217949
    27  H    0.227575
    28  H    0.224941
    29  H    0.276447
    30  H    0.276255
    31  H    0.225531
    32  N    0.488002
    33  O   -0.460054
    34  O   -0.459905
 Sum of Mulliken charges =  -0.00000

 Dipole moment (field-independent basis, Debye):
    X=             -1.1824    Y=              4.0946    Z=              2.8439  Tot=              5.1236
 Quadrupole moment (field-independent basis, Debye-Ang):
   XX=            -99.4397   YY=            -97.6569   ZZ=            -92.7655
   XY=             11.1097   XZ=              4.7449   YZ=             -2.1399

 Normal termination of Gaussian 16 at Wed May  5 20:04:46 2021.
