 Gaussian 16, Revision A.03,
 Gaussian 16:  EM64L-G16RevA.03 25-Dec-2016

 -------------
 #p 6-31g* mp2
 -------------

 ------------------------------------------------------
 Input file generated by CHIRIPA (05-May-2021 14:57:25)
 ------------------------------------------------------
 Symbolic Z-matrix:
 Charge =  0 Multiplicity = 1

                         Standard orientation:
 ---------------------------------------------------------------------
 Center     Atomic      Atomic             Coordinates (Angstroms)
 Number     Number       Type             X           Y           Z
 ---------------------------------------------------------------------
      1          6           0       -5.816593   -1.049129   -0.028893
      2          6           0       -5.854719    0.336397   -0.217002
      3          6           0       -4.671401    1.079482   -0.263166
      4          6           0       -3.462073    0.401650   -0.117010
      5          6           0       -3.391289   -0.977715    0.071755
      6          6           0       -4.587167   -1.700614    0.114633
      7          1           0       -6.740702   -1.618535    0.005692
      8          1           0       -6.808066    0.845007   -0.328758
      9          1           0       -4.671975    2.153053   -0.407605
     10          1           0       -2.425761   -1.456713    0.180081
     11          1           0       -4.554525   -2.776533    0.260846
     12          7           0       -2.202699    1.177636   -0.164143
     13          8           0       -1.150099    0.556818   -0.032781
     14          8           0       -2.292047    2.391978   -0.331554
     15          6           0        5.919789    0.661572   -0.544880
     16          6           0        5.347797   -0.373261   -1.292186
     17          6           0        4.101537   -0.899197   -0.938949
     18          6           0        3.452097   -0.364182    0.172480
     19          6           0        3.995924    0.666842    0.937027
     20          6           0        5.243221    1.177411    0.565384
     21          1           0        6.888317    1.064163   -0.826431
     22          1           0        5.870950   -0.775818   -2.154916
     23          1           0        3.635722   -1.700335   -1.499853
     24          1           0        3.450404    1.047595    1.791926
     25          1           0        5.685028    1.981076    1.147599
     26          7           0        2.132189   -0.912834    0.556179
     27          8           0        1.580306   -0.424149    1.539668
     28          8           0        1.674519   -1.821162   -0.133832
 ---------------------------------------------------------------------

 SCF Done:  E(RHF) =  -868.337339190     A.U. after   16 cycles
 E2 =    -0.2599904895D+01 EUMP2 =    -0.87093724408499D+03

 The electronic state is 1-A.
 Alpha  occ. eigenvalues --  -20.59823 -20.59809 -20.59733 -20.59687 -15.84834
 Alpha  occ. eigenvalues --  -15.84791 -11.30399 -11.30301 -11.27018 -11.26974
 Alpha  occ. eigenvalues --  -11.26960 -11.26805 -11.26797 -11.26727 -11.26089
 Alpha  occ. eigenvalues --  -11.26059 -11.26009 -11.25924  -1.58839  -1.58810
 Alpha  occ. eigenvalues --   -1.38389  -1.38360  -1.18593  -1.18507  -1.07956
 Alpha  occ. eigenvalues --   -1.07889  -1.04036  -1.03926  -0.94770  -0.94680
 Alpha  occ. eigenvalues --   -0.85426  -0.85319  -0.81609  -0.81503  -0.76606
 Alpha  occ. eigenvalues --   -0.76518  -0.71153  -0.71007  -0.70164  -0.70034
 Alpha  occ. eigenvalues --   -0.69722  -0.69611  -0.64256  -0.64157  -0.64053
 Alpha  occ. eigenvalues --   -0.63939  -0.61387  -0.61252  -0.54549  -0.54455
 Alpha  occ. eigenvalues --   -0.52342  -0.52264  -0.52143  -0.52016  -0.47936
 Alpha  occ. eigenvalues --   -0.47821  -0.47776  -0.47685  -0.43904  -0.43552
 Alpha  occ. eigenvalues --   -0.36586  -0.36523  -0.35645  -0.35539
 Alpha virt. eigenvalues --    0.05901   0.06066   0.12008   0.12111   0.17350
 Alpha virt. eigenvalues --    0.17506   0.22061   0.22219   0.27953   0.28124
 Alpha virt. eigenvalues --    0.28972   0.29184   0.31573   0.31746   0.33240

 Mulliken charges:
               1
     1  C   -0.171502
     2  C   -0.219268
     3  C   -0.171886
     4  C    0.157017
     5  C   -0.172357
     6  C   -0.219660
     7  H    0.222533
     8  H    0.220020
     9  H    0.272915
    10  H    0.288829
    11  H    0.222864
    12  N    0.487400
    13  O   -0.448380
    14  O   -0.469231
    15  C   -0.171549
    16  C   -0.218625
    17  C   -0.170896
    18  C    0.161833
    19  C   -0.168929
    20  C   -0.218589
    21  H    0.222897
    22  H    0.220536
    23  H    0.273347
    24  H    0.276668
    25  H    0.221603
    26  N    0.492784
    27  O   -0.452745
    28  O   -0.467630
 Sum of Mulliken charges =  -0.00000

 Dipole moment (field-independent basis, Debye):
    X=              0.3123    Y=             -0.8731    Z=             -1.0548  Tot=              1.4044
 Quadrupole moment (field-independent basis, Debye-Ang):
   XX=            -44.3539   YY=           -103.9956   ZZ=           -103.5608
   XY=             10.7644   XZ=             -3.7465   YZ=              3.4634

 Normal termination of Gaussian 16 at Wed May  5 22:44:11 2021.
