 Gaussian 16, Revision A.03,
 Gaussian 16:  EM64L-G16RevA.03 25-Dec-2016

 -------------
 #p 6-31g* mp2
 -------------

 ------------------------------------------------------
 Input file generated by CHIRIPA (05-May-2021 14:55:21)
 ------------------------------------------------------
 Symbolic Z-matrix:
 Charge =  0 Multiplicity = 1

                         Standard orientation:
 ---------------------------------------------------------------------
 Center     Atomic      Atomic             Coordinates (Angstroms)
 Number     Number       Type             X           Y           Z
 ---------------------------------------------------------------------
      1          6           0        1.889430    1.192479    0.740110
      2          6           0        2.034773   -0.172412    1.009314
      3          6           0        3.209528   -0.844180    0.658275
      4          6           0        4.223299   -0.116849    0.036544
      5          6           0        4.108513    1.243615   -0.244973
      6          6           0        2.924938    1.894897    0.114928
      7          1           0        0.973426    1.706367    1.016248
      8          1           0        1.232243   -0.720462    1.494731
      9          1           0        3.348540   -1.900312    0.854945
     10          1           0        4.925990    1.763144   -0.729986
     11          1           0        2.814839    2.954944   -0.095369
     12          7           0        5.471628   -0.817177   -0.339776
     13          8           0        6.350007   -0.153777   -0.886573
     14          8           0        5.548051   -2.016232   -0.080813
     15          6           0       -4.515773    0.217609   -0.505788
     16          6           0       -3.294508    0.402638    0.395468
     17          6           0       -2.048595    0.834392   -0.378536
     18          1           0       -4.284395   -0.529554   -1.277253
     19          1           0       -4.719136    1.159497   -1.033884
     20          1           0       -3.094344   -0.538915    0.922753
     21          1           0       -3.528885    1.149306    1.164994
     22          1           0       -2.224161    1.785452   -0.891627
     23          1           0       -1.787150    0.087638   -1.135244
     24          1           0       -1.187482    0.960820    0.285058
     25          6           0       -5.769179   -0.213956    0.253459
     26          6           0       -6.990443   -0.398984   -0.647798
     27          6           0       -8.236355   -0.830739    0.126207
     28          1           0       -5.565815   -1.155844    0.781554
     29          1           0       -6.000556    0.533207    1.024922
     30          1           0       -6.756065   -1.145654   -1.417323
     31          1           0       -7.190607    0.542569   -1.175082
     32          1           0       -8.497801   -0.083985    0.882914
     33          1           0       -8.060790   -1.781798    0.639298
     34          1           0       -9.097469   -0.957168   -0.537388
 ---------------------------------------------------------------------

 SCF Done:  E(RHF) =  -669.535275573     A.U. after   15 cycles
 E2 =    -0.2090979819D+01 EUMP2 =    -0.67162625539204D+03

 The electronic state is 1-A.
 Alpha  occ. eigenvalues --  -20.60739 -20.60734 -15.85793 -11.31155 -11.27724
 Alpha  occ. eigenvalues --  -11.27721 -11.27450 -11.26738 -11.26727 -11.22440
 Alpha  occ. eigenvalues --  -11.22102 -11.22037 -11.22024 -11.21894 -11.21433
 Alpha  occ. eigenvalues --   -1.59814  -1.39368  -1.19327  -1.09050  -1.08723
 Alpha  occ. eigenvalues --   -1.04730  -1.04182  -0.96642  -0.95559  -0.87660
 Alpha  occ. eigenvalues --   -0.86127  -0.82393  -0.80249  -0.78829  -0.77438
 Alpha  occ. eigenvalues --   -0.72011  -0.71137  -0.70465  -0.65674  -0.64982
 Alpha  occ. eigenvalues --   -0.64741  -0.62081  -0.61567  -0.60072  -0.58252
 Alpha  occ. eigenvalues --   -0.55907  -0.55280  -0.53367  -0.53080  -0.52966
 Alpha  occ. eigenvalues --   -0.52821  -0.50561  -0.48770  -0.48766  -0.48561
 Alpha  occ. eigenvalues --   -0.47268  -0.46378  -0.46281  -0.44774  -0.44433
 Alpha  occ. eigenvalues --   -0.37288  -0.36333
 Alpha virt. eigenvalues --    0.05080   0.11294   0.16525   0.20081   0.22471
 Alpha virt. eigenvalues --    0.23893   0.26061   0.26193   0.26913   0.27416
 Alpha virt. eigenvalues --    0.28464   0.30435   0.30800   0.31454   0.32051

 Mulliken charges:
               1
     1  C   -0.170662
     2  C   -0.218638
     3  C   -0.171194
     4  C    0.158443
     5  C   -0.170984
     6  C   -0.219181
     7  H    0.227749
     8  H    0.223451
     9  H    0.275449
    10  H    0.275486
    11  H    0.223565
    12  N    0.488086
    13  O   -0.460491
    14  O   -0.460569
    15  C   -0.299116
    16  C   -0.299642
    17  C   -0.477718
    18  H    0.151519
    19  H    0.150720
    20  H    0.151322
    21  H    0.152037
    22  H    0.157722
    23  H    0.160948
    24  H    0.148413
    25  C   -0.298675
    26  C   -0.300133
    27  C   -0.476021
    28  H    0.150006
    29  H    0.149953
    30  H    0.152906
    31  H    0.152505
    32  H    0.155435
    33  H    0.155669
    34  H    0.161644
 Sum of Mulliken charges =  -0.00000

 Dipole moment (field-independent basis, Debye):
    X=             -4.5787    Y=              2.4552    Z=              1.2663  Tot=              5.3475
 Quadrupole moment (field-independent basis, Debye-Ang):
   XX=           -132.0586   YY=            -90.9785   ZZ=            -94.8945
   XY=             12.3269   XZ=              5.1766   YZ=             -1.6622

 Normal termination of Gaussian 16 at Thu May  6 15:50:38 2021.
