 Gaussian 16, Revision A.03,
 Gaussian 16:  EM64L-G16RevA.03 25-Dec-2016

 -------------
 #p 6-31g* mp2
 -------------

 ------------------------------------------------------
 Input file generated by CHIRIPA (05-May-2021 14:57:23)
 ------------------------------------------------------
 Symbolic Z-matrix:
 Charge =  0 Multiplicity = 1

                         Standard orientation:
 ---------------------------------------------------------------------
 Center     Atomic      Atomic             Coordinates (Angstroms)
 Number     Number       Type             X           Y           Z
 ---------------------------------------------------------------------
      1          6           0        2.922036   -2.120461    0.843788
      2          6           0        3.168686   -1.649145   -0.449868
      3          6           0        2.932144   -0.310113   -0.774814
      4          6           0        2.446662    0.533752    0.222929
      5          6           0        2.191050    0.094155    1.520892
      6          6           0        2.434864   -1.248843    1.823312
      7          1           0        3.108612   -3.162194    1.087464
      8          1           0        3.547039   -2.323783   -1.212597
      9          1           0        3.114385    0.081225   -1.768323
     10          1           0        1.813987    0.790594    2.259955
     11          1           0        2.242399   -1.612100    2.828820
     12          7           0        2.192397    1.953424   -0.109153
     13          8           0        1.764604    2.676671    0.787812
     14          8           0        2.425711    2.316036   -1.260115
     15          6           0       -4.363356    1.015036    0.781761
     16          6           0       -3.376207    1.675001    0.042501
     17          6           0       -2.332788    0.956639   -0.548921
     18          6           0       -2.307320   -0.426884   -0.380081
     19          6           0       -3.276062   -1.113157    0.350574
     20          6           0       -4.310227   -0.374487    0.933172
     21          1           0       -5.170315    1.580964    1.237764
     22          1           0       -3.414927    2.754040   -0.076749
     23          1           0       -1.555529    1.442207   -1.126426
     24          1           0       -3.210695   -2.189667    0.451921
     25          1           0       -5.075492   -0.889682    1.506745
     26          7           0       -1.207598   -1.198130   -1.001522
     27          8           0       -1.207762   -2.416280   -0.837975
     28          8           0       -0.366296   -0.569880   -1.640387
 ---------------------------------------------------------------------

 SCF Done:  E(RHF) =  -868.339417423     A.U. after   16 cycles
 E2 =    -0.2600758803D+01 EUMP2 =    -0.87094017622591D+03

 The electronic state is 1-A.
 Alpha  occ. eigenvalues --  -20.60903 -20.60867 -20.60160 -20.60115 -15.85910
 Alpha  occ. eigenvalues --  -15.85178 -11.31096 -11.30180 -11.27690 -11.27569
 Alpha  occ. eigenvalues --  -11.27365 -11.26856 -11.26695 -11.26670 -11.26557
 Alpha  occ. eigenvalues --  -11.26498 -11.25810 -11.25638  -1.59949  -1.59221
 Alpha  occ. eigenvalues --   -1.39512  -1.38783  -1.19254  -1.18359  -1.08690
 Alpha  occ. eigenvalues --   -1.07829  -1.04620  -1.03736  -0.95554  -0.94721
 Alpha  occ. eigenvalues --   -0.86033  -0.85163  -0.82388  -0.81581  -0.77453
 Alpha  occ. eigenvalues --   -0.76656  -0.72169  -0.71421  -0.71282  -0.70497
 Alpha  occ. eigenvalues --   -0.70362  -0.69522  -0.64908  -0.64619  -0.64044
 Alpha  occ. eigenvalues --   -0.63782  -0.61960  -0.61119  -0.55145  -0.54293
 Alpha  occ. eigenvalues --   -0.52981  -0.52705  -0.52057  -0.51864  -0.48911
 Alpha  occ. eigenvalues --   -0.48878  -0.48185  -0.48144  -0.44963  -0.44267
 Alpha  occ. eigenvalues --   -0.37248  -0.36282  -0.36215  -0.35250
 Alpha virt. eigenvalues --    0.05043   0.05889   0.11426   0.12379   0.16582
 Alpha virt. eigenvalues --    0.17447   0.21593   0.22336   0.27534   0.28229
 Alpha virt. eigenvalues --    0.28429   0.29224   0.31113   0.31817   0.32672

 Mulliken charges:
               1
     1  C   -0.166348
     2  C   -0.213109
     3  C   -0.151089
     4  C    0.159914
     5  C   -0.176648
     6  C   -0.220226
     7  H    0.223523
     8  H    0.223043
     9  H    0.275173
    10  H    0.269403
    11  H    0.218161
    12  N    0.487231
    13  O   -0.469950
    14  O   -0.460360
    15  C   -0.170762
    16  C   -0.218059
    17  C   -0.171039
    18  C    0.157059
    19  C   -0.172198
    20  C   -0.219112
    21  H    0.225881
    22  H    0.228213
    23  H    0.282165
    24  H    0.272917
    25  H    0.222134
    26  N    0.489694
    27  O   -0.464156
    28  O   -0.461458
 Sum of Mulliken charges =  -0.00000

 Dipole moment (field-independent basis, Debye):
    X=             -3.0166    Y=             -2.3306    Z=              3.0675  Tot=              4.8930
 Quadrupole moment (field-independent basis, Debye-Ang):
   XX=            -82.5983   YY=           -109.7755   ZZ=           -101.9314
   XY=            -15.8633   XZ=             -3.7235   YZ=             -3.4135

 Normal termination of Gaussian 16 at Wed May  5 16:22:23 2021.
