 Gaussian 16, Revision A.03,
 Gaussian 16:  EM64L-G16RevA.03 25-Dec-2016

 -------------
 #p 6-31g* mp2
 -------------

 ------------------------------------------------------
 Input file generated by CHIRIPA (05-May-2021 14:53:15)
 ------------------------------------------------------
 Symbolic Z-matrix:
 Charge =  0 Multiplicity = 1

                         Standard orientation:
 ---------------------------------------------------------------------
 Center     Atomic      Atomic             Coordinates (Angstroms)
 Number     Number       Type             X           Y           Z
 ---------------------------------------------------------------------
      1          6           0        2.963816    1.079878   -0.065340
      2          6           0        1.929968    2.166612   -0.362244
      3          6           0        2.368308    3.548281    0.124214
      4          1           0        3.151238    1.046802    1.016660
      5          1           0        3.917189    1.351162   -0.539555
      6          1           0        0.978445    1.892676    0.111232
      7          1           0        1.744844    2.196974   -1.443643
      8          1           0        3.305040    3.846966   -0.357369
      9          1           0        2.534287    3.540939    1.206341
     10          1           0        1.614550    4.310005   -0.098240
     11          6           0        2.539957   -0.306971   -0.545675
     12          6           0        3.573805   -1.393705   -0.248770
     13          6           0        3.135465   -2.775375   -0.735229
     14          1           0        1.586584   -0.578255   -0.071460
     15          1           0        2.352536   -0.273896   -1.627675
     16          1           0        3.758929   -1.424067    0.832628
     17          1           0        4.525328   -1.119770   -0.722246
     18          1           0        2.969487   -2.768032   -1.817355
     19          1           0        2.198733   -3.074059   -0.253646
     20          1           0        3.889223   -3.537098   -0.512775
     21          6           0       -3.507687    0.369155   -1.779250
     22          6           0       -3.601759    1.107720   -0.595108
     23          6           0       -2.854101    0.745052    0.529183
     24          6           0       -2.018647   -0.366794    0.433763
     25          6           0       -1.903227   -1.122767   -0.731772
     26          6           0       -2.660215   -0.741772   -1.843689
     27          1           0       -4.092109    0.658002   -2.647820
     28          1           0       -4.259093    1.970943   -0.542177
     29          1           0       -2.907787    1.299068    1.458484
     30          1           0       -1.239287   -1.978396   -0.754114
     31          1           0       -2.585150   -1.317213   -2.761991
     32          7           0       -1.222196   -0.760434    1.617450
     33          8           0       -0.493485   -1.744087    1.507702
     34          8           0       -1.341730   -0.077864    2.632558
 ---------------------------------------------------------------------

 SCF Done:  E(RHF) =  -669.536689594     A.U. after   15 cycles
 E2 =    -0.2092573279D+01 EUMP2 =    -0.67162926287281D+03

 The electronic state is 1-A.
 Alpha  occ. eigenvalues --  -20.61038 -20.61032 -15.86041 -11.31305 -11.27863
 Alpha  occ. eigenvalues --  -11.27847 -11.27584 -11.26850 -11.26837 -11.21287
 Alpha  occ. eigenvalues --  -11.20959 -11.20877 -11.20791 -11.20731 -11.20463
 Alpha  occ. eigenvalues --   -1.60084  -1.39643  -1.19463  -1.08881  -1.07906
 Alpha  occ. eigenvalues --   -1.04847  -1.03041  -0.95733  -0.95493  -0.86517
 Alpha  occ. eigenvalues --   -0.86254  -0.82569  -0.79125  -0.77774  -0.77586
 Alpha  occ. eigenvalues --   -0.72270  -0.71396  -0.70572  -0.65124  -0.64853
 Alpha  occ. eigenvalues --   -0.64505  -0.62197  -0.60422  -0.58878  -0.57116
 Alpha  occ. eigenvalues --   -0.55359  -0.54762  -0.53180  -0.52941  -0.52217
 Alpha  occ. eigenvalues --   -0.51935  -0.49432  -0.49047  -0.49020  -0.47452
 Alpha  occ. eigenvalues --   -0.46166  -0.45543  -0.45248  -0.44611  -0.43288
 Alpha  occ. eigenvalues --   -0.37431  -0.36436
 Alpha virt. eigenvalues --    0.04871   0.11164   0.16337   0.21143   0.23235
 Alpha virt. eigenvalues --    0.24511   0.26328   0.27299   0.27670   0.28057
 Alpha virt. eigenvalues --    0.28845   0.30807   0.31466   0.32180   0.32325

 Mulliken charges:
               1
     1  C   -0.298491
     2  C   -0.298316
     3  C   -0.475444
     4  H    0.154844
     5  H    0.146940
     6  H    0.149463
     7  H    0.148116
     8  H    0.154179
     9  H    0.158277
    10  H    0.156737
    11  C   -0.306238
    12  C   -0.297035
    13  C   -0.480090
    14  H    0.160577
    15  H    0.141737
    16  H    0.157520
    17  H    0.147841
    18  H    0.147708
    19  H    0.165733
    20  H    0.158835
    21  C   -0.170192
    22  C   -0.218382
    23  C   -0.171119
    24  C    0.158634
    25  C   -0.170364
    26  C   -0.218593
    27  H    0.226079
    28  H    0.223870
    29  H    0.275800
    30  H    0.276586
    31  H    0.224137
    32  N    0.488148
    33  O   -0.459584
    34  O   -0.457912
 Sum of Mulliken charges =  -0.00000

 Dipole moment (field-independent basis, Debye):
    X=             -2.9718    Y=              1.3238    Z=             -4.0009  Tot=              5.1566
 Quadrupole moment (field-independent basis, Debye-Ang):
   XX=            -83.2785   YY=            -94.5273   ZZ=            -96.8413
   XY=             -3.7162   XZ=              6.3357   YZ=              3.8683

 Normal termination of Gaussian 16 at Wed May  5 18:39:55 2021.
