 Gaussian 16, Revision A.03,
 Gaussian 16:  EM64L-G16RevA.03 25-Dec-2016

 -------------
 #p 6-31g* mp2
 -------------

 ------------------------------------------------------
 Input file generated by CHIRIPA (05-May-2021 14:55:22)
 ------------------------------------------------------
 Symbolic Z-matrix:
 Charge =  0 Multiplicity = 1

                         Standard orientation:
 ---------------------------------------------------------------------
 Center     Atomic      Atomic             Coordinates (Angstroms)
 Number     Number       Type             X           Y           Z
 ---------------------------------------------------------------------
      1          6           0       -4.033277    2.052402   -0.544512
      2          6           0       -3.901743    1.690698    0.800252
      3          6           0       -3.157915    0.563874    1.162930
      4          6           0       -2.556302   -0.181863    0.150394
      5          6           0       -2.668890    0.152793   -1.198168
      6          6           0       -3.417516    1.283651   -1.537679
      7          1           0       -4.612965    2.929312   -0.817251
      8          1           0       -4.378852    2.285853    1.573687
      9          1           0       -3.039794    0.261161    2.196288
     10          1           0       -2.181701   -0.460163   -1.946734
     11          1           0       -3.517960    1.562176   -2.582849
     12          7           0       -1.766304   -1.376916    0.522082
     13          8           0       -1.246062   -2.017299   -0.388903
     14          8           0       -1.682305   -1.650587    1.717358
     15          6           0        3.555208    0.710656   -0.306430
     16          6           0        4.559116    1.423771    0.600004
     17          6           0        4.781556    2.883344    0.202563
     18          1           0        3.909644    0.759390   -1.345153
     19          1           0        2.598071    1.249568   -0.277152
     20          1           0        5.513664    0.882883    0.570101
     21          1           0        4.202345    1.373166    1.636715
     22          1           0        3.841888    3.443113    0.250330
     23          1           0        5.160658    2.950044   -0.822344
     24          1           0        5.502724    3.374006    0.863644
     25          6           0        3.322239   -0.749303    0.078243
     26          6           0        2.318332   -1.462417   -0.828189
     27          6           0        2.095892   -2.921991   -0.430749
     28          1           0        4.279377   -1.288216    0.048966
     29          1           0        2.967805   -0.798037    1.116967
     30          1           0        2.675103   -1.411813   -1.864901
     31          1           0        1.363784   -0.921529   -0.798288
     32          1           0        1.716791   -2.988691    0.594158
     33          1           0        3.035561   -3.481761   -0.478516
     34          1           0        1.374724   -3.412654   -1.091829
 ---------------------------------------------------------------------

 SCF Done:  E(RHF) =  -669.535988981     A.U. after   15 cycles
 E2 =    -0.2091979318D+01 EUMP2 =    -0.67162796829875D+03

 The electronic state is 1-A.
 Alpha  occ. eigenvalues --  -20.61021 -20.61001 -15.86023 -11.31329 -11.27888
 Alpha  occ. eigenvalues --  -11.27884 -11.27621 -11.26891 -11.26880 -11.21150
 Alpha  occ. eigenvalues --  -11.20798 -11.20770 -11.20476 -11.20342 -11.19396
 Alpha  occ. eigenvalues --   -1.60064  -1.39622  -1.19495  -1.08903  -1.07650
 Alpha  occ. eigenvalues --   -1.04887  -1.02630  -0.95753  -0.95066  -0.86289
 Alpha  occ. eigenvalues --   -0.86094  -0.82582  -0.78769  -0.77647  -0.77398
 Alpha  occ. eigenvalues --   -0.72256  -0.71383  -0.70602  -0.65153  -0.64889
 Alpha  occ. eigenvalues --   -0.64287  -0.62233  -0.60023  -0.58528  -0.56653
 Alpha  occ. eigenvalues --   -0.55393  -0.54375  -0.53217  -0.52977  -0.51740
 Alpha  occ. eigenvalues --   -0.51507  -0.49215  -0.49009  -0.48807  -0.47059
 Alpha  occ. eigenvalues --   -0.45858  -0.45249  -0.44925  -0.44565  -0.42890
 Alpha  occ. eigenvalues --   -0.37472  -0.36487
 Alpha virt. eigenvalues --    0.04862   0.11158   0.16335   0.21276   0.23546
 Alpha virt. eigenvalues --    0.25247   0.27101   0.27365   0.27980   0.28390
 Alpha virt. eigenvalues --    0.28982   0.30776   0.31946   0.32354   0.32702

 Mulliken charges:
               1
     1  C   -0.170517
     2  C   -0.218574
     3  C   -0.170784
     4  C    0.157744
     5  C   -0.171108
     6  C   -0.218472
     7  H    0.226187
     8  H    0.223952
     9  H    0.275830
    10  H    0.276224
    11  H    0.224125
    12  N    0.488598
    13  O   -0.457697
    14  O   -0.459078
    15  C   -0.296695
    16  C   -0.298955
    17  C   -0.475019
    18  H    0.147275
    19  H    0.145508
    20  H    0.151707
    21  H    0.151828
    22  H    0.152862
    23  H    0.154068
    24  H    0.158806
    25  C   -0.298721
    26  C   -0.299711
    27  C   -0.469168
    28  H    0.146969
    29  H    0.151209
    30  H    0.143733
    31  H    0.153668
    32  H    0.163604
    33  H    0.142714
    34  H    0.167889
 Sum of Mulliken charges =  -0.00000

 Dipole moment (field-independent basis, Debye):
    X=             -3.1172    Y=              4.1001    Z=             -1.2551  Tot=              5.3012
 Quadrupole moment (field-independent basis, Debye-Ang):
   XX=            -81.4601   YY=            -97.9141   ZZ=            -90.1954
   XY=            -11.2796   XZ=              1.6472   YZ=              2.0384

 Normal termination of Gaussian 16 at Thu May  6 01:29:28 2021.
