 Gaussian 16, Revision A.03,
 Gaussian 16:  EM64L-G16RevA.03 25-Dec-2016

 -------------
 #p 6-31g* mp2
 -------------

 ------------------------------------------------------
 Input file generated by CHIRIPA (05-May-2021 14:51:14)
 ------------------------------------------------------
 Symbolic Z-matrix:
 Charge =  0 Multiplicity = 1

                         Standard orientation:
 ---------------------------------------------------------------------
 Center     Atomic      Atomic             Coordinates (Angstroms)
 Number     Number       Type             X           Y           Z
 ---------------------------------------------------------------------
      1          6           0       -2.548958    1.198857    0.371029
      2          6           0       -1.492436    2.280586    0.143852
      3          6           0       -1.465610    3.324535    1.260654
      4          1           0       -3.536713    1.672164    0.456266
      5          1           0       -2.355669    0.703548    1.332644
      6          1           0       -1.686845    2.772774   -0.817694
      7          1           0       -0.507105    1.804633    0.058955
      8          1           0       -1.248951    2.852282    2.224312
      9          1           0       -2.435394    3.825925    1.342682
     10          1           0       -0.703205    4.088252    1.078079
     11          6           0       -2.587993    0.147947   -0.737029
     12          6           0       -3.644515   -0.933781   -0.509851
     13          6           0       -3.671341   -1.977730   -1.626653
     14          1           0       -2.781283    0.643257   -1.698643
     15          1           0       -1.600238   -0.325359   -0.822265
     16          1           0       -4.629846   -0.457828   -0.424955
     17          1           0       -3.450106   -1.425970    0.451695
     18          1           0       -2.701557   -2.479121   -1.708681
     19          1           0       -3.888000   -1.505478   -2.590311
     20          1           0       -4.433746   -2.741447   -1.444078
     21          6           0        2.766476   -0.276286   -0.438713
     22          6           0        4.179621    0.302837   -0.363719
     23          6           0        4.561175    1.094611   -1.614840
     24          1           0        2.689123   -0.924475   -1.322349
     25          1           0        2.049493    0.542848   -0.588210
     26          1           0        4.893595   -0.517009   -0.213023
     27          1           0        4.253676    0.949571    0.519948
     28          1           0        3.871795    1.931534   -1.766227
     29          1           0        4.515351    0.456621   -2.503362
     30          1           0        5.575186    1.499614   -1.539918
     31          6           0        2.370475   -1.070519    0.804712
     32          6           0        0.957330   -1.649641    0.729719
     33          6           0        0.575777   -2.441416    1.980839
     34          1           0        3.087457   -1.889652    0.954209
     35          1           0        2.447829   -0.422330    1.688349
     36          1           0        0.883276   -2.296375   -0.153949
     37          1           0        0.243356   -0.829795    0.579023
     38          1           0        0.621600   -1.803426    2.869360
     39          1           0        1.265155   -3.278338    2.132225
     40          1           0       -0.438235   -2.846419    1.905917
 ---------------------------------------------------------------------

 SCF Done:  E(RHF) =  -470.733146512     A.U. after   11 cycles
 E2 =    -0.1584043937D+01 EUMP2 =    -0.47231719044884D+03

 The electronic state is 1-A.
 Alpha  occ. eigenvalues --  -11.21677 -11.21658 -11.21636 -11.21586 -11.21465
 Alpha  occ. eigenvalues --  -11.21406 -11.21405 -11.21309 -11.21156 -11.21119
 Alpha  occ. eigenvalues --  -11.21090 -11.21055  -1.08512  -1.08423  -1.03590
 Alpha  occ. eigenvalues --   -1.03544  -0.96039  -0.95986  -0.87052  -0.87005
 Alpha  occ. eigenvalues --   -0.79683  -0.79594  -0.78401  -0.78159  -0.65343
 Alpha  occ. eigenvalues --   -0.64892  -0.60991  -0.60937  -0.59403  -0.59357
 Alpha  occ. eigenvalues --   -0.57663  -0.57584  -0.55379  -0.55223  -0.52732
 Alpha  occ. eigenvalues --   -0.52687  -0.52472  -0.52401  -0.49999  -0.49913
 Alpha  occ. eigenvalues --   -0.48032  -0.47911  -0.46769  -0.46653  -0.46217
 Alpha  occ. eigenvalues --   -0.45801  -0.45748  -0.45170  -0.43839  -0.43789
 Alpha virt. eigenvalues --    0.19503   0.22427   0.23884   0.24882   0.24977
 Alpha virt. eigenvalues --    0.26625   0.26827   0.27661   0.28444   0.29638
 Alpha virt. eigenvalues --    0.30617   0.31263   0.31682   0.31836   0.32575

 Mulliken charges:
               1
     1  C   -0.298744
     2  C   -0.304914
     3  C   -0.475478
     4  H    0.150126
     5  H    0.149678
     6  H    0.152550
     7  H    0.154693
     8  H    0.155028
     9  H    0.155634
    10  H    0.160142
    11  C   -0.304477
    12  C   -0.299450
    13  C   -0.475899
    14  H    0.149452
    15  H    0.156190
    16  H    0.151835
    17  H    0.151703
    18  H    0.155516
    19  H    0.155165
    20  H    0.160083
    21  C   -0.302039
    22  C   -0.299577
    23  C   -0.475815
    24  H    0.149947
    25  H    0.152105
    26  H    0.152136
    27  H    0.152081
    28  H    0.155452
    29  H    0.155282
    30  H    0.160370
    31  C   -0.297295
    32  C   -0.309327
    33  C   -0.475632
    34  H    0.149921
    35  H    0.149624
    36  H    0.151711
    37  H    0.161061
    38  H    0.155148
    39  H    0.155820
    40  H    0.160190
 Sum of Mulliken charges =  -0.00000

 Dipole moment (field-independent basis, Debye):
    X=              0.0214    Y=             -0.0045    Z=             -0.0038  Tot=              0.0222
 Quadrupole moment (field-independent basis, Debye-Ang):
   XX=            -84.3607   YY=            -84.7754   ZZ=            -85.5728
   XY=             -1.1179   XZ=              0.4332   YZ=             -0.0295

 Normal termination of Gaussian 16 at Wed May  5 15:23:32 2021.
