 Gaussian 16, Revision A.03,
 Gaussian 16:  EM64L-G16RevA.03 25-Dec-2016

 -------------
 #p 6-31g* mp2
 -------------

 ------------------------------------------------------
 Input file generated by CHIRIPA (05-May-2021 14:51:13)
 ------------------------------------------------------
 Symbolic Z-matrix:
 Charge =  0 Multiplicity = 1

                         Standard orientation:
 ---------------------------------------------------------------------
 Center     Atomic      Atomic             Coordinates (Angstroms)
 Number     Number       Type             X           Y           Z
 ---------------------------------------------------------------------
      1          6           0       -3.780680   -0.118336   -0.053802
      2          6           0       -3.865947    1.290396    0.534576
      3          6           0       -5.305142    1.788936    0.668627
      4          1           0       -4.266625   -0.127348   -1.039053
      5          1           0       -4.351207   -0.809051    0.582442
      6          1           0       -3.294281    1.978000   -0.101831
      7          1           0       -3.379573    1.296100    1.518458
      8          1           0       -5.883293    1.126113    1.320553
      9          1           0       -5.797516    1.811888   -0.308942
     10          1           0       -5.342811    2.797819    1.091234
     11          6           0       -2.348331   -0.630635   -0.194004
     12          6           0       -2.263064   -2.039367   -0.782382
     13          6           0       -0.823869   -2.537908   -0.916433
     14          1           0       -1.777804    0.060080   -0.830248
     15          1           0       -1.862386   -0.621624    0.791248
     16          1           0       -2.749438   -2.045071   -1.766264
     17          1           0       -2.834730   -2.726972   -0.145975
     18          1           0       -0.331495   -2.560859    0.061137
     19          1           0       -0.245718   -1.875084   -1.568359
     20          1           0       -0.786199   -3.546791   -1.339039
     21          6           0        2.949191   -0.355846   -0.067802
     22          6           0        3.265396   -1.336494    1.061945
     23          6           0        3.029786   -2.793630    0.663148
     24          1           0        1.903538   -0.488195   -0.377701
     25          1           0        3.567826   -0.602385   -0.941818
     26          1           0        2.647349   -1.087318    1.934036
     27          1           0        4.310364   -1.201664    1.369320
     28          1           0        3.657415   -3.065375   -0.191743
     29          1           0        1.984951   -2.950380    0.376182
     30          1           0        3.262011   -3.477503    1.485492
     31          6           0        3.179819    1.104817    0.315607
     32          6           0        2.863615    2.085466   -0.814139
     33          6           0        3.099225    3.542601   -0.415343
     34          1           0        2.561186    1.351357    1.189624
     35          1           0        4.225473    1.237166    0.625506
     36          1           0        1.818647    1.950636   -1.121514
     37          1           0        3.481663    1.836290   -1.686231
     38          1           0        4.144060    3.699352   -0.128377
     39          1           0        2.471596    3.814347    0.439548
     40          1           0        2.867000    4.226475   -1.237686
 ---------------------------------------------------------------------

 SCF Done:  E(RHF) =  -470.733067967     A.U. after   11 cycles
 E2 =    -0.1583178246D+01 EUMP2 =    -0.47231624621303D+03

 The electronic state is 1-A.
 Alpha  occ. eigenvalues --  -11.21674 -11.21650 -11.21573 -11.21525 -11.21478
 Alpha  occ. eigenvalues --  -11.21414 -11.21337 -11.21265 -11.21157 -11.21107
 Alpha  occ. eigenvalues --  -11.21048 -11.20925  -1.08499  -1.08365  -1.03603
 Alpha  occ. eigenvalues --   -1.03462  -0.96058  -0.95906  -0.87084  -0.86919
 Alpha  occ. eigenvalues --   -0.79704  -0.79499  -0.78329  -0.78157  -0.65130
 Alpha  occ. eigenvalues --   -0.65001  -0.61048  -0.60837  -0.59416  -0.59284
 Alpha  occ. eigenvalues --   -0.57671  -0.57517  -0.55467  -0.55094  -0.52756
 Alpha  occ. eigenvalues --   -0.52613  -0.52515  -0.52298  -0.50119  -0.49717
 Alpha  occ. eigenvalues --   -0.48124  -0.47754  -0.46722  -0.46501  -0.45981
 Alpha  occ. eigenvalues --   -0.45770  -0.45687  -0.45451  -0.43849  -0.43719
 Alpha virt. eigenvalues --    0.21179   0.23077   0.23681   0.24472   0.25787
 Alpha virt. eigenvalues --    0.26457   0.27179   0.27391   0.28112   0.29513
 Alpha virt. eigenvalues --    0.30319   0.31265   0.31799   0.31902   0.32064

 Mulliken charges:
               1
     1  C   -0.298271
     2  C   -0.299720
     3  C   -0.475756
     4  H    0.149931
     5  H    0.149792
     6  H    0.151957
     7  H    0.151876
     8  H    0.155281
     9  H    0.155308
    10  H    0.160426
    11  C   -0.298652
    12  C   -0.300123
    13  C   -0.480738
    14  H    0.149155
    15  H    0.149429
    16  H    0.152340
    17  H    0.152331
    18  H    0.157571
    19  H    0.158017
    20  H    0.161366
    21  C   -0.302518
    22  C   -0.298919
    23  C   -0.483328
    24  H    0.154418
    25  H    0.149001
    26  H    0.150777
    27  H    0.151576
    28  H    0.154753
    29  H    0.164283
    30  H    0.159195
    31  C   -0.297995
    32  C   -0.299477
    33  C   -0.475665
    34  H    0.149398
    35  H    0.149428
    36  H    0.151401
    37  H    0.151758
    38  H    0.155168
    39  H    0.155242
    40  H    0.159979
 Sum of Mulliken charges =  -0.00000

 Dipole moment (field-independent basis, Debye):
    X=             -0.0650    Y=             -0.0224    Z=             -0.0238  Tot=              0.0728
 Quadrupole moment (field-independent basis, Debye-Ang):
   XX=            -84.9393   YY=            -86.0755   ZZ=            -83.8371
   XY=              0.3775   XZ=             -0.2720   YZ=             -0.5163

 Normal termination of Gaussian 16 at Wed May  5 18:21:54 2021.
