 Gaussian 16, Revision A.03,
 Gaussian 16:  EM64L-G16RevA.03 25-Dec-2016

 -------------
 #p 6-31g* mp2
 -------------

 ------------------------------------------------------
 Input file generated by CHIRIPA (05-May-2021 14:57:23)
 ------------------------------------------------------
 Symbolic Z-matrix:
 Charge =  0 Multiplicity = 1

                         Standard orientation:
 ---------------------------------------------------------------------
 Center     Atomic      Atomic             Coordinates (Angstroms)
 Number     Number       Type             X           Y           Z
 ---------------------------------------------------------------------
      1          6           0       -2.353580    2.436251   -0.562421
      2          6           0       -3.590506    1.931229   -0.148309
      3          6           0       -3.763130    0.559895    0.061913
      4          6           0       -2.672570   -0.281549   -0.152425
      5          6           0       -1.427761    0.191215   -0.565019
      6          6           0       -1.278051    1.566166   -0.769089
      7          1           0       -2.228382    3.502941   -0.723337
      8          1           0       -4.427531    2.604595    0.012972
      9          1           0       -4.709749    0.142099    0.382500
     10          1           0       -0.611873   -0.504825   -0.717577
     11          1           0       -0.316289    1.955561   -1.090694
     12          7           0       -2.843190   -1.735234    0.066872
     13          8           0       -1.866786   -2.455614   -0.128895
     14          8           0       -3.950095   -2.126726    0.430371
     15          6           0        2.120780    2.454326    0.710303
     16          6           0        1.464512    1.430326    1.401141
     17          6           0        1.746726    0.090158    1.120335
     18          6           0        2.695076   -0.191253    0.138128
     19          6           0        3.365722    0.806621   -0.567400
     20          6           0        3.067622    2.139760   -0.270034
     21          1           0        1.895379    3.492671    0.934871
     22          1           0        0.728721    1.671664    2.162989
     23          1           0        1.253479   -0.722319    1.639956
     24          1           0        4.094333    0.534860   -1.321516
     25          1           0        3.578842    2.932943   -0.808142
     26          7           0        3.002253   -1.606309   -0.167914
     27          8           0        3.841854   -1.827905   -1.037742
     28          8           0        2.397599   -2.467039    0.467834
 ---------------------------------------------------------------------

 SCF Done:  E(RHF) =  -868.335069411     A.U. after   16 cycles
 E2 =    -0.2604587791D+01 EUMP2 =    -0.87093965720114D+03

 The electronic state is 1-A.
 Alpha  occ. eigenvalues --  -20.61040 -20.60979 -20.60769 -20.60735 -15.86070
 Alpha  occ. eigenvalues --  -15.85804 -11.31804 -11.31348 -11.28367 -11.28267
 Alpha  occ. eigenvalues --  -11.28151 -11.27905 -11.27848 -11.27703 -11.27501
 Alpha  occ. eigenvalues --  -11.27389 -11.27002 -11.26894  -1.60085  -1.59833
 Alpha  occ. eigenvalues --   -1.39622  -1.39377  -1.20015  -1.19528  -1.09340
 Alpha  occ. eigenvalues --   -1.08903  -1.05444  -1.04911  -0.96100  -0.95703
 Alpha  occ. eigenvalues --   -0.86802  -0.86320  -0.82893  -0.82513  -0.77884
 Alpha  occ. eigenvalues --   -0.77534  -0.72266  -0.72007  -0.71437  -0.71175
 Alpha  occ. eigenvalues --   -0.71065  -0.70634  -0.65608  -0.65374  -0.65165
 Alpha  occ. eigenvalues --   -0.64938  -0.62713  -0.62306  -0.55901  -0.55500
 Alpha  occ. eigenvalues --   -0.53959  -0.53455  -0.53154  -0.52930  -0.49065
 Alpha  occ. eigenvalues --   -0.49009  -0.48792  -0.48761  -0.44937  -0.44738
 Alpha  occ. eigenvalues --   -0.38173  -0.37550  -0.37497  -0.35897
 Alpha virt. eigenvalues --    0.04411   0.05142   0.10005   0.11591   0.15853
 Alpha virt. eigenvalues --    0.16557   0.20757   0.21377   0.26759   0.27083
 Alpha virt. eigenvalues --    0.27514   0.28183   0.30292   0.30844   0.31731

 Mulliken charges:
               1
     1  C   -0.176948
     2  C   -0.218321
     3  C   -0.172528
     4  C    0.157608
     5  C   -0.176071
     6  C   -0.219200
     7  H    0.222043
     8  H    0.223000
     9  H    0.276070
    10  H    0.278091
    11  H    0.227387
    12  N    0.486715
    13  O   -0.453700
    14  O   -0.460980
    15  C   -0.181651
    16  C   -0.212485
    17  C   -0.180543
    18  C    0.156226
    19  C   -0.172767
    20  C   -0.220827
    21  H    0.225089
    22  H    0.228109
    23  H    0.284913
    24  H    0.278378
    25  H    0.225120
    26  N    0.486912
    27  O   -0.459807
    28  O   -0.449835
 Sum of Mulliken charges =  -0.00000

 Dipole moment (field-independent basis, Debye):
    X=             -0.3039    Y=              9.8152    Z=              0.4043  Tot=              9.8282
 Quadrupole moment (field-independent basis, Debye-Ang):
   XX=           -107.6537   YY=           -110.2367   ZZ=           -102.6478
   XY=              0.0157   XZ=              0.8611   YZ=             -0.9891

 Normal termination of Gaussian 16 at Fri May  7 08:02:02 2021.
