 Gaussian 16, Revision A.03,
 Gaussian 16:  EM64L-G16RevA.03 25-Dec-2016

 -------------
 #p 6-31g* mp2
 -------------

 ------------------------------------------------------
 Input file generated by CHIRIPA (05-May-2021 14:53:17)
 ------------------------------------------------------
 Symbolic Z-matrix:
 Charge =  0 Multiplicity = 1

                         Standard orientation:
 ---------------------------------------------------------------------
 Center     Atomic      Atomic             Coordinates (Angstroms)
 Number     Number       Type             X           Y           Z
 ---------------------------------------------------------------------
      1          6           0       -4.956179    0.606564   -0.258962
      2          6           0       -6.362993    0.657271    0.337936
      3          6           0       -7.102353    1.952155   -0.000319
      4          1           0       -4.378458    1.466552    0.106557
      5          1           0       -5.024199    0.716735   -1.350122
      6          1           0       -6.292444    0.545650    1.427514
      7          1           0       -6.937371   -0.203043   -0.028895
      8          1           0       -7.202209    2.066803   -1.084517
      9          1           0       -6.553618    2.819750    0.380168
     10          1           0       -8.105853    1.967268    0.436282
     11          6           0       -4.204395   -0.681856    0.070468
     12          6           0       -2.797581   -0.732563   -0.526430
     13          6           0       -2.058221   -2.027447   -0.188175
     14          1           0       -4.136375   -0.792027    1.161629
     15          1           0       -4.782116   -1.541844   -0.295051
     16          1           0       -2.223203    0.127751   -0.159598
     17          1           0       -2.868130   -0.620942   -1.616008
     18          1           0       -2.606957   -2.895042   -0.568661
     19          1           0       -1.958365   -2.142095    0.896023
     20          1           0       -1.054722   -2.042560   -0.624776
     21          6           0        5.522307    1.588964   -0.319750
     22          6           0        5.030607    1.396086    0.975453
     23          6           0        3.953961    0.534336    1.205172
     24          6           0        3.390415   -0.121361    0.111661
     25          6           0        3.857758    0.049980   -1.190462
     26          6           0        4.935347    0.916481   -1.396675
     27          1           0        6.359037    2.260237   -0.489071
     28          1           0        5.484481    1.917020    1.813707
     29          1           0        3.553407    0.366637    2.197569
     30          1           0        3.384598   -0.483263   -2.006053
     31          1           0        5.315123    1.064347   -2.403626
     32          7           0        2.250118   -1.036171    0.342412
     33          8           0        1.771121   -1.602064   -0.637876
     34          8           0        1.856943   -1.169985    1.499193
 ---------------------------------------------------------------------

 SCF Done:  E(RHF) =  -669.536382728     A.U. after   15 cycles
 E2 =    -0.2090978159D+01 EUMP2 =    -0.67162736088722D+03

 The electronic state is 1-A.
 Alpha  occ. eigenvalues --  -20.60992 -20.60978 -15.86009 -11.31319 -11.27878
 Alpha  occ. eigenvalues --  -11.27874 -11.27613 -11.26881 -11.26871 -11.21032
 Alpha  occ. eigenvalues --  -11.20674 -11.20624 -11.20443 -11.20366 -11.19252
 Alpha  occ. eigenvalues --   -1.60036  -1.39594  -1.19483  -1.08890  -1.07571
 Alpha  occ. eigenvalues --   -1.04877  -1.02562  -0.95735  -0.94978  -0.86278
 Alpha  occ. eigenvalues --   -0.85991  -0.82568  -0.78672  -0.77623  -0.77348
 Alpha  occ. eigenvalues --   -0.72228  -0.71349  -0.70591  -0.65139  -0.64880
 Alpha  occ. eigenvalues --   -0.64216  -0.62224  -0.59973  -0.58416  -0.56570
 Alpha  occ. eigenvalues --   -0.55381  -0.54288  -0.53210  -0.52969  -0.51634
 Alpha  occ. eigenvalues --   -0.51418  -0.49022  -0.48974  -0.48876  -0.46946
 Alpha  occ. eigenvalues --   -0.45744  -0.45013  -0.44876  -0.44803  -0.42761
 Alpha  occ. eigenvalues --   -0.37461  -0.36477
 Alpha virt. eigenvalues --    0.04891   0.11179   0.16387   0.21315   0.23649
 Alpha virt. eigenvalues --    0.25376   0.27234   0.27443   0.28181   0.28295
 Alpha virt. eigenvalues --    0.29125   0.30883   0.32311   0.32399   0.32528

 Mulliken charges:
               1
     1  C   -0.297236
     2  C   -0.298944
     3  C   -0.475139
     4  H    0.147816
     5  H    0.147541
     6  H    0.151430
     7  H    0.151204
     8  H    0.154117
     9  H    0.153995
    10  H    0.158543
    11  C   -0.297172
    12  C   -0.298561
    13  C   -0.485311
    14  H    0.149068
    15  H    0.147615
    16  H    0.149301
    17  H    0.146814
    18  H    0.145913
    19  H    0.156531
    20  H    0.186980
    21  C   -0.170523
    22  C   -0.218589
    23  C   -0.170697
    24  C    0.158135
    25  C   -0.170680
    26  C   -0.218547
    27  H    0.226088
    28  H    0.223896
    29  H    0.275876
    30  H    0.275865
    31  H    0.223932
    32  N    0.489102
    33  O   -0.460019
    34  O   -0.458342
 Sum of Mulliken charges =  -0.00000

 Dipole moment (field-independent basis, Debye):
    X=              4.4144    Y=              3.1764    Z=             -0.7823  Tot=              5.4944
 Quadrupole moment (field-independent basis, Debye-Ang):
   XX=            -69.6921   YY=            -96.8020   ZZ=            -89.4594
   XY=             11.6283   XZ=             -2.0339   YZ=              2.0887

 Normal termination of Gaussian 16 at Wed May  5 17:16:12 2021.
