 Gaussian 16, Revision A.03,
 Gaussian 16:  EM64L-G16RevA.03 25-Dec-2016

 -------------
 #p 6-31g* mp2
 -------------

 ------------------------------------------------------
 Input file generated by CHIRIPA (05-May-2021 14:53:14)
 ------------------------------------------------------
 Symbolic Z-matrix:
 Charge =  0 Multiplicity = 1

                         Standard orientation:
 ---------------------------------------------------------------------
 Center     Atomic      Atomic             Coordinates (Angstroms)
 Number     Number       Type             X           Y           Z
 ---------------------------------------------------------------------
      1          6           0       -3.713133   -0.237627    0.201341
      2          6           0       -4.157458   -1.482064   -0.568034
      3          6           0       -5.067874   -2.392911    0.256160
      4          1           0       -3.191985   -0.547396    1.117525
      5          1           0       -4.601829    0.323558    0.521788
      6          1           0       -3.268157   -2.040007   -0.888127
      7          1           0       -4.677441   -1.169298   -1.482589
      8          1           0       -5.972078   -1.857641    0.563572
      9          1           0       -4.554788   -2.733298    1.161411
     10          1           0       -5.373578   -3.276320   -0.313044
     11          6           0       -2.802482    0.682809   -0.609362
     12          6           0       -2.358157    1.927246    0.160012
     13          6           0       -1.447741    2.838093   -0.664181
     14          1           0       -1.913786    0.121624   -0.929809
     15          1           0       -3.323630    0.992578   -1.525547
     16          1           0       -1.838174    1.614479    1.074567
     17          1           0       -3.247458    2.485189    0.480105
     18          1           0       -1.960827    3.178480   -1.569433
     19          1           0       -0.543537    2.302823   -0.971593
     20          1           0       -1.142037    3.721502   -0.094977
     21          6           0        3.428442   -2.481044   -0.353279
     22          6           0        3.897925   -1.376244   -1.071280
     23          6           0        3.415593   -0.093285   -0.795745
     24          6           0        2.459770    0.049147    0.208946
     25          6           0        1.972354   -1.031910    0.941769
     26          6           0        2.468846   -2.305660    0.649187
     27          1           0        3.808629   -3.474100   -0.573944
     28          1           0        4.643137   -1.509461   -1.850355
     29          1           0        3.761705    0.779380   -1.336190
     30          1           0        1.229250   -0.867627    1.712631
     31          1           0        2.102422   -3.161842    1.208410
     32          7           0        1.941651    1.402484    0.509666
     33          8           0        1.099772    1.501384    1.399663
     34          8           0        2.387240    2.338703   -0.150320
 ---------------------------------------------------------------------

 SCF Done:  E(RHF) =  -669.535837913     A.U. after   15 cycles
 E2 =    -0.2092470477D+01 EUMP2 =    -0.67162830838992D+03

 The electronic state is 1-A.
 Alpha  occ. eigenvalues --  -20.60990 -20.60984 -15.85994 -11.31329 -11.27894
 Alpha  occ. eigenvalues --  -11.27884 -11.27623 -11.26894 -11.26883 -11.21345
 Alpha  occ. eigenvalues --  -11.20931 -11.20920 -11.20682 -11.20377 -11.19659
 Alpha  occ. eigenvalues --   -1.60040  -1.39595  -1.19495  -1.08899  -1.07809
 Alpha  occ. eigenvalues --   -1.04890  -1.02791  -0.95745  -0.95248  -0.86291
 Alpha  occ. eigenvalues --   -0.86276  -0.82576  -0.78925  -0.77648  -0.77530
 Alpha  occ. eigenvalues --   -0.72226  -0.71390  -0.70601  -0.65152  -0.64891
 Alpha  occ. eigenvalues --   -0.64444  -0.62237  -0.60173  -0.58700  -0.56830
 Alpha  occ. eigenvalues --   -0.55395  -0.54562  -0.53213  -0.52980  -0.51916
 Alpha  occ. eigenvalues --   -0.51686  -0.49344  -0.48989  -0.48852  -0.47213
 Alpha  occ. eigenvalues --   -0.46000  -0.45187  -0.45092  -0.44750  -0.43054
 Alpha  occ. eigenvalues --   -0.37471  -0.36490
 Alpha virt. eigenvalues --    0.04854   0.11157   0.16319   0.21233   0.23331
 Alpha virt. eigenvalues --    0.25024   0.26903   0.27318   0.27911   0.28496
 Alpha virt. eigenvalues --    0.28691   0.30840   0.32039   0.32129   0.32714

 Mulliken charges:
               1
     1  C   -0.297081
     2  C   -0.298670
     3  C   -0.474995
     4  H    0.147066
     5  H    0.149649
     6  H    0.148274
     7  H    0.151940
     8  H    0.155893
     9  H    0.152867
    10  H    0.158258
    11  C   -0.296853
    12  C   -0.304867
    13  C   -0.466899
    14  H    0.143496
    15  H    0.147109
    16  H    0.166515
    17  H    0.146102
    18  H    0.144710
    19  H    0.153622
    20  H    0.168494
    21  C   -0.170495
    22  C   -0.218513
    23  C   -0.170787
    24  C    0.158003
    25  C   -0.170993
    26  C   -0.218512
    27  H    0.226222
    28  H    0.224062
    29  H    0.276142
    30  H    0.275416
    31  H    0.224004
    32  N    0.487307
    33  O   -0.458970
    34  O   -0.457518
 Sum of Mulliken charges =  -0.00000

 Dipole moment (field-independent basis, Debye):
    X=              2.0950    Y=             -4.6640    Z=             -0.9517  Tot=              5.2007
 Quadrupole moment (field-independent basis, Debye-Ang):
   XX=            -84.8377   YY=            -95.1982   ZZ=            -93.3434
   XY=            -11.5764   XZ=             -4.4236   YZ=             -2.1986

 Normal termination of Gaussian 16 at Thu May  6 02:38:04 2021.
