 Gaussian 16, Revision A.03,
 Gaussian 16:  EM64L-G16RevA.03 25-Dec-2016

 -------------
 #p 6-31g* mp2
 -------------

 ------------------------------------------------------
 Input file generated by CHIRIPA (05-May-2021 14:51:09)
 ------------------------------------------------------
 Symbolic Z-matrix:
 Charge =  0 Multiplicity = 1

                         Standard orientation:
 ---------------------------------------------------------------------
 Center     Atomic      Atomic             Coordinates (Angstroms)
 Number     Number       Type             X           Y           Z
 ---------------------------------------------------------------------
      1          6           0       -3.986706    0.531879    0.130744
      2          6           0       -3.407433    1.543883   -0.858333
      3          6           0       -2.269968    2.371534   -0.259199
      4          1           0       -4.348365    1.064503    1.020946
      5          1           0       -3.184820   -0.137696    0.471396
      6          1           0       -4.210454    2.210478   -1.198074
      7          1           0       -3.047285    1.008807   -1.746366
      8          1           0       -1.449594    1.722260    0.063341
      9          1           0       -2.619372    2.930759    0.614749
     10          1           0       -1.870596    3.088499   -0.983300
     11          6           0       -5.124747   -0.303096   -0.453557
     12          6           0       -5.704020   -1.315101    0.535520
     13          6           0       -6.841485   -2.142751   -0.063614
     14          1           0       -5.926633    0.366478   -0.794210
     15          1           0       -4.763088   -0.835720   -1.343759
     16          1           0       -6.064168   -0.780025    1.423553
     17          1           0       -4.900999   -1.981696    0.875261
     18          1           0       -6.492081   -2.701977   -0.937562
     19          1           0       -7.661859   -1.493478   -0.386154
     20          1           0       -7.240857   -2.859717    0.660487
     21          6           0        5.075656   -0.265815   -0.377274
     22          6           0        6.395627   -0.794038    0.185434
     23          6           0        7.425663   -1.092334   -0.904446
     24          1           0        4.663901   -1.001774   -1.081380
     25          1           0        5.271435    0.646469   -0.957622
     26          1           0        6.197233   -1.704283    0.765700
     27          1           0        6.804192   -0.056820    0.888428
     28          1           0        7.652664   -0.187791   -1.477922
     29          1           0        7.042257   -1.844616   -1.601348
     30          1           0        8.361632   -1.468778   -0.480052
     31          6           0        4.035797    0.037032    0.700087
     32          6           0        2.715826    0.565255    0.137379
     33          6           0        1.685790    0.863551    1.227260
     34          1           0        3.840017   -0.875251    1.280434
     35          1           0        4.447552    0.772992    1.404192
     36          1           0        2.307261   -0.171962   -0.565616
     37          1           0        2.914221    1.475502   -0.442887
     38          1           0        2.069196    1.615834    1.924161
     39          1           0        1.458789   -0.040991    1.800736
     40          1           0        0.749821    1.239996    0.802866
 ---------------------------------------------------------------------

 SCF Done:  E(RHF) =  -470.733330434     A.U. after   11 cycles
 E2 =    -0.1582194544D+01 EUMP2 =    -0.47231552497809D+03

 The electronic state is 1-A.
 Alpha  occ. eigenvalues --  -11.21605 -11.21600 -11.21598 -11.21596 -11.21401
 Alpha  occ. eigenvalues --  -11.21401 -11.21342 -11.21342 -11.21074 -11.21070
 Alpha  occ. eigenvalues --  -11.21069 -11.21046  -1.08431  -1.08424  -1.03541
 Alpha  occ. eigenvalues --   -1.03515  -0.96008  -0.95950  -0.87042  -0.86951
 Alpha  occ. eigenvalues --   -0.79625  -0.79556  -0.78242  -0.78235  -0.65062
 Alpha  occ. eigenvalues --   -0.65054  -0.60954  -0.60918  -0.59382  -0.59328
 Alpha  occ. eigenvalues --   -0.57684  -0.57508  -0.55281  -0.55256  -0.52795
 Alpha  occ. eigenvalues --   -0.52659  -0.52450  -0.52261  -0.49918  -0.49902
 Alpha  occ. eigenvalues --   -0.47990  -0.47820  -0.46625  -0.46613  -0.45789
 Alpha  occ. eigenvalues --   -0.45774  -0.45706  -0.45704  -0.43788  -0.43748
 Alpha virt. eigenvalues --    0.22088   0.22999   0.23470   0.24773   0.26217
 Alpha virt. eigenvalues --    0.26660   0.26962   0.27519   0.27684   0.28707
 Alpha virt. eigenvalues --    0.30098   0.31420   0.31723   0.31936   0.31959

 Mulliken charges:
               1
     1  C   -0.298469
     2  C   -0.299169
     3  C   -0.483287
     4  H    0.149775
     5  H    0.149779
     6  H    0.151993
     7  H    0.151894
     8  H    0.161654
     9  H    0.155720
    10  H    0.160368
    11  C   -0.298318
    12  C   -0.299661
    13  C   -0.475706
    14  H    0.149526
    15  H    0.149597
    16  H    0.151993
    17  H    0.151950
    18  H    0.155143
    19  H    0.155184
    20  H    0.160250
    21  C   -0.298216
    22  C   -0.299639
    23  C   -0.475699
    24  H    0.149541
    25  H    0.149566
    26  H    0.151895
    27  H    0.151976
    28  H    0.155198
    29  H    0.155138
    30  H    0.160248
    31  C   -0.298527
    32  C   -0.298720
    33  C   -0.484341
    34  H    0.149422
    35  H    0.149748
    36  H    0.151451
    37  H    0.152158
    38  H    0.155672
    39  H    0.154785
    40  H    0.168127
 Sum of Mulliken charges =  -0.00000

 Dipole moment (field-independent basis, Debye):
    X=             -0.0076    Y=              0.0098    Z=              0.0027  Tot=              0.0127
 Quadrupole moment (field-independent basis, Debye-Ang):
   XX=            -85.6410   YY=            -83.8769   ZZ=            -85.2381
   XY=             -0.4655   XZ=              0.1172   YZ=             -0.0575

 Normal termination of Gaussian 16 at Wed May  5 19:44:16 2021.
