 Gaussian 16, Revision A.03,
 Gaussian 16:  EM64L-G16RevA.03 25-Dec-2016

 -------------
 #p 6-31g* mp2
 -------------

 ------------------------------------------------------
 Input file generated by CHIRIPA (05-May-2021 14:57:25)
 ------------------------------------------------------
 Symbolic Z-matrix:
 Charge =  0 Multiplicity = 1

                         Standard orientation:
 ---------------------------------------------------------------------
 Center     Atomic      Atomic             Coordinates (Angstroms)
 Number     Number       Type             X           Y           Z
 ---------------------------------------------------------------------
      1          6           0        5.822659    1.971194    0.500312
      2          6           0        4.437289    2.135444    0.398853
      3          6           0        3.612717    1.045411    0.104817
      4          6           0        4.209789   -0.200256   -0.082563
      5          6           0        5.586773   -0.395904    0.011910
      6          6           0        6.391976    0.708271    0.306858
      7          1           0        6.455683    2.823451    0.729081
      8          1           0        3.992390    3.115080    0.548596
      9          1           0        2.537305    1.144329    0.020436
     10          1           0        6.001183   -1.384748   -0.142588
     11          1           0        7.467567    0.577753    0.385041
     12          7           0        3.347104   -1.361711   -0.394328
     13          8           0        3.897682   -2.448765   -0.554997
     14          8           0        2.136689   -1.163013   -0.472118
     15          6           0       -1.984623   -0.857984    0.132253
     16          6           0       -2.332380    0.120509   -0.804836
     17          6           0       -3.641030    0.608113   -0.869847
     18          6           0       -4.580836    0.092635    0.021408
     19          6           0       -4.265227   -0.882521    0.966263
     20          6           0       -2.950452   -1.355500    1.013259
     21          1           0       -0.965653   -1.231086    0.175758
     22          1           0       -1.584383    0.508716   -1.490284
     23          1           0       -3.937492    1.365401   -1.585419
     24          1           0       -5.032772   -1.250217    1.636408
     25          1           0       -2.683234   -2.115434    1.742052
     26          7           0       -5.969486    0.601097   -0.037880
     27          8           0       -6.778965    0.130676    0.758415
     28          8           0       -6.222138    1.460424   -0.879522
 ---------------------------------------------------------------------

 SCF Done:  E(RHF) =  -868.340079394     A.U. after   16 cycles
 E2 =    -0.2598104236D+01 EUMP2 =    -0.87093818362973D+03

 The electronic state is 1-A.
 Alpha  occ. eigenvalues --  -20.61846 -20.61775 -20.60292 -20.60286 -15.86857
 Alpha  occ. eigenvalues --  -15.85342 -11.31963 -11.30547 -11.28528 -11.28474
 Alpha  occ. eigenvalues --  -11.28172 -11.27455 -11.27430 -11.27129 -11.27121
 Alpha  occ. eigenvalues --  -11.26610 -11.26025 -11.26013  -1.60871  -1.59372
 Alpha  occ. eigenvalues --   -1.40438  -1.38931  -1.20106  -1.18696  -1.09542
 Alpha  occ. eigenvalues --   -1.08076  -1.05471  -1.04090  -0.96424  -0.94941
 Alpha  occ. eigenvalues --   -0.86880  -0.85468  -0.83273  -0.81796  -0.78351
 Alpha  occ. eigenvalues --   -0.76905  -0.73098  -0.72175  -0.71561  -0.71209
 Alpha  occ. eigenvalues --   -0.70696  -0.69669  -0.65763  -0.65467  -0.64326
 Alpha  occ. eigenvalues --   -0.64071  -0.62826  -0.61452  -0.55968  -0.54409
 Alpha  occ. eigenvalues --   -0.53810  -0.53558  -0.52419  -0.52163  -0.49853
 Alpha  occ. eigenvalues --   -0.49796  -0.48327  -0.48303  -0.45898  -0.44373
 Alpha  occ. eigenvalues --   -0.38061  -0.37063  -0.36609  -0.35722
 Alpha virt. eigenvalues --    0.04167   0.05645   0.10596   0.11949   0.15713
 Alpha virt. eigenvalues --    0.17195   0.20664   0.22240   0.26626   0.27326
 Alpha virt. eigenvalues --    0.28089   0.29183   0.30525   0.31702   0.32107

 Mulliken charges:
               1
     1  C   -0.169845
     2  C   -0.218217
     3  C   -0.170390
     4  C    0.158011
     5  C   -0.170296
     6  C   -0.218347
     7  H    0.228403
     8  H    0.225604
     9  H    0.271310
    10  H    0.276923
    11  H    0.225985
    12  N    0.493279
    13  O   -0.454833
    14  O   -0.475568
    15  C   -0.178854
    16  C   -0.221843
    17  C   -0.172089
    18  C    0.157069
    19  C   -0.171552
    20  C   -0.220507
    21  H    0.249517
    22  H    0.223606
    23  H    0.272552
    24  H    0.273315
    25  H    0.223439
    26  N    0.488285
    27  O   -0.462198
    28  O   -0.462757
 Sum of Mulliken charges =  -0.00000

 Dipole moment (field-independent basis, Debye):
    X=              8.5116    Y=              2.2540    Z=              1.3352  Tot=              8.9056
 Quadrupole moment (field-independent basis, Debye-Ang):
   XX=           -121.0446   YY=           -103.7793   ZZ=           -103.4958
   XY=             24.0593   XZ=              2.3966   YZ=             -2.9959

 Normal termination of Gaussian 16 at Wed May  5 22:45:19 2021.
