 Gaussian 16, Revision A.03,
 Gaussian 16:  EM64L-G16RevA.03 25-Dec-2016

 -------------
 #p 6-31g* mp2
 -------------

 ------------------------------------------------------
 Input file generated by CHIRIPA (05-May-2021 14:57:21)
 ------------------------------------------------------
 Symbolic Z-matrix:
 Charge =  0 Multiplicity = 1

                         Standard orientation:
 ---------------------------------------------------------------------
 Center     Atomic      Atomic             Coordinates (Angstroms)
 Number     Number       Type             X           Y           Z
 ---------------------------------------------------------------------
      1          6           0       -1.799937    1.012835    1.360958
      2          6           0       -2.371672    1.682450    0.274102
      3          6           0       -3.466817    1.135031   -0.400834
      4          6           0       -3.967047   -0.089248    0.039848
      5          6           0       -3.419358   -0.780608    1.119361
      6          6           0       -2.324679   -0.214392    1.779381
      7          1           0       -0.949383    1.445384    1.879471
      8          1           0       -1.966239    2.635675   -0.053052
      9          1           0       -3.928799    1.632065   -1.245197
     10          1           0       -3.845524   -1.729309    1.422293
     11          1           0       -1.882692   -0.736662    2.623139
     12          7           0       -5.126181   -0.678725   -0.666781
     13          8           0       -5.548304   -1.758601   -0.258960
     14          8           0       -5.590640   -0.049720   -1.615079
     15          6           0        2.476932    2.154916   -0.179295
     16          6           0        3.872992    2.175953   -0.263510
     17          6           0        4.603054    0.983721   -0.251671
     18          6           0        3.901598   -0.216999   -0.154087
     19          6           0        2.511235   -0.270763   -0.068692
     20          6           0        1.801699    0.933778   -0.082325
     21          1           0        1.917775    3.085852   -0.189189
     22          1           0        4.400042    3.122832   -0.338908
     23          1           0        5.684339    0.971060   -0.315554
     24          1           0        2.013822   -1.230185    0.005522
     25          1           0        0.717552    0.914405   -0.016785
     26          7           0        4.663617   -1.485677   -0.140604
     27          8           0        4.022015   -2.530404   -0.053832
     28          8           0        5.888060   -1.411318   -0.217063
 ---------------------------------------------------------------------

 SCF Done:  E(RHF) =  -868.336768307     A.U. after   16 cycles
 E2 =    -0.2600901281D+01 EUMP2 =    -0.87093766958805D+03

 The electronic state is 1-A.
 Alpha  occ. eigenvalues --  -20.61369 -20.61360 -20.61193 -20.61187 -15.86427
 Alpha  occ. eigenvalues --  -15.86248 -11.32015 -11.31720 -11.28616 -11.28557
 Alpha  occ. eigenvalues --  -11.28433 -11.28300 -11.28284 -11.28121 -11.27762
 Alpha  occ. eigenvalues --  -11.27636 -11.27337 -11.27302  -1.60437  -1.60266
 Alpha  occ. eigenvalues --   -1.39984  -1.39816  -1.20224  -1.19907  -1.09608
 Alpha  occ. eigenvalues --   -1.09296  -1.05639  -1.05319  -0.96390  -0.96111
 Alpha  occ. eigenvalues --   -0.87045  -0.86724  -0.83205  -0.82926  -0.78190
 Alpha  occ. eigenvalues --   -0.77956  -0.72642  -0.72466  -0.71762  -0.71591
 Alpha  occ. eigenvalues --   -0.71372  -0.71047  -0.65886  -0.65680  -0.65559
 Alpha  occ. eigenvalues --   -0.65293  -0.62961  -0.62664  -0.56213  -0.55853
 Alpha  occ. eigenvalues --   -0.54084  -0.53725  -0.53650  -0.53273  -0.49419
 Alpha  occ. eigenvalues --   -0.49382  -0.49232  -0.49214  -0.45339  -0.45197
 Alpha  occ. eigenvalues --   -0.38250  -0.37919  -0.37240  -0.36916
 Alpha virt. eigenvalues --    0.04280   0.04580   0.10296   0.10662   0.15611
 Alpha virt. eigenvalues --    0.16062   0.19569   0.21744   0.25855   0.26808
 Alpha virt. eigenvalues --    0.27587   0.28732   0.30033   0.30927   0.31624

 Mulliken charges:
               1
     1  C   -0.181461
     2  C   -0.221418
     3  C   -0.169187
     4  C    0.159867
     5  C   -0.169690
     6  C   -0.219840
     7  H    0.227432
     8  H    0.221191
     9  H    0.278343
    10  H    0.279742
    11  H    0.228443
    12  N    0.487927
    13  O   -0.457089
    14  O   -0.458363
    15  C   -0.173749
    16  C   -0.217760
    17  C   -0.170614
    18  C    0.159538
    19  C   -0.173462
    20  C   -0.228856
    21  H    0.221123
    22  H    0.224730
    23  H    0.277329
    24  H    0.277117
    25  H    0.229006
    26  N    0.487949
    27  O   -0.459339
    28  O   -0.458913
 Sum of Mulliken charges =  -0.00000

 Dipole moment (field-independent basis, Debye):
    X=              1.2064    Y=              6.3701    Z=              2.4420  Tot=              6.9280
 Quadrupole moment (field-independent basis, Debye-Ang):
   XX=           -153.6595   YY=           -103.5357   ZZ=           -103.8105
   XY=             12.1102   XZ=             -9.9472   YZ=             -4.0131

 Normal termination of Gaussian 16 at Thu May  6 11:12:09 2021.
