 Gaussian 16, Revision A.03,
 Gaussian 16:  EM64L-G16RevA.03 25-Dec-2016

 -------------
 #p 6-31g* mp2
 -------------

 ------------------------------------------------------
 Input file generated by CHIRIPA (05-May-2021 14:55:21)
 ------------------------------------------------------
 Symbolic Z-matrix:
 Charge =  0 Multiplicity = 1

                         Standard orientation:
 ---------------------------------------------------------------------
 Center     Atomic      Atomic             Coordinates (Angstroms)
 Number     Number       Type             X           Y           Z
 ---------------------------------------------------------------------
      1          6           0        3.343396    2.504142    0.504787
      2          6           0        4.041157    1.982732   -0.589645
      3          6           0        3.885088    0.643260   -0.958436
      4          6           0        3.019202   -0.149957   -0.207213
      5          6           0        2.310082    0.340231    0.888303
      6          6           0        2.481605    1.682676    1.238973
      7          1           0        3.470637    3.545831    0.784234
      8          1           0        4.711108    2.618360   -1.161650
      9          1           0        4.412986    0.213744   -1.801204
     10          1           0        1.649320   -0.317982    1.439272
     11          1           0        1.938427    2.084900    2.089396
     12          7           0        2.845799   -1.569570   -0.588044
     13          8           0        2.076977   -2.247637    0.090023
     14          8           0        3.481991   -1.977314   -1.557395
     15          6           0       -4.660851   -0.060147    0.121207
     16          6           0       -5.118093    0.784450   -1.068570
     17          6           0       -6.640425    0.869815   -1.182648
     18          1           0       -5.080240   -1.071243    0.027706
     19          1           0       -5.075402    0.365968    1.045311
     20          1           0       -4.701668    0.357673   -1.990019
     21          1           0       -4.697411    1.793598   -0.972324
     22          1           0       -7.069976    1.315989   -0.279866
     23          1           0       -7.074257   -0.128095   -1.303343
     24          1           0       -6.945295    1.478230   -2.039820
     25          6           0       -3.141469   -0.154923    0.248578
     26          6           0       -2.684227   -0.999521    1.438355
     27          6           0       -1.161895   -1.084885    1.552432
     28          1           0       -2.726918   -0.581039   -0.675527
     29          1           0       -2.722081    0.856173    0.342080
     30          1           0       -3.104910   -2.008669    1.342109
     31          1           0       -3.100652   -0.572744    2.359804
     32          1           0       -0.728062   -0.086976    1.673128
     33          1           0       -0.732344   -1.531059    0.649650
     34          1           0       -0.857025   -1.693300    2.409606
 ---------------------------------------------------------------------

 SCF Done:  E(RHF) =  -669.535348329     A.U. after   15 cycles
 E2 =    -0.2091995282D+01 EUMP2 =    -0.67162734361149D+03

 The electronic state is 1-A.
 Alpha  occ. eigenvalues --  -20.60798 -20.60790 -15.85831 -11.31129 -11.27729
 Alpha  occ. eigenvalues --  -11.27634 -11.27472 -11.26729 -11.26709 -11.21563
 Alpha  occ. eigenvalues --  -11.21504 -11.21341 -11.21281 -11.21038 -11.20936
 Alpha  occ. eigenvalues --   -1.59863  -1.39418  -1.19317  -1.08728  -1.08365
 Alpha  occ. eigenvalues --   -1.04715  -1.03465  -0.95939  -0.95556  -0.86966
 Alpha  occ. eigenvalues --   -0.86104  -0.82404  -0.79562  -0.78192  -0.77426
 Alpha  occ. eigenvalues --   -0.72054  -0.71179  -0.70436  -0.65021  -0.64949
 Alpha  occ. eigenvalues --   -0.64725  -0.62089  -0.60849  -0.59282  -0.57526
 Alpha  occ. eigenvalues --   -0.55302  -0.55142  -0.53066  -0.52944  -0.52561
 Alpha  occ. eigenvalues --   -0.52220  -0.49879  -0.48811  -0.48793  -0.47833
 Alpha  occ. eigenvalues --   -0.46555  -0.45728  -0.45642  -0.44784  -0.43718
 Alpha  occ. eigenvalues --   -0.37307  -0.36302
 Alpha virt. eigenvalues --    0.05037   0.11323   0.16490   0.21159   0.22940
 Alpha virt. eigenvalues --    0.24362   0.26086   0.26843   0.27616   0.27890
 Alpha virt. eigenvalues --    0.29282   0.30045   0.31667   0.31821   0.32193

 Mulliken charges:
               1
     1  C   -0.170147
     2  C   -0.219152
     3  C   -0.170342
     4  C    0.154863
     5  C   -0.173955
     6  C   -0.222643
     7  H    0.225348
     8  H    0.223164
     9  H    0.275280
    10  H    0.290606
    11  H    0.223299
    12  N    0.488045
    13  O   -0.461150
    14  O   -0.460049
    15  C   -0.298285
    16  C   -0.299548
    17  C   -0.475669
    18  H    0.151073
    19  H    0.148335
    20  H    0.153127
    21  H    0.150281
    22  H    0.154512
    23  H    0.155961
    24  H    0.159946
    25  C   -0.298465
    26  C   -0.300338
    27  C   -0.485559
    28  H    0.152832
    29  H    0.145963
    30  H    0.155537
    31  H    0.148923
    32  H    0.138567
    33  H    0.177430
    34  H    0.162213
 Sum of Mulliken charges =  -0.00000

 Dipole moment (field-independent basis, Debye):
    X=              0.6194    Y=              4.8625    Z=              1.2726  Tot=              5.0643
 Quadrupole moment (field-independent basis, Debye-Ang):
   XX=            -90.8057   YY=            -95.9750   ZZ=            -92.7272
   XY=             16.0589   XZ=              1.0275   YZ=             -1.2718

 Normal termination of Gaussian 16 at Thu May  6 14:10:03 2021.
