 Gaussian 16, Revision A.03,
 Gaussian 16:  EM64L-G16RevA.03 25-Dec-2016

 -------------
 #p 6-31g* mp2
 -------------

 ------------------------------------------------------
 Input file generated by CHIRIPA (05-May-2021 14:51:12)
 ------------------------------------------------------
 Symbolic Z-matrix:
 Charge =  0 Multiplicity = 1

                         Standard orientation:
 ---------------------------------------------------------------------
 Center     Atomic      Atomic             Coordinates (Angstroms)
 Number     Number       Type             X           Y           Z
 ---------------------------------------------------------------------
      1          6           0       -2.889531   -0.502952    0.916832
      2          6           0       -1.801184   -1.576651    0.891193
      3          6           0       -1.821762   -2.469009    2.132591
      4          1           0       -2.764860    0.115078    1.816521
      5          1           0       -3.871514   -0.988147    1.004527
      6          1           0       -0.821639   -1.089635    0.802178
      7          1           0       -1.928345   -2.192077   -0.008639
      8          1           0       -2.785141   -2.981203    2.222921
      9          1           0       -1.672148   -1.872497    3.038345
     10          1           0       -1.035591   -3.229445    2.093466
     11          6           0       -2.881793    0.397099   -0.317501
     12          6           0       -3.970140    1.470798   -0.291862
     13          6           0       -3.949562    2.363155   -1.533260
     14          1           0       -1.899810    0.882294   -0.405196
     15          1           0       -3.006464   -0.220931   -1.217190
     16          1           0       -3.842979    2.086224    0.607970
     17          1           0       -4.949685    0.983782   -0.202847
     18          1           0       -4.099176    1.766643   -2.439013
     19          1           0       -2.986183    2.875349   -1.623589
     20          1           0       -4.735733    3.123592   -1.494135
     21          6           0        2.775289    0.769546   -0.059445
     22          6           0        3.926071    1.307896    0.791359
     23          6           0        3.690583    2.742660    1.264428
     24          1           0        2.632903    1.425260   -0.929336
     25          1           0        1.844734    0.816497    0.523013
     26          1           0        4.854420    1.258657    0.207955
     27          1           0        4.065859    0.650719    1.659226
     28          1           0        2.779710    2.804467    1.868656
     29          1           0        3.572751    3.415860    0.409140
     30          1           0        4.525404    3.107546    1.870887
     31          6           0        2.996034   -0.663693   -0.539887
     32          6           0        1.845253   -1.202043   -1.390690
     33          6           0        2.080741   -2.636806   -1.863760
     34          1           0        3.926590   -0.710643   -1.122345
     35          1           0        3.138421   -1.319405    0.330005
     36          1           0        1.705464   -0.544865   -2.258556
     37          1           0        0.916903   -1.152803   -0.807287
     38          1           0        2.198573   -3.310006   -1.008471
     39          1           0        2.991614   -2.698614   -2.467987
     40          1           0        1.245920   -3.001693   -2.470218
 ---------------------------------------------------------------------

 SCF Done:  E(RHF) =  -470.733288316     A.U. after   11 cycles
 E2 =    -0.1583069178D+01 EUMP2 =    -0.47231635749472D+03

 The electronic state is 1-A.
 Alpha  occ. eigenvalues --  -11.21658 -11.21620 -11.21612 -11.21513 -11.21434
 Alpha  occ. eigenvalues --  -11.21418 -11.21370 -11.21344 -11.21126 -11.21094
 Alpha  occ. eigenvalues --  -11.21072 -11.21034  -1.08470  -1.08419  -1.03573
 Alpha  occ. eigenvalues --   -1.03507  -0.96008  -0.95971  -0.87028  -0.86985
 Alpha  occ. eigenvalues --   -0.79695  -0.79529  -0.78350  -0.78163  -0.65172
 Alpha  occ. eigenvalues --   -0.64990  -0.61033  -0.60857  -0.59409  -0.59304
 Alpha  occ. eigenvalues --   -0.57629  -0.57569  -0.55294  -0.55260  -0.52710
 Alpha  occ. eigenvalues --   -0.52659  -0.52436  -0.52393  -0.49982  -0.49896
 Alpha  occ. eigenvalues --   -0.48114  -0.47810  -0.46833  -0.46514  -0.46059
 Alpha  occ. eigenvalues --   -0.45771  -0.45752  -0.45267  -0.43814  -0.43772
 Alpha virt. eigenvalues --    0.20688   0.23282   0.23847   0.24744   0.24916
 Alpha virt. eigenvalues --    0.26761   0.26998   0.27851   0.28120   0.29535
 Alpha virt. eigenvalues --    0.30833   0.31467   0.31702   0.31832   0.32131

 Mulliken charges:
               1
     1  C   -0.297717
     2  C   -0.306312
     3  C   -0.475290
     4  H    0.149429
     5  H    0.149760
     6  H    0.157301
     7  H    0.152619
     8  H    0.155606
     9  H    0.155032
    10  H    0.160244
    11  C   -0.299036
    12  C   -0.299635
    13  C   -0.475748
    14  H    0.150297
    15  H    0.149799
    16  H    0.151923
    17  H    0.151943
    18  H    0.155191
    19  H    0.155462
    20  H    0.160250
    21  C   -0.298988
    22  C   -0.299622
    23  C   -0.475695
    24  H    0.149844
    25  H    0.148470
    26  H    0.152225
    27  H    0.152038
    28  H    0.154857
    29  H    0.155205
    30  H    0.160392
    31  C   -0.297772
    32  C   -0.308698
    33  C   -0.474988
    34  H    0.149516
    35  H    0.149310
    36  H    0.151580
    37  H    0.161572
    38  H    0.154714
    39  H    0.154891
    40  H    0.160028
 Sum of Mulliken charges =  -0.00000

 Dipole moment (field-independent basis, Debye):
    X=             -0.0291    Y=             -0.0024    Z=              0.0027  Tot=              0.0293
 Quadrupole moment (field-independent basis, Debye-Ang):
   XX=            -84.1727   YY=            -85.8504   ZZ=            -84.7406
   XY=              0.7416   XZ=             -0.1422   YZ=              0.1518

 Normal termination of Gaussian 16 at Wed May  5 19:54:48 2021.
