 Gaussian 16, Revision A.03,
 Gaussian 16:  EM64L-G16RevA.03 25-Dec-2016

 -------------
 #p 6-31g* mp2
 -------------

 ------------------------------------------------------
 Input file generated by CHIRIPA (05-May-2021 14:53:15)
 ------------------------------------------------------
 Symbolic Z-matrix:
 Charge =  0 Multiplicity = 1

                         Standard orientation:
 ---------------------------------------------------------------------
 Center     Atomic      Atomic             Coordinates (Angstroms)
 Number     Number       Type             X           Y           Z
 ---------------------------------------------------------------------
      1          6           0       -2.776719    0.748144    0.044425
      2          6           0       -2.458485    2.242021    0.115444
      3          6           0       -0.962915    2.534427   -0.009313
      4          1           0       -2.231631    0.225288    0.842201
      5          1           0       -2.401461    0.345219   -0.906483
      6          1           0       -2.835458    2.642298    1.065331
      7          1           0       -3.004544    2.761408   -0.682474
      8          1           0       -0.575847    2.162046   -0.963311
      9          1           0       -0.405800    2.042259    0.794425
     10          1           0       -0.757970    3.608210    0.044036
     11          6           0       -4.267859    0.439861    0.167672
     12          6           0       -4.586093   -1.054016    0.096654
     13          6           0       -6.081663   -1.346422    0.221411
     14          1           0       -4.643118    0.842786    1.118581
     15          1           0       -4.812947    0.962717   -0.630103
     16          1           0       -4.040034   -1.573403    0.894572
     17          1           0       -4.209120   -1.454293   -0.853233
     18          1           0       -6.638778   -0.854254   -0.582327
     19          1           0       -6.468732   -0.974041    1.175409
     20          1           0       -6.286608   -2.420205    0.168061
     21          6           0        4.828288    0.910292    0.323614
     22          6           0        4.824272   -0.456559    0.620634
     23          6           0        3.679383   -1.227836    0.399479
     24          6           0        2.551040   -0.596933   -0.122146
     25          6           0        2.523874    0.762799   -0.428221
     26          6           0        3.680101    1.514545   -0.198944
     27          1           0        5.722069    1.501853    0.498567
     28          1           0        5.714525   -0.928499    1.026551
     29          1           0        3.648773   -2.287857    0.620468
     30          1           0        1.621200    1.205115   -0.831896
     31          1           0        3.680338    2.575865   -0.430552
     32          7           0        1.332996   -1.403109   -0.360572
     33          8           0        0.351780   -0.823527   -0.820936
     34          8           0        1.382573   -2.599310   -0.082572
 ---------------------------------------------------------------------

 SCF Done:  E(RHF) =  -669.535335975     A.U. after   15 cycles
 E2 =    -0.2092738478D+01 EUMP2 =    -0.67162807445357D+03

 The electronic state is 1-A.
 Alpha  occ. eigenvalues --  -20.60837 -20.60824 -15.85865 -11.31172 -11.27755
 Alpha  occ. eigenvalues --  -11.27677 -11.27491 -11.26760 -11.26732 -11.21047
 Alpha  occ. eigenvalues --  -11.20848 -11.20667 -11.20505 -11.20335 -11.20236
 Alpha  occ. eigenvalues --   -1.59898  -1.39454  -1.19349  -1.08759  -1.07581
 Alpha  occ. eigenvalues --   -1.04742  -1.02853  -0.95605  -0.95316  -0.86400
 Alpha  occ. eigenvalues --   -0.86111  -0.82437  -0.78939  -0.77568  -0.77212
 Alpha  occ. eigenvalues --   -0.72084  -0.71213  -0.70464  -0.65004  -0.64757
 Alpha  occ. eigenvalues --   -0.64219  -0.62113  -0.60265  -0.58675  -0.56907
 Alpha  occ. eigenvalues --   -0.55259  -0.54613  -0.53086  -0.52901  -0.52071
 Alpha  occ. eigenvalues --   -0.51673  -0.49295  -0.48854  -0.48824  -0.47207
 Alpha  occ. eigenvalues --   -0.45913  -0.45140  -0.44763  -0.44561  -0.43044
 Alpha  occ. eigenvalues --   -0.37337  -0.36337
 Alpha virt. eigenvalues --    0.05020   0.11269   0.16511   0.21191   0.23669
 Alpha virt. eigenvalues --    0.24749   0.26258   0.27487   0.27822   0.28643
 Alpha virt. eigenvalues --    0.29381   0.30811   0.31591   0.32087   0.32411

 Mulliken charges:
               1
     1  C   -0.297528
     2  C   -0.299313
     3  C   -0.479715
     4  H    0.153198
     5  H    0.166060
     6  H    0.148810
     7  H    0.149409
     8  H    0.157428
     9  H    0.154701
    10  H    0.152955
    11  C   -0.299132
    12  C   -0.298830
    13  C   -0.475412
    14  H    0.144762
    15  H    0.145711
    16  H    0.154297
    17  H    0.156668
    18  H    0.152845
    19  H    0.152456
    20  H    0.159365
    21  C   -0.170305
    22  C   -0.219187
    23  C   -0.169995
    24  C    0.154126
    25  C   -0.173625
    26  C   -0.222674
    27  H    0.225535
    28  H    0.223276
    29  H    0.275367
    30  H    0.287975
    31  H    0.224205
    32  N    0.490401
    33  O   -0.463801
    34  O   -0.460033
 Sum of Mulliken charges =  -0.00000

 Dipole moment (field-independent basis, Debye):
    X=              4.3905    Y=              2.6676    Z=              0.7654  Tot=              5.1941
 Quadrupole moment (field-independent basis, Debye-Ang):
   XX=            -74.2700   YY=            -95.8216   ZZ=            -94.1771
   XY=              2.5271   XZ=              3.0331   YZ=             -2.5483

 Normal termination of Gaussian 16 at Thu May  6 05:53:56 2021.
