 Gaussian 16, Revision A.03,
 Gaussian 16:  EM64L-G16RevA.03 25-Dec-2016

 -------------
 #p 6-31g* mp2
 -------------

 ------------------------------------------------------
 Input file generated by CHIRIPA (05-May-2021 14:55:24)
 ------------------------------------------------------
 Symbolic Z-matrix:
 Charge =  0 Multiplicity = 1

                         Standard orientation:
 ---------------------------------------------------------------------
 Center     Atomic      Atomic             Coordinates (Angstroms)
 Number     Number       Type             X           Y           Z
 ---------------------------------------------------------------------
      1          6           0       -1.728746    2.456601    0.387101
      2          6           0       -1.722270    1.592357    1.486902
      3          6           0       -2.324118    0.333209    1.403995
      4          6           0       -2.926025   -0.030967    0.200511
      5          6           0       -2.948980    0.807735   -0.912746
      6          6           0       -2.341001    2.062227   -0.807108
      7          1           0       -1.258834    3.432929    0.460334
      8          1           0       -1.247533    1.895974    2.415603
      9          1           0       -2.333666   -0.355594    2.239984
     10          1           0       -3.430113    0.477057   -1.825205
     11          1           0       -2.347557    2.731341   -1.662846
     12          7           0       -3.566420   -1.361506    0.100709
     13          8           0       -4.090038   -1.658693   -0.970805
     14          8           0       -3.532618   -2.082002    1.095887
     15          6           0        4.181322   -0.526759    0.141385
     16          6           0        5.523202    0.160526   -0.113539
     17          6           0        6.655897   -0.422103    0.732238
     18          1           0        3.928004   -0.438658    1.206755
     19          1           0        4.281653   -1.600712   -0.068268
     20          1           0        5.420000    1.233089    0.095204
     21          1           0        5.773262    0.070944   -1.178462
     22          1           0        6.787712   -1.487644    0.518114
     23          1           0        6.432442   -0.318896    1.799017
     24          1           0        7.605979    0.083818    0.534129
     25          6           0        3.039106    0.044656   -0.696802
     26          6           0        1.697228   -0.642628   -0.441878
     27          6           0        0.564533   -0.060000   -1.287655
     28          1           0        2.938776    1.118608   -0.487149
     29          1           0        3.292425   -0.043445   -1.762172
     30          1           0        1.447167   -0.553047    0.623045
     31          1           0        1.800430   -1.715191   -0.650621
     32          1           0        0.787988   -0.163207   -2.354434
     33          1           0        0.432717    1.005541   -1.073531
     34          1           0       -0.385550   -0.565921   -1.089547
 ---------------------------------------------------------------------

 SCF Done:  E(RHF) =  -669.533214900     A.U. after   15 cycles
 E2 =    -0.2094599277D+01 EUMP2 =    -0.67162781417717D+03

 The electronic state is 1-A.
 Alpha  occ. eigenvalues --  -20.60819 -20.60813 -15.85871 -11.31219 -11.27840
 Alpha  occ. eigenvalues --  -11.27772 -11.27556 -11.26864 -11.26791 -11.21768
 Alpha  occ. eigenvalues --  -11.21622 -11.21547 -11.21490 -11.21216 -11.20920
 Alpha  occ. eigenvalues --   -1.59897  -1.39449  -1.19438  -1.08831  -1.08548
 Alpha  occ. eigenvalues --   -1.04830  -1.03611  -0.96066  -0.95656  -0.87092
 Alpha  occ. eigenvalues --   -0.86232  -0.82483  -0.79693  -0.78372  -0.77525
 Alpha  occ. eigenvalues --   -0.72089  -0.71234  -0.70540  -0.65193  -0.65079
 Alpha  occ. eigenvalues --   -0.64832  -0.62172  -0.61046  -0.59500  -0.57707
 Alpha  occ. eigenvalues --   -0.55523  -0.55338  -0.53626  -0.52920  -0.52509
 Alpha  occ. eigenvalues --   -0.52127  -0.49913  -0.48850  -0.48844  -0.48021
 Alpha  occ. eigenvalues --   -0.46715  -0.45910  -0.45848  -0.44851  -0.43873
 Alpha  occ. eigenvalues --   -0.37314  -0.36378
 Alpha virt. eigenvalues --    0.04962   0.11184   0.16415   0.21316   0.22728
 Alpha virt. eigenvalues --    0.24208   0.26496   0.27104   0.27432   0.27933
 Alpha virt. eigenvalues --    0.28270   0.30738   0.31331   0.31690   0.31835

 Mulliken charges:
               1
     1  C   -0.172535
     2  C   -0.215761
     3  C   -0.171317
     4  C    0.159246
     5  C   -0.170786
     6  C   -0.212444
     7  H    0.225777
     8  H    0.223703
     9  H    0.276012
    10  H    0.275833
    11  H    0.223972
    12  N    0.487485
    13  O   -0.460164
    14  O   -0.460443
    15  C   -0.297994
    16  C   -0.299429
    17  C   -0.475674
    18  H    0.148111
    19  H    0.151429
    20  H    0.149994
    21  H    0.152401
    22  H    0.156295
    23  H    0.154665
    24  H    0.160240
    25  C   -0.297848
    26  C   -0.298879
    27  C   -0.477296
    28  H    0.144835
    29  H    0.150095
    30  H    0.148249
    31  H    0.154408
    32  H    0.151905
    33  H    0.152503
    34  H    0.163413
 Sum of Mulliken charges =  -0.00000

 Dipole moment (field-independent basis, Debye):
    X=              2.1399    Y=              4.7100    Z=              0.3592  Tot=              5.1857
 Quadrupole moment (field-independent basis, Debye-Ang):
   XX=           -109.3255   YY=            -95.0680   ZZ=            -89.9930
   XY=            -14.2285   XZ=              0.2285   YZ=              0.5589

 Normal termination of Gaussian 16 at Thu May  6 07:56:50 2021.
