 Gaussian 16, Revision A.03,
 Gaussian 16:  EM64L-G16RevA.03 25-Dec-2016

 -------------
 #p 6-31g* mp2
 -------------

 ------------------------------------------------------
 Input file generated by CHIRIPA (05-May-2021 14:55:25)
 ------------------------------------------------------
 Symbolic Z-matrix:
 Charge =  0 Multiplicity = 1

                         Standard orientation:
 ---------------------------------------------------------------------
 Center     Atomic      Atomic             Coordinates (Angstroms)
 Number     Number       Type             X           Y           Z
 ---------------------------------------------------------------------
      1          6           0       -1.330088   -2.811334   -0.201055
      2          6           0       -0.781090   -2.033824    0.823933
      3          6           0       -1.192367   -0.710567    1.009375
      4          6           0       -2.158991   -0.194534    0.147610
      5          6           0       -2.724793   -0.943872   -0.882754
      6          6           0       -2.298480   -2.264840   -1.049631
      7          1           0       -1.004758   -3.838383   -0.337901
      8          1           0       -0.028858   -2.455607    1.484456
      9          1           0       -0.783959   -0.086307    1.794819
     10          1           0       -3.472911   -0.495688   -1.525304
     11          1           0       -2.726580   -2.866323   -1.846496
     12          7           0       -2.602351    1.205127    0.334103
     13          8           0       -3.455421    1.636341   -0.438531
     14          8           0       -2.088391    1.844465    1.249379
     15          6           0        2.100142    1.048398   -0.217276
     16          6           0        2.580866    2.495704   -0.327698
     17          6           0        1.429296    3.492454   -0.462496
     18          1           0        1.499720    0.799571   -1.103010
     19          1           0        1.431218    0.956683    0.649630
     20          1           0        3.249780    2.584358   -1.193325
     21          1           0        3.180372    2.741054    0.558311
     22          1           0        0.764963    3.433285    0.405699
     23          1           0        0.834766    3.275699   -1.355890
     24          1           0        1.795518    4.520916   -0.539987
     25          6           0        3.239813    0.040154   -0.081922
     26          6           0        2.759088   -1.407152    0.028501
     27          6           0        3.910659   -2.403902    0.163298
     28          1           0        3.908737    0.131868   -0.948827
     29          1           0        3.840234    0.288980    0.803813
     30          1           0        2.159583   -1.652503   -0.857509
     31          1           0        2.090174   -1.495807    0.894128
     32          1           0        4.505188   -2.187148    1.056692
     33          1           0        4.574991   -2.344734   -0.704897
     34          1           0        3.544436   -3.432365    0.240790
 ---------------------------------------------------------------------

 SCF Done:  E(RHF) =  -669.534438071     A.U. after   15 cycles
 E2 =    -0.2094344562D+01 EUMP2 =    -0.67162878263217D+03

 The electronic state is 1-A.
 Alpha  occ. eigenvalues --  -20.60814 -20.60809 -15.85853 -11.31191 -11.27743
 Alpha  occ. eigenvalues --  -11.27739 -11.27476 -11.26771 -11.26737 -11.22071
 Alpha  occ. eigenvalues --  -11.21609 -11.21594 -11.21408 -11.21344 -11.20466
 Alpha  occ. eigenvalues --   -1.59874  -1.39431  -1.19359  -1.08761  -1.08562
 Alpha  occ. eigenvalues --   -1.04765  -1.03600  -0.96022  -0.95597  -0.87041
 Alpha  occ. eigenvalues --   -0.86158  -0.82446  -0.79722  -0.78367  -0.77456
 Alpha  occ. eigenvalues --   -0.72074  -0.71185  -0.70470  -0.65237  -0.65006
 Alpha  occ. eigenvalues --   -0.64790  -0.62125  -0.60986  -0.59474  -0.57627
 Alpha  occ. eigenvalues --   -0.55300  -0.55258  -0.53154  -0.52917  -0.52681
 Alpha  occ. eigenvalues --   -0.52395  -0.49947  -0.48836  -0.48833  -0.47977
 Alpha  occ. eigenvalues --   -0.46755  -0.45881  -0.45776  -0.44785  -0.43857
 Alpha  occ. eigenvalues --   -0.37317  -0.36259
 Alpha virt. eigenvalues --    0.05001   0.11217   0.16422   0.20271   0.23035
 Alpha virt. eigenvalues --    0.23964   0.25271   0.26884   0.27353   0.28445
 Alpha virt. eigenvalues --    0.29326   0.30189   0.31422   0.31647   0.32067

 Mulliken charges:
               1
     1  C   -0.172944
     2  C   -0.212839
     3  C   -0.168400
     4  C    0.158643
     5  C   -0.171766
     6  C   -0.218566
     7  H    0.225578
     8  H    0.224220
     9  H    0.274114
    10  H    0.275350
    11  H    0.223296
    12  N    0.488778
    13  O   -0.459722
    14  O   -0.461502
    15  C   -0.299237
    16  C   -0.299830
    17  C   -0.479915
    18  H    0.150079
    19  H    0.148116
    20  H    0.150093
    21  H    0.150815
    22  H    0.169567
    23  H    0.154734
    24  H    0.159174
    25  C   -0.298432
    26  C   -0.298816
    27  C   -0.475426
    28  H    0.150752
    29  H    0.149793
    30  H    0.153478
    31  H    0.141612
    32  H    0.156543
    33  H    0.158019
    34  H    0.154641
 Sum of Mulliken charges =  -0.00000

 Dipole moment (field-independent basis, Debye):
    X=              1.4951    Y=             -4.8314    Z=             -0.6829  Tot=              5.1034
 Quadrupole moment (field-independent basis, Debye-Ang):
   XX=           -100.7974   YY=            -94.0328   ZZ=            -91.3276
   XY=             11.4181   XZ=              4.3207   YZ=              0.1750

 Normal termination of Gaussian 16 at Thu May  6 06:26:14 2021.
