 Gaussian 16, Revision A.03,
 Gaussian 16:  EM64L-G16RevA.03 25-Dec-2016

 -------------
 #p 6-31g* mp2
 -------------

 ------------------------------------------------------
 Input file generated by CHIRIPA (05-May-2021 14:55:25)
 ------------------------------------------------------
 Symbolic Z-matrix:
 Charge =  0 Multiplicity = 1

                         Standard orientation:
 ---------------------------------------------------------------------
 Center     Atomic      Atomic             Coordinates (Angstroms)
 Number     Number       Type             X           Y           Z
 ---------------------------------------------------------------------
      1          6           0       -1.311854   -2.155178    0.557597
      2          6           0       -0.876385   -0.892144    0.971882
      3          6           0       -1.654536    0.243047    0.726176
      4          6           0       -2.868277    0.077963    0.060692
      5          6           0       -3.329400   -1.166970   -0.364511
      6          6           0       -2.534816   -2.288326   -0.108103
      7          1           0       -0.700984   -3.031648    0.752624
      8          1           0        0.072947   -0.785741    1.489080
      9          1           0       -1.341459    1.232722    1.035924
     10          1           0       -4.280346   -1.241437   -0.877905
     11          1           0       -2.875527   -3.267970   -0.430992
     12          7           0       -3.700770    1.272415   -0.205091
     13          8           0       -4.766189    1.100296   -0.793218
     14          8           0       -3.272095    2.358128    0.179749
     15          6           0        3.558913   -0.500023   -0.526267
     16          6           0        3.188710   -1.737999    0.291260
     17          6           0        3.320037   -3.035012   -0.507680
     18          1           0        2.916776   -0.450711   -1.416309
     19          1           0        4.590351   -0.604623   -0.890396
     20          1           0        2.158749   -1.630470    0.654897
     21          1           0        3.831673   -1.784265    1.179558
     22          1           0        4.348591   -3.169278   -0.857894
     23          1           0        2.666161   -3.014608   -1.385537
     24          1           0        3.050556   -3.907344    0.095873
     25          6           0        3.432632    0.804400    0.258757
     26          6           0        3.802835    2.042376   -0.558770
     27          6           0        3.671508    3.339389    0.240170
     28          1           0        2.401195    0.909000    0.622886
     29          1           0        4.074768    0.755088    1.148799
     30          1           0        3.159871    2.088642   -1.447069
     31          1           0        4.832797    1.934847   -0.922406
     32          1           0        4.325384    3.318986    1.118027
     33          1           0        2.642954    3.473655    0.590384
     34          1           0        3.940990    4.211721   -0.363382
 ---------------------------------------------------------------------

 SCF Done:  E(RHF) =  -669.535442238     A.U. after   15 cycles
 E2 =    -0.2091864297D+01 EUMP2 =    -0.67162730653588D+03

 The electronic state is 1-A.
 Alpha  occ. eigenvalues --  -20.60786 -20.60780 -15.85839 -11.31214 -11.27786
 Alpha  occ. eigenvalues --  -11.27782 -11.27520 -11.26794 -11.26771 -11.22545
 Alpha  occ. eigenvalues --  -11.22097 -11.22048 -11.22001 -11.21927 -11.21382
 Alpha  occ. eigenvalues --   -1.59861  -1.39414  -1.19387  -1.09112  -1.08777
 Alpha  occ. eigenvalues --   -1.04792  -1.04174  -0.96604  -0.95611  -0.87623
 Alpha  occ. eigenvalues --   -0.86192  -0.82444  -0.80266  -0.78921  -0.77489
 Alpha  occ. eigenvalues --   -0.72057  -0.71184  -0.70489  -0.65805  -0.65038
 Alpha  occ. eigenvalues --   -0.64765  -0.62165  -0.61537  -0.59997  -0.58218
 Alpha  occ. eigenvalues --   -0.55881  -0.55281  -0.53311  -0.53117  -0.53034
 Alpha  occ. eigenvalues --   -0.52885  -0.50546  -0.48830  -0.48812  -0.48553
 Alpha  occ. eigenvalues --   -0.47290  -0.46443  -0.46351  -0.44818  -0.44431
 Alpha  occ. eigenvalues --   -0.37358  -0.36387
 Alpha virt. eigenvalues --    0.05036   0.11145   0.16484   0.19348   0.22882
 Alpha virt. eigenvalues --    0.23350   0.24686   0.26430   0.26836   0.28147
 Alpha virt. eigenvalues --    0.29543   0.30592   0.31157   0.31274   0.31623

 Mulliken charges:
               1
     1  C   -0.171810
     2  C   -0.222037
     3  C   -0.172001
     4  C    0.158595
     5  C   -0.170908
     6  C   -0.218677
     7  H    0.226808
     8  H    0.228865
     9  H    0.275431
    10  H    0.275748
    11  H    0.223652
    12  N    0.488031
    13  O   -0.460315
    14  O   -0.460397
    15  C   -0.298597
    16  C   -0.302949
    17  C   -0.476797
    18  H    0.153025
    19  H    0.152822
    20  H    0.142602
    21  H    0.154269
    22  H    0.159877
    23  H    0.156904
    24  H    0.157313
    25  C   -0.298187
    26  C   -0.300634
    27  C   -0.476102
    28  H    0.142234
    29  H    0.150727
    30  H    0.154822
    31  H    0.153448
    32  H    0.155127
    33  H    0.155703
    34  H    0.163410
 Sum of Mulliken charges =  -0.00000

 Dipole moment (field-independent basis, Debye):
    X=              3.0697    Y=             -4.1600    Z=              0.8393  Tot=              5.2377
 Quadrupole moment (field-independent basis, Debye-Ang):
   XX=           -107.9819   YY=            -94.9707   ZZ=            -94.4439
   XY=             14.7992   XZ=             -0.6944   YZ=              0.8629

 Normal termination of Gaussian 16 at Thu May  6 11:06:33 2021.
