 Gaussian 16, Revision A.03,
 Gaussian 16:  EM64L-G16RevA.03 25-Dec-2016

 -------------
 #p 6-31g* mp2
 -------------

 ------------------------------------------------------
 Input file generated by CHIRIPA (05-May-2021 14:55:21)
 ------------------------------------------------------
 Symbolic Z-matrix:
 Charge =  0 Multiplicity = 1

                         Standard orientation:
 ---------------------------------------------------------------------
 Center     Atomic      Atomic             Coordinates (Angstroms)
 Number     Number       Type             X           Y           Z
 ---------------------------------------------------------------------
      1          6           0        6.212049    0.909761   -0.174820
      2          6           0        5.953524   -0.394768   -0.608285
      3          6           0        4.652871   -0.906816   -0.582676
      4          6           0        3.629982   -0.083055   -0.115337
      5          6           0        3.855667    1.220788    0.323239
      6          6           0        5.164142    1.711961    0.288741
      7          1           0        7.225465    1.299424   -0.198165
      8          1           0        6.765384   -1.020033   -0.968799
      9          1           0        4.424593   -1.913112   -0.912335
     10          1           0        3.025737    1.820198    0.677275
     11          1           0        5.361966    2.725455    0.625996
     12          7           0        2.248899   -0.614088   -0.083522
     13          8           0        1.365147    0.131812    0.332715
     14          8           0        2.076308   -1.766157   -0.475423
     15          6           0       -4.437710   -0.523299    0.410312
     16          6           0       -3.083536    0.077355    0.789007
     17          6           0       -2.093941   -0.970549    1.299295
     18          1           0       -4.862053   -1.035247    1.284833
     19          1           0       -4.287318   -1.292599   -0.359724
     20          1           0       -3.236591    0.846262    1.557103
     21          1           0       -2.662456    0.588095   -0.086466
     22          1           0       -1.911896   -1.732934    0.534947
     23          1           0       -2.489294   -1.473302    2.187854
     24          1           0       -1.132605   -0.519452    1.564255
     25          6           0       -5.437749    0.511868   -0.101625
     26          6           0       -6.791924   -0.088786   -0.480319
     27          6           0       -7.781518    0.959118   -0.990608
     28          1           0       -5.588142    1.281168    0.668411
     29          1           0       -5.013407    1.023815   -0.976147
     30          1           0       -7.213004   -0.599527    0.395153
     31          1           0       -6.638869   -0.857693   -1.248416
     32          1           0       -7.386166    1.461871   -1.879167
     33          1           0       -7.963563    1.721504   -0.226260
     34          1           0       -8.742855    0.508021   -1.255568
 ---------------------------------------------------------------------

 SCF Done:  E(RHF) =  -669.536076540     A.U. after   15 cycles
 E2 =    -0.2090802792D+01 EUMP2 =    -0.67162687933217D+03

 The electronic state is 1-A.
 Alpha  occ. eigenvalues --  -20.60949 -20.60943 -15.85981 -11.31302 -11.27865
 Alpha  occ. eigenvalues --  -11.27861 -11.27602 -11.26871 -11.26862 -11.20926
 Alpha  occ. eigenvalues --  -11.20548 -11.20522 -11.20309 -11.20201 -11.19173
 Alpha  occ. eigenvalues --   -1.60006  -1.39563  -1.19469  -1.08874  -1.07444
 Alpha  occ. eigenvalues --   -1.04866  -1.02437  -0.95717  -0.94862  -0.86266
 Alpha  occ. eigenvalues --   -0.85881  -0.82550  -0.78554  -0.77602  -0.77211
 Alpha  occ. eigenvalues --   -0.72205  -0.71321  -0.70578  -0.65125  -0.64869
 Alpha  occ. eigenvalues --   -0.64088  -0.62213  -0.59844  -0.58305  -0.56448
 Alpha  occ. eigenvalues --   -0.55369  -0.54172  -0.53198  -0.52958  -0.51534
 Alpha  occ. eigenvalues --   -0.51303  -0.48987  -0.48952  -0.48757  -0.46830
 Alpha  occ. eigenvalues --   -0.45620  -0.44979  -0.44747  -0.44661  -0.42653
 Alpha  occ. eigenvalues --   -0.37449  -0.36467
 Alpha virt. eigenvalues --    0.04919   0.11188   0.16415   0.21323   0.23771
 Alpha virt. eigenvalues --    0.25481   0.27242   0.27577   0.28190   0.28425
 Alpha virt. eigenvalues --    0.29211   0.30893   0.32414   0.32443   0.32643

 Mulliken charges:
               1
     1  C   -0.170590
     2  C   -0.218586
     3  C   -0.170609
     4  C    0.157806
     5  C   -0.170840
     6  C   -0.218543
     7  H    0.226012
     8  H    0.223843
     9  H    0.275904
    10  H    0.275730
    11  H    0.223850
    12  N    0.489845
    13  O   -0.460968
    14  O   -0.458661
    15  C   -0.297390
    16  C   -0.299115
    17  C   -0.479565
    18  H    0.146631
    19  H    0.149160
    20  H    0.145513
    21  H    0.154085
    22  H    0.158145
    23  H    0.143244
    24  H    0.181802
    25  C   -0.297290
    26  C   -0.298869
    27  C   -0.475114
    28  H    0.147282
    29  H    0.148643
    30  H    0.150734
    31  H    0.151428
    32  H    0.154314
    33  H    0.153958
    34  H    0.158211
 Sum of Mulliken charges =  -0.00000

 Dipole moment (field-independent basis, Debye):
    X=              5.2842    Y=              1.8585    Z=             -0.1553  Tot=              5.6036
 Quadrupole moment (field-independent basis, Debye-Ang):
   XX=            -61.5230   YY=            -91.9265   ZZ=            -94.2782
   XY=              5.3923   XZ=             -2.1815   YZ=              2.2098

 Normal termination of Gaussian 16 at Wed May  5 23:50:31 2021.
