 Gaussian 16, Revision A.03,
 Gaussian 16:  EM64L-G16RevA.03 25-Dec-2016

 -------------
 #p 6-31g* mp2
 -------------

 ------------------------------------------------------
 Input file generated by CHIRIPA (05-May-2021 14:55:23)
 ------------------------------------------------------
 Symbolic Z-matrix:
 Charge =  0 Multiplicity = 1

                         Standard orientation:
 ---------------------------------------------------------------------
 Center     Atomic      Atomic             Coordinates (Angstroms)
 Number     Number       Type             X           Y           Z
 ---------------------------------------------------------------------
      1          6           0        3.621082    1.816813   -0.402065
      2          6           0        4.103929    0.691699   -1.078452
      3          6           0        3.562824   -0.573062   -0.829190
      4          6           0        2.535239   -0.676780    0.107081
      5          6           0        2.032720    0.425295    0.797150
      6          6           0        2.588838    1.680260    0.531930
      7          1           0        4.047256    2.795505   -0.601897
      8          1           0        4.905502    0.794757   -1.804333
      9          1           0        3.917705   -1.460768   -1.338558
     10          1           0        1.232829    0.291051    1.515183
     11          1           0        2.211869    2.552290    1.058717
     12          7           0        1.954449   -2.010541    0.379411
     13          8           0        1.049858   -2.075314    1.208962
     14          8           0        2.414815   -2.965917   -0.241845
     15          6           0       -4.100815    0.403888   -0.194080
     16          6           0       -4.353396   -1.103494   -0.238643
     17          6           0       -5.824833   -1.449794   -0.468308
     18          1           0       -4.712317    0.848293    0.603112
     19          1           0       -4.441492    0.853739   -1.136931
     20          1           0       -4.011074   -1.550565    0.703461
     21          1           0       -3.741077   -1.544391   -1.035695
     22          1           0       -6.175715   -1.030682   -1.416900
     23          1           0       -6.447246   -1.036891    0.332138
     24          1           0       -5.982774   -2.532435   -0.496672
     25          6           0       -2.634445    0.765930    0.034854
     26          6           0       -2.381863    2.273313    0.079418
     27          6           0       -0.910427    2.619613    0.309082
     28          1           0       -2.293767    0.316078    0.977705
     29          1           0       -2.022942    0.321525   -0.762337
     30          1           0       -2.994182    2.714208    0.876470
     31          1           0       -2.724185    2.720382   -0.862686
     32          1           0       -0.288013    2.206709   -0.491364
     33          1           0       -0.559545    2.200500    1.257674
     34          1           0       -0.752485    3.702253    0.337445
 ---------------------------------------------------------------------

 SCF Done:  E(RHF) =  -669.534760688     A.U. after   15 cycles
 E2 =    -0.2092514612D+01 EUMP2 =    -0.67162727529997D+03

 The electronic state is 1-A.
 Alpha  occ. eigenvalues --  -20.60736 -20.60731 -15.85787 -11.31129 -11.27694
 Alpha  occ. eigenvalues --  -11.27668 -11.27429 -11.26716 -11.26660 -11.21823
 Alpha  occ. eigenvalues --  -11.21618 -11.21335 -11.21279 -11.21214 -11.20790
 Alpha  occ. eigenvalues --   -1.59811  -1.39364  -1.19305  -1.08703  -1.08387
 Alpha  occ. eigenvalues --   -1.04710  -1.03544  -0.96037  -0.95538  -0.87077
 Alpha  occ. eigenvalues --   -0.86095  -0.82374  -0.79635  -0.78146  -0.77401
 Alpha  occ. eigenvalues --   -0.72006  -0.71133  -0.70414  -0.65021  -0.64953
 Alpha  occ. eigenvalues --   -0.64699  -0.62078  -0.60940  -0.59425  -0.57614
 Alpha  occ. eigenvalues --   -0.55352  -0.55187  -0.53194  -0.52886  -0.52623
 Alpha  occ. eigenvalues --   -0.52330  -0.49987  -0.48763  -0.48760  -0.47923
 Alpha  occ. eigenvalues --   -0.46631  -0.45699  -0.45586  -0.44769  -0.43779
 Alpha  occ. eigenvalues --   -0.37293  -0.36227
 Alpha virt. eigenvalues --    0.05105   0.11304   0.16556   0.20563   0.22896
 Alpha virt. eigenvalues --    0.24108   0.25652   0.26895   0.27367   0.28258
 Alpha virt. eigenvalues --    0.29227   0.30298   0.31390   0.31623   0.32177

 Mulliken charges:
               1
     1  C   -0.172457
     2  C   -0.218762
     3  C   -0.171653
     4  C    0.157661
     5  C   -0.169879
     6  C   -0.216500
     7  H    0.225371
     8  H    0.223061
     9  H    0.275187
    10  H    0.276024
    11  H    0.226537
    12  N    0.488265
    13  O   -0.460657
    14  O   -0.460724
    15  C   -0.298676
    16  C   -0.300258
    17  C   -0.475980
    18  H    0.148732
    19  H    0.148194
    20  H    0.156746
    21  H    0.154425
    22  H    0.153647
    23  H    0.154049
    24  H    0.161808
    25  C   -0.299707
    26  C   -0.299821
    27  C   -0.479853
    28  H    0.153821
    29  H    0.151624
    30  H    0.152384
    31  H    0.152757
    32  H    0.161757
    33  H    0.145793
    34  H    0.157084
 Sum of Mulliken charges =  -0.00000

 Dipole moment (field-independent basis, Debye):
    X=              1.9861    Y=              4.6284    Z=             -0.9812  Tot=              5.1312
 Quadrupole moment (field-independent basis, Debye-Ang):
   XX=            -83.9564   YY=           -101.2302   ZZ=            -92.2941
   XY=              9.0923   XZ=             -5.0227   YZ=              2.5497

 Normal termination of Gaussian 16 at Thu May  6 20:50:56 2021.
