 Gaussian 16, Revision A.03,
 Gaussian 16:  EM64L-G16RevA.03 25-Dec-2016

 -------------
 #p 6-31g* mp2
 -------------

 ------------------------------------------------------
 Input file generated by CHIRIPA (05-May-2021 14:53:17)
 ------------------------------------------------------
 Symbolic Z-matrix:
 Charge =  0 Multiplicity = 1

                         Standard orientation:
 ---------------------------------------------------------------------
 Center     Atomic      Atomic             Coordinates (Angstroms)
 Number     Number       Type             X           Y           Z
 ---------------------------------------------------------------------
      1          6           0        3.911019   -0.438028   -0.015631
      2          6           0        3.320813   -1.811052   -0.338816
      3          6           0        4.174287   -2.961897    0.194975
      4          1           0        4.923086   -0.372392   -0.437955
      5          1           0        4.019852   -0.340555    1.073428
      6          1           0        3.211838   -1.905369   -1.426862
      7          1           0        2.309960   -1.873356    0.084161
      8          1           0        4.272993   -2.895712    1.283312
      9          1           0        5.179996   -2.927907   -0.236296
     10          1           0        3.733963   -3.934166   -0.047240
     11          6           0        3.069100    0.722602   -0.542733
     12          6           0        3.659306    2.095626   -0.219549
     13          6           0        2.805832    3.246471   -0.753340
     14          1           0        2.960267    0.625130   -1.631792
     15          1           0        2.057032    0.656966   -0.120410
     16          1           0        4.670159    2.157931   -0.642526
     17          1           0        3.768281    2.189944    0.868497
     18          1           0        1.800123    3.212481   -0.322068
     19          1           0        2.707125    3.180286   -1.841677
     20          1           0        3.246155    4.218740   -0.511125
     21          6           0       -0.494344    0.031288    1.385426
     22          6           0       -1.435730    1.053000    1.547959
     23          6           0       -2.675787    0.984586    0.905987
     24          6           0       -2.942415   -0.124933    0.105260
     25          6           0       -2.025264   -1.158911   -0.076436
     26          6           0       -0.791591   -1.069466    0.575176
     27          1           0        0.466483    0.092603    1.887868
     28          1           0       -1.207615    1.909045    2.176604
     29          1           0       -3.422909    1.761425    1.014380
     30          1           0       -2.281436   -1.999774   -0.709480
     31          1           0       -0.062419   -1.864421    0.447122
     32          7           0       -4.251830   -0.208493   -0.579470
     33          8           0       -4.462436   -1.196522   -1.279527
     34          8           0       -5.042748    0.715625   -0.403138
 ---------------------------------------------------------------------

 SCF Done:  E(RHF) =  -669.535018270     A.U. after   15 cycles
 E2 =    -0.2092912372D+01 EUMP2 =    -0.67162793064252D+03

 The electronic state is 1-A.
 Alpha  occ. eigenvalues --  -20.60785 -20.60780 -15.85838 -11.31226 -11.27793
 Alpha  occ. eigenvalues --  -11.27780 -11.27543 -11.26823 -11.26791 -11.22644
 Alpha  occ. eigenvalues --  -11.22312 -11.22279 -11.22127 -11.21917 -11.21667
 Alpha  occ. eigenvalues --   -1.59859  -1.39412  -1.19401  -1.09290  -1.08794
 Alpha  occ. eigenvalues --   -1.04802  -1.04344  -0.96762  -0.95628  -0.87775
 Alpha  occ. eigenvalues --   -0.86207  -0.82455  -0.80425  -0.79091  -0.77492
 Alpha  occ. eigenvalues --   -0.72057  -0.71182  -0.70533  -0.65984  -0.65049
 Alpha  occ. eigenvalues --   -0.64782  -0.62198  -0.61710  -0.60131  -0.58376
 Alpha  occ. eigenvalues --   -0.56092  -0.55285  -0.53457  -0.53222  -0.53093
 Alpha  occ. eigenvalues --   -0.52898  -0.50701  -0.48846  -0.48810  -0.48687
 Alpha  occ. eigenvalues --   -0.47468  -0.46610  -0.46549  -0.44813  -0.44592
 Alpha  occ. eigenvalues --   -0.37341  -0.36394
 Alpha virt. eigenvalues --    0.04995   0.11162   0.16376   0.19036   0.22712
 Alpha virt. eigenvalues --    0.23399   0.25378   0.25972   0.26879   0.27680
 Alpha virt. eigenvalues --    0.29710   0.30766   0.30890   0.31210   0.31857

 Mulliken charges:
               1
     1  C   -0.298937
     2  C   -0.303153
     3  C   -0.475805
     4  H    0.154238
     5  H    0.146351
     6  H    0.156984
     7  H    0.141660
     8  H    0.155031
     9  H    0.159401
    10  H    0.161616
    11  C   -0.304622
    12  C   -0.300007
    13  C   -0.475643
    14  H    0.153656
    15  H    0.148919
    16  H    0.154729
    17  H    0.148627
    18  H    0.153232
    19  H    0.158503
    20  H    0.161912
    21  C   -0.171642
    22  C   -0.220223
    23  C   -0.170910
    24  C    0.159183
    25  C   -0.171424
    26  C   -0.221337
    27  H    0.226069
    28  H    0.223740
    29  H    0.275868
    30  H    0.276204
    31  H    0.230274
    32  N    0.487922
    33  O   -0.460163
    34  O   -0.460254
 Sum of Mulliken charges =  -0.00000

 Dipole moment (field-independent basis, Debye):
    X=              4.7167    Y=              0.3066    Z=              2.3113  Tot=              5.2615
 Quadrupole moment (field-independent basis, Debye-Ang):
   XX=           -121.5546   YY=            -91.8349   ZZ=            -93.3606
   XY=             -2.4209   XZ=             -8.2454   YZ=              2.0954

 Normal termination of Gaussian 16 at Thu May  6 06:00:33 2021.
