 Gaussian 16, Revision A.03,
 Gaussian 16:  EM64L-G16RevA.03 25-Dec-2016

 -------------
 #p 6-31g* mp2
 -------------

 ------------------------------------------------------
 Input file generated by CHIRIPA (05-May-2021 14:53:13)
 ------------------------------------------------------
 Symbolic Z-matrix:
 Charge =  0 Multiplicity = 1

                         Standard orientation:
 ---------------------------------------------------------------------
 Center     Atomic      Atomic             Coordinates (Angstroms)
 Number     Number       Type             X           Y           Z
 ---------------------------------------------------------------------
      1          6           0        4.083534    0.401745   -0.374588
      2          6           0        3.409151    1.705924    0.052392
      3          6           0        2.136586    2.001086   -0.742121
      4          1           0        4.322010    0.453299   -1.445763
      5          1           0        3.373063   -0.427485   -0.252096
      6          1           0        4.121137    2.532253   -0.069562
      7          1           0        3.172426    1.651335    1.122718
      8          1           0        1.405721    1.196444   -0.611786
      9          1           0        2.359822    2.082367   -1.810840
     10          1           0        1.670785    2.937854   -0.420632
     11          6           0        5.357050    0.092938    0.410601
     12          6           0        6.031432   -1.211240   -0.016379
     13          6           0        7.303997   -1.506403    0.778134
     14          1           0        6.067520    0.922168    0.288109
     15          1           0        5.118574    0.041385    1.481776
     16          1           0        6.268158   -1.156651   -1.086705
     17          1           0        5.319447   -2.037569    0.105575
     18          1           0        7.080761   -1.587684    1.846853
     19          1           0        8.034863   -0.701760    0.647799
     20          1           0        7.769799   -2.443171    0.456645
     21          6           0       -6.133729   -0.283657    0.598161
     22          6           0       -5.382848    0.861707    0.882480
     23          6           0       -4.026839    0.922910    0.547754
     24          6           0       -3.451258   -0.184494   -0.073256
     25          6           0       -4.172802   -1.339849   -0.369598
     26          6           0       -5.527380   -1.378849   -0.025870
     27          1           0       -7.186554   -0.322576    0.861680
     28          1           0       -5.851108    1.713750    1.367043
     29          1           0       -3.422080    1.797084    0.756334
     30          1           0       -3.678203   -2.173383   -0.853344
     31          1           0       -6.108066   -2.269667   -0.247885
     32          7           0       -2.016469   -0.131455   -0.432380
     33          8           0       -1.532865   -1.120439   -0.978890
     34          8           0       -1.402655    0.898098   -0.160550
 ---------------------------------------------------------------------

 SCF Done:  E(RHF) =  -669.536252460     A.U. after   15 cycles
 E2 =    -0.2090892489D+01 EUMP2 =    -0.67162714494926D+03

 The electronic state is 1-A.
 Alpha  occ. eigenvalues --  -20.60998 -20.60976 -15.86005 -11.31317 -11.27877
 Alpha  occ. eigenvalues --  -11.27873 -11.27613 -11.26881 -11.26871 -11.20843
 Alpha  occ. eigenvalues --  -11.20485 -11.20459 -11.20276 -11.20198 -11.19184
 Alpha  occ. eigenvalues --   -1.60044  -1.39599  -1.19483  -1.08891  -1.07390
 Alpha  occ. eigenvalues --   -1.04876  -1.02415  -0.95735  -0.94836  -0.86278
 Alpha  occ. eigenvalues --   -0.85846  -0.82566  -0.78516  -0.77622  -0.77159
 Alpha  occ. eigenvalues --   -0.72222  -0.71353  -0.70591  -0.65138  -0.64880
 Alpha  occ. eigenvalues --   -0.64028  -0.62223  -0.59811  -0.58288  -0.56451
 Alpha  occ. eigenvalues --   -0.55385  -0.54118  -0.53209  -0.52968  -0.51535
 Alpha  occ. eigenvalues --   -0.51269  -0.49212  -0.48984  -0.48530  -0.46788
 Alpha  occ. eigenvalues --   -0.45538  -0.45013  -0.44704  -0.44570  -0.42680
 Alpha  occ. eigenvalues --   -0.37462  -0.36477
 Alpha virt. eigenvalues --    0.04911   0.11179   0.16414   0.21318   0.23844
 Alpha virt. eigenvalues --    0.25488   0.27235   0.27673   0.28196   0.28505
 Alpha virt. eigenvalues --    0.29245   0.30886   0.32407   0.32570   0.32727

 Mulliken charges:
               1
     1  C   -0.298375
     2  C   -0.299139
     3  C   -0.482296
     4  H    0.147574
     5  H    0.154441
     6  H    0.144908
     7  H    0.148739
     8  H    0.185034
     9  H    0.147164
    10  H    0.154161
    11  C   -0.297353
    12  C   -0.299030
    13  C   -0.475096
    14  H    0.146885
    15  H    0.147850
    16  H    0.151009
    17  H    0.152394
    18  H    0.153997
    19  H    0.153813
    20  H    0.158143
    21  C   -0.170537
    22  C   -0.218561
    23  C   -0.170803
    24  C    0.157793
    25  C   -0.170664
    26  C   -0.218600
    27  H    0.226069
    28  H    0.223929
    29  H    0.276052
    30  H    0.275888
    31  H    0.223882
    32  N    0.488889
    33  O   -0.459575
    34  O   -0.458586
 Sum of Mulliken charges =  -0.00000

 Dipole moment (field-independent basis, Debye):
    X=             -5.4810    Y=             -0.2774    Z=              1.2530  Tot=              5.6293
 Quadrupole moment (field-independent basis, Debye-Ang):
   XX=            -62.4765   YY=            -90.8064   ZZ=            -94.9091
   XY=              2.2337   XZ=             -4.9277   YZ=              1.7487

 Normal termination of Gaussian 16 at Thu May  6 10:28:55 2021.
