 Gaussian 16, Revision A.03,
 Gaussian 16:  EM64L-G16RevA.03 25-Dec-2016

 -------------
 #p 6-31g* mp2
 -------------

 ------------------------------------------------------
 Input file generated by CHIRIPA (05-May-2021 14:57:23)
 ------------------------------------------------------
 Symbolic Z-matrix:
 Charge =  0 Multiplicity = 1

                         Standard orientation:
 ---------------------------------------------------------------------
 Center     Atomic      Atomic             Coordinates (Angstroms)
 Number     Number       Type             X           Y           Z
 ---------------------------------------------------------------------
      1          6           0       -4.025209   -1.743379    1.365497
      2          6           0       -4.948483   -0.903609    0.733936
      3          6           0       -4.512507    0.148615   -0.076804
      4          6           0       -3.139798    0.333072   -0.234717
      5          6           0       -2.195235   -0.486551    0.381163
      6          6           0       -2.653949   -1.532542    1.187410
      7          1           0       -4.372717   -2.558351    1.993554
      8          1           0       -6.014022   -1.064979    0.870436
      9          1           0       -5.205497    0.813791   -0.577526
     10          1           0       -1.139377   -0.300735    0.226070
     11          1           0       -1.934639   -2.183141    1.676653
     12          7           0       -2.666214    1.443715   -1.090632
     13          8           0       -1.451517    1.585155   -1.213693
     14          8           0       -3.518682    2.151766   -1.622231
     15          6           0        3.405531    1.598933    1.902477
     16          6           0        4.422054    1.463875    0.951182
     17          6           0        4.328652    0.498273   -0.055515
     18          6           0        3.199706   -0.319108   -0.081219
     19          6           0        2.170288   -0.209008    0.852305
     20          6           0        2.284868    0.763533    1.850094
     21          1           0        3.486313    2.351731    2.681043
     22          1           0        5.293522    2.111275    0.989413
     23          1           0        5.100936    0.372131   -0.804569
     24          1           0        1.313652   -0.868936    0.788383
     25          1           0        1.493884    0.866159    2.587562
     26          7           0        3.089616   -1.345020   -1.142248
     27          8           0        2.084810   -2.052834   -1.143101
     28          8           0        4.010219   -1.421891   -1.952939
 ---------------------------------------------------------------------

 SCF Done:  E(RHF) =  -868.337206263     A.U. after   16 cycles
 E2 =    -0.2599914926D+01 EUMP2 =    -0.87093712118941D+03

 The electronic state is 1-A.
 Alpha  occ. eigenvalues --  -20.60817 -20.60809 -20.60774 -20.60753 -15.85870
 Alpha  occ. eigenvalues --  -15.85821 -11.31284 -11.31201 -11.27902 -11.27882
 Alpha  occ. eigenvalues --  -11.27836 -11.27712 -11.27591 -11.27465 -11.26896
 Alpha  occ. eigenvalues --  -11.26857 -11.26822 -11.26738  -1.59889  -1.59831
 Alpha  occ. eigenvalues --   -1.39441  -1.39391  -1.19456  -1.19355  -1.08837
 Alpha  occ. eigenvalues --   -1.08738  -1.04882  -1.04779  -0.95672  -0.95585
 Alpha  occ. eigenvalues --   -0.86274  -0.86172  -0.82507  -0.82432  -0.77590
 Alpha  occ. eigenvalues --   -0.77456  -0.72092  -0.72044  -0.71211  -0.71140
 Alpha  occ. eigenvalues --   -0.70633  -0.70431  -0.65114  -0.65026  -0.64917
 Alpha  occ. eigenvalues --   -0.64769  -0.62392  -0.62005  -0.55380  -0.55246
 Alpha  occ. eigenvalues --   -0.53186  -0.53096  -0.53004  -0.52823  -0.48851
 Alpha  occ. eigenvalues --   -0.48841  -0.48810  -0.48790  -0.44836  -0.44795
 Alpha  occ. eigenvalues --   -0.37424  -0.37293  -0.36476  -0.36357
 Alpha virt. eigenvalues --    0.04992   0.05052   0.11181   0.11242   0.16487
 Alpha virt. eigenvalues --    0.16569   0.19283   0.22119   0.24922   0.27693
 Alpha virt. eigenvalues --    0.27924   0.29687   0.30848   0.31257   0.31867

 Mulliken charges:
               1
     1  C   -0.170613
     2  C   -0.218601
     3  C   -0.170150
     4  C    0.159257
     5  C   -0.174878
     6  C   -0.219021
     7  H    0.226317
     8  H    0.224071
     9  H    0.276127
    10  H    0.276219
    11  H    0.222199
    12  N    0.487573
    13  O   -0.459753
    14  O   -0.460064
    15  C   -0.169689
    16  C   -0.217124
    17  C   -0.169595
    18  C    0.162408
    19  C   -0.169396
    20  C   -0.215111
    21  H    0.226401
    22  H    0.224451
    23  H    0.276515
    24  H    0.264949
    25  H    0.221078
    26  N    0.488937
    27  O   -0.464314
    28  O   -0.458190
 Sum of Mulliken charges =  -0.00000

 Dipole moment (field-independent basis, Debye):
    X=             -1.1993    Y=             -0.2008    Z=              6.6861  Tot=              6.7958
 Quadrupole moment (field-independent basis, Debye-Ang):
   XX=            -82.5087   YY=           -110.2743   ZZ=           -107.3471
   XY=             23.9570   XZ=              1.9468   YZ=             -0.3762

 Normal termination of Gaussian 16 at Wed May  5 17:49:25 2021.
