 Gaussian 16, Revision A.03,
 Gaussian 16:  EM64L-G16RevA.03 25-Dec-2016

 -------------
 #p 6-31g* mp2
 -------------

 ------------------------------------------------------
 Input file generated by CHIRIPA (05-May-2021 14:53:18)
 ------------------------------------------------------
 Symbolic Z-matrix:
 Charge =  0 Multiplicity = 1

                         Standard orientation:
 ---------------------------------------------------------------------
 Center     Atomic      Atomic             Coordinates (Angstroms)
 Number     Number       Type             X           Y           Z
 ---------------------------------------------------------------------
      1          6           0        2.866243    0.456974   -0.437991
      2          6           0        2.705676    1.964087   -0.640018
      3          6           0        1.246457    2.384502   -0.818133
      4          1           0        2.433838   -0.070145   -1.299452
      5          1           0        2.284684    0.147967    0.441611
      6          1           0        3.288478    2.270386   -1.518163
      7          1           0        3.138684    2.487686    0.221935
      8          1           0        0.655580    2.107034    0.060774
      9          1           0        0.806225    1.888499   -1.689212
     10          1           0        1.154751    3.465717   -0.961047
     11          6           0        4.319387    0.021224   -0.258483
     12          6           0        4.479953   -1.485888   -0.056456
     13          6           0        5.939172   -1.906303    0.121659
     14          1           0        4.900945    0.330231   -1.138085
     15          1           0        4.751791    0.548344    0.602978
     16          1           0        4.046945   -2.009487   -0.918409
     17          1           0        3.897151   -1.792187    0.821689
     18          1           0        6.379404   -1.410300    0.992738
     19          1           0        6.530049   -1.628835   -0.757248
     20          1           0        6.030879   -2.987518    0.264573
     21          6           0       -1.426874    0.868178    2.101956
     22          6           0       -1.706544   -0.501872    2.137565
     23          6           0       -2.470166   -1.097093    1.129031
     24          6           0       -2.940301   -0.288787    0.095153
     25          6           0       -2.678609    1.078976    0.031677
     26          6           0       -1.912943    1.652847    1.050979
     27          1           0       -0.832880    1.322267    2.889591
     28          1           0       -1.330365   -1.113709    2.952543
     29          1           0       -2.701633   -2.155315    1.131893
     30          1           0       -3.067390    1.663039   -0.793635
     31          1           0       -1.697315    2.717100    1.020735
     32          7           0       -3.749795   -0.907620   -0.978237
     33          8           0       -4.152346   -0.173679   -1.878193
     34          8           0       -3.966400   -2.114883   -0.899279
 ---------------------------------------------------------------------

 SCF Done:  E(RHF) =  -669.534801134     A.U. after   15 cycles
 E2 =    -0.2092387387D+01 EUMP2 =    -0.67162718852141D+03

 The electronic state is 1-A.
 Alpha  occ. eigenvalues --  -20.60787 -20.60781 -15.85839 -11.31225 -11.27776
 Alpha  occ. eigenvalues --  -11.27761 -11.27535 -11.26823 -11.26788 -11.21980
 Alpha  occ. eigenvalues --  -11.21870 -11.21719 -11.21653 -11.21438 -11.21303
 Alpha  occ. eigenvalues --   -1.59861  -1.39414  -1.19397  -1.08805  -1.08741
 Alpha  occ. eigenvalues --   -1.04802  -1.03851  -0.96308  -0.95623  -0.87338
 Alpha  occ. eigenvalues --   -0.86197  -0.82451  -0.79924  -0.78554  -0.77491
 Alpha  occ. eigenvalues --   -0.72058  -0.71183  -0.70502  -0.65395  -0.65049
 Alpha  occ. eigenvalues --   -0.64809  -0.62154  -0.61253  -0.59677  -0.57924
 Alpha  occ. eigenvalues --   -0.55635  -0.55300  -0.53316  -0.53024  -0.52877
 Alpha  occ. eigenvalues --   -0.52554  -0.50233  -0.48818  -0.48811  -0.48223
 Alpha  occ. eigenvalues --   -0.46953  -0.46094  -0.46024  -0.44814  -0.44112
 Alpha  occ. eigenvalues --   -0.37346  -0.36333
 Alpha virt. eigenvalues --    0.05016   0.11162   0.16475   0.21097   0.22615
 Alpha virt. eigenvalues --    0.24052   0.26321   0.26663   0.27202   0.28173
 Alpha virt. eigenvalues --    0.28433   0.30650   0.31222   0.31705   0.31782

 Mulliken charges:
               1
     1  C   -0.297928
     2  C   -0.299214
     3  C   -0.482146
     4  H    0.152827
     5  H    0.146647
     6  H    0.153841
     7  H    0.149160
     8  H    0.155620
     9  H    0.158977
    10  H    0.156580
    11  C   -0.298503
    12  C   -0.299514
    13  C   -0.475836
    14  H    0.150946
    15  H    0.148220
    16  H    0.154002
    17  H    0.149697
    18  H    0.154475
    19  H    0.156238
    20  H    0.160993
    21  C   -0.172329
    22  C   -0.217897
    23  C   -0.170969
    24  C    0.158701
    25  C   -0.170617
    26  C   -0.216713
    27  H    0.225756
    28  H    0.223565
    29  H    0.275727
    30  H    0.276099
    31  H    0.226070
    32  N    0.487995
    33  O   -0.460171
    34  O   -0.460299
 Sum of Mulliken charges =  -0.00000

 Dipole moment (field-independent basis, Debye):
    X=              2.8237    Y=              2.1292    Z=              3.7465  Tot=              5.1520
 Quadrupole moment (field-independent basis, Debye-Ang):
   XX=           -113.2512   YY=            -92.5754   ZZ=            -92.5300
   XY=             -7.4843   XZ=            -11.0594   YZ=             -2.9453

 Normal termination of Gaussian 16 at Thu May  6 09:11:20 2021.
