 Gaussian 16, Revision A.03,
 Gaussian 16:  EM64L-G16RevA.03 25-Dec-2016

 -------------
 #p 6-31g* mp2
 -------------

 ------------------------------------------------------
 Input file generated by CHIRIPA (05-May-2021 14:55:22)
 ------------------------------------------------------
 Symbolic Z-matrix:
 Charge =  0 Multiplicity = 1

                         Standard orientation:
 ---------------------------------------------------------------------
 Center     Atomic      Atomic             Coordinates (Angstroms)
 Number     Number       Type             X           Y           Z
 ---------------------------------------------------------------------
      1          6           0       -3.851587   -2.203737    0.454831
      2          6           0       -4.571968   -1.010759    0.334935
      3          6           0       -3.918159    0.185302    0.024261
      4          6           0       -2.536880    0.151865   -0.160776
      5          6           0       -1.791335   -1.020639   -0.048132
      6          6           0       -2.466012   -2.204868    0.263253
      7          1           0       -4.367587   -3.128271    0.696447
      8          1           0       -5.648098   -1.006893    0.483178
      9          1           0       -4.451315    1.123063   -0.074569
     10          1           0       -0.719373   -0.993003   -0.201597
     11          1           0       -1.903983   -3.129862    0.355735
     12          7           0       -1.833675    1.411818   -0.490050
     13          8           0       -0.616110    1.355774   -0.648264
     14          8           0       -2.513384    2.431556   -0.583685
     15          6           0        3.042848    0.583154    0.580347
     16          6           0        2.992799    1.983904   -0.030701
     17          6           0        2.284110    2.996523    0.869384
     18          1           0        2.018538    0.241730    0.783237
     19          1           0        3.554049    0.632505    1.551755
     20          1           0        2.483067    1.931692   -1.001301
     21          1           0        4.017338    2.321955   -0.232336
     22          1           0        2.794983    3.078108    1.834244
     23          1           0        1.251994    2.685627    1.060910
     24          1           0        2.259740    3.991107    0.413238
     25          6           0        3.748260   -0.440329   -0.307687
     26          6           0        3.798308   -1.841079    0.303362
     27          6           0        4.506998   -2.853699   -0.596724
     28          1           0        3.237058   -0.489680   -1.279094
     29          1           0        4.772570   -0.098905   -0.510576
     30          1           0        2.773769   -2.179130    0.504997
     31          1           0        4.308040   -1.788867    1.273962
     32          1           0        5.539113   -2.542802   -0.788249
     33          1           0        3.996125   -2.935283   -1.561583
     34          1           0        4.531367   -3.848282   -0.140577
 ---------------------------------------------------------------------

 SCF Done:  E(RHF) =  -669.536275838     A.U. after   15 cycles
 E2 =    -0.2092051691D+01 EUMP2 =    -0.67162832752954D+03

 The electronic state is 1-A.
 Alpha  occ. eigenvalues --  -20.61048 -20.61042 -15.86069 -11.31352 -11.27914
 Alpha  occ. eigenvalues --  -11.27905 -11.27638 -11.26908 -11.26898 -11.21427
 Alpha  occ. eigenvalues --  -11.20970 -11.20868 -11.20555 -11.20343 -11.19587
 Alpha  occ. eigenvalues --   -1.60101  -1.39660  -1.19516  -1.08927  -1.07760
 Alpha  occ. eigenvalues --   -1.04906  -1.02766  -0.95777  -0.95227  -0.86310
 Alpha  occ. eigenvalues --   -0.86256  -0.82612  -0.78936  -0.77680  -0.77471
 Alpha  occ. eigenvalues --   -0.72306  -0.71412  -0.70625  -0.65182  -0.64910
 Alpha  occ. eigenvalues --   -0.64372  -0.62255  -0.60121  -0.58705  -0.56822
 Alpha  occ. eigenvalues --   -0.55411  -0.54507  -0.53238  -0.52996  -0.51949
 Alpha  occ. eigenvalues --   -0.51661  -0.49335  -0.49041  -0.48893  -0.47223
 Alpha  occ. eigenvalues --   -0.46005  -0.45266  -0.44982  -0.44672  -0.43044
 Alpha  occ. eigenvalues --   -0.37490  -0.36505
 Alpha virt. eigenvalues --    0.04817   0.11142   0.16304   0.20277   0.22881
 Alpha virt. eigenvalues --    0.25035   0.25760   0.27479   0.27918   0.28790
 Alpha virt. eigenvalues --    0.29266   0.31186   0.32090   0.32201   0.32776

 Mulliken charges:
               1
     1  C   -0.170337
     2  C   -0.218619
     3  C   -0.170395
     4  C    0.157517
     5  C   -0.172159
     6  C   -0.218876
     7  H    0.226308
     8  H    0.224061
     9  H    0.275991
    10  H    0.277438
    11  H    0.224394
    12  N    0.490866
    13  O   -0.463266
    14  O   -0.457658
    15  C   -0.299332
    16  C   -0.297082
    17  C   -0.477545
    18  H    0.151267
    19  H    0.144853
    20  H    0.164059
    21  H    0.144245
    22  H    0.144166
    23  H    0.170713
    24  H    0.158621
    25  C   -0.298754
    26  C   -0.296973
    27  C   -0.475227
    28  H    0.150277
    29  H    0.149130
    30  H    0.142344
    31  H    0.152099
    32  H    0.156589
    33  H    0.153945
    34  H    0.157339
 Sum of Mulliken charges =  -0.00000

 Dipole moment (field-independent basis, Debye):
    X=             -2.7912    Y=             -4.3426    Z=              1.0566  Tot=              5.2692
 Quadrupole moment (field-independent basis, Debye-Ang):
   XX=            -78.5185   YY=            -96.2629   ZZ=            -96.2887
   XY=              9.2053   XZ=             -2.4553   YZ=              0.3354

 Normal termination of Gaussian 16 at Thu May  6 17:35:30 2021.
