 Gaussian 16, Revision A.03,
 Gaussian 16:  EM64L-G16RevA.03 25-Dec-2016

 -------------
 #p 6-31g* mp2
 -------------

 ------------------------------------------------------
 Input file generated by CHIRIPA (05-May-2021 14:51:09)
 ------------------------------------------------------
 Symbolic Z-matrix:
 Charge =  0 Multiplicity = 1

                         Standard orientation:
 ---------------------------------------------------------------------
 Center     Atomic      Atomic             Coordinates (Angstroms)
 Number     Number       Type             X           Y           Z
 ---------------------------------------------------------------------
      1          6           0       -3.661253    0.394225    0.551052
      2          6           0       -2.229991    0.466696    0.017929
      3          6           0       -1.310185    1.305370    0.905835
      4          1           0       -4.064306    1.412278    0.640835
      5          1           0       -3.646202   -0.026624    1.565968
      6          1           0       -2.247871    0.885998   -0.996212
      7          1           0       -1.830365   -0.551658   -0.070777
      8          1           0       -1.262616    0.886028    1.916028
      9          1           0       -1.682494    2.331853    0.985335
     10          1           0       -0.292029    1.343772    0.506156
     11          6           0       -4.592784   -0.440726   -0.325780
     12          6           0       -6.024047   -0.513197    0.207343
     13          6           0       -6.943852   -1.351871   -0.680563
     14          1           0       -4.607836   -0.019877   -1.340696
     15          1           0       -4.189731   -1.458779   -0.415563
     16          1           0       -6.423672    0.505158    0.296049
     17          1           0       -6.006166   -0.932499    1.221485
     18          1           0       -6.571543   -2.378354   -0.760062
     19          1           0       -6.991422   -0.932528   -1.690756
     20          1           0       -7.962008   -1.390273   -0.280884
     21          6           0        4.200814   -0.645583    0.248817
     22          6           0        5.242429   -1.566803   -0.387088
     23          6           0        5.378579   -2.900966    0.347257
     24          1           0        4.473728   -0.462562    1.297133
     25          1           0        3.228819   -1.157833    0.263730
     26          1           0        6.211872   -1.052434   -0.402055
     27          1           0        4.967107   -1.747497   -1.434066
     28          1           0        4.424593   -3.438091    0.350380
     29          1           0        5.676431   -2.739078    1.388255
     30          1           0        6.128406   -3.543971   -0.124085
     31          6           0        4.053224    0.692084   -0.474089
     32          6           0        3.011608    1.613304    0.161816
     33          6           0        2.875459    2.947467   -0.572530
     34          1           0        5.025218    1.204334   -0.489002
     35          1           0        3.780310    0.509062   -1.522405
     36          1           0        3.286931    1.793998    1.208794
     37          1           0        2.042166    1.098935    0.176783
     38          1           0        2.577608    2.785579   -1.613528
     39          1           0        3.829445    3.484591   -0.575653
     40          1           0        2.125631    3.590472   -0.101187
 ---------------------------------------------------------------------

 SCF Done:  E(RHF) =  -470.733315277     A.U. after   11 cycles
 E2 =    -0.1582388298D+01 EUMP2 =    -0.47231570357495D+03

 The electronic state is 1-A.
 Alpha  occ. eigenvalues --  -11.21613 -11.21606 -11.21600 -11.21592 -11.21411
 Alpha  occ. eigenvalues --  -11.21402 -11.21352 -11.21343 -11.21076 -11.21071
 Alpha  occ. eigenvalues --  -11.21066 -11.21050  -1.08440  -1.08426  -1.03551
 Alpha  occ. eigenvalues --   -1.03513  -0.96001  -0.95959  -0.87008  -0.86985
 Alpha  occ. eigenvalues --   -0.79640  -0.79553  -0.78254  -0.78238  -0.65071
 Alpha  occ. eigenvalues --   -0.65063  -0.60965  -0.60928  -0.59481  -0.59225
 Alpha  occ. eigenvalues --   -0.57682  -0.57495  -0.55268  -0.55264  -0.52729
 Alpha  occ. eigenvalues --   -0.52630  -0.52417  -0.52394  -0.49930  -0.49907
 Alpha  occ. eigenvalues --   -0.48004  -0.47832  -0.46635  -0.46609  -0.45800
 Alpha  occ. eigenvalues --   -0.45775  -0.45716  -0.45704  -0.43802  -0.43725
 Alpha virt. eigenvalues --    0.21665   0.23039   0.23494   0.24889   0.26298
 Alpha virt. eigenvalues --    0.26647   0.27062   0.27498   0.27881   0.28683
 Alpha virt. eigenvalues --    0.30435   0.31383   0.31560   0.31783   0.32087

 Mulliken charges:
               1
     1  C   -0.298455
     2  C   -0.298993
     3  C   -0.484142
     4  H    0.149745
     5  H    0.149584
     6  H    0.151819
     7  H    0.151432
     8  H    0.155334
     9  H    0.155209
    10  H    0.168394
    11  C   -0.298234
    12  C   -0.299653
    13  C   -0.475707
    14  H    0.149502
    15  H    0.149559
    16  H    0.151976
    17  H    0.151955
    18  H    0.155158
    19  H    0.155178
    20  H    0.160282
    21  C   -0.298362
    22  C   -0.299658
    23  C   -0.475703
    24  H    0.149750
    25  H    0.149503
    26  H    0.151954
    27  H    0.151938
    28  H    0.155128
    29  H    0.155194
    30  H    0.160251
    31  C   -0.297570
    32  C   -0.306536
    33  C   -0.476163
    34  H    0.149571
    35  H    0.149532
    36  H    0.152420
    37  H    0.157325
    38  H    0.154907
    39  H    0.155346
    40  H    0.161229
 Sum of Mulliken charges =  -0.00000

 Dipole moment (field-independent basis, Debye):
    X=              0.0073    Y=              0.0086    Z=              0.0049  Tot=              0.0123
 Quadrupole moment (field-independent basis, Debye-Ang):
   XX=            -84.8836   YY=            -85.2487   ZZ=            -84.6077
   XY=             -0.1334   XZ=              0.0828   YZ=             -0.0912

 Normal termination of Gaussian 16 at Thu May  6 05:19:56 2021.
