 Gaussian 16, Revision A.03,
 Gaussian 16:  EM64L-G16RevA.03 25-Dec-2016

 -------------
 #p 6-31g* mp2
 -------------

 ------------------------------------------------------
 Input file generated by CHIRIPA (05-May-2021 14:57:26)
 ------------------------------------------------------
 Symbolic Z-matrix:
 Charge =  0 Multiplicity = 1

                         Standard orientation:
 ---------------------------------------------------------------------
 Center     Atomic      Atomic             Coordinates (Angstroms)
 Number     Number       Type             X           Y           Z
 ---------------------------------------------------------------------
      1          6           0       -1.879071   -2.207348    0.666015
      2          6           0       -3.243109   -2.122017    0.963737
      3          6           0       -3.973408   -0.978741    0.625903
      4          6           0       -3.304840    0.065089   -0.011848
      5          6           0       -1.946833    0.010068   -0.321814
      6          6           0       -1.236419   -1.142911    0.025319
      7          1           0       -1.319481   -3.099241    0.932065
      8          1           0       -3.744817   -2.947129    1.461256
      9          1           0       -5.030299   -0.886211    0.844621
     10          1           0       -1.474264    0.848852   -0.818340
     11          1           0       -0.177183   -1.206406   -0.207130
     12          7           0       -4.067448    1.280560   -0.374420
     13          8           0       -3.455173    2.186438   -0.935794
     14          8           0       -5.263017    1.304353   -0.090365
     15          6           0        3.368991    2.383373    1.081588
     16          6           0        3.138255    2.309379   -0.296021
     17          6           0        3.031305    1.069167   -0.932404
     18          6           0        3.160800   -0.082106   -0.157104
     19          6           0        3.390967   -0.041183    1.217174
     20          6           0        3.494388    1.209924    1.832465
     21          1           0        3.450702    3.351031    1.567754
     22          1           0        3.040448    3.219043   -0.881675
     23          1           0        2.852924    0.982945   -1.997376
     24          1           0        3.484025   -0.965388    1.774492
     25          1           0        3.673606    1.264355    2.902495
     26          7           0        3.049443   -1.400830   -0.819650
     27          8           0        3.167279   -2.400407   -0.114244
     28          8           0        2.846436   -1.409900   -2.031814
 ---------------------------------------------------------------------

 SCF Done:  E(RHF) =  -868.338791404     A.U. after   16 cycles
 E2 =    -0.2599217408D+01 EUMP2 =    -0.87093800881225D+03

 The electronic state is 1-A.
 Alpha  occ. eigenvalues --  -20.61679 -20.61657 -20.60670 -20.60660 -15.86715
 Alpha  occ. eigenvalues --  -15.85717 -11.31914 -11.30971 -11.28447 -11.28426
 Alpha  occ. eigenvalues --  -11.28090 -11.27530 -11.27525 -11.27381 -11.27354
 Alpha  occ. eigenvalues --  -11.27179 -11.26506 -11.26467  -1.60771  -1.59745
 Alpha  occ. eigenvalues --   -1.40317  -1.39302  -1.20054  -1.19124  -1.09473
 Alpha  occ. eigenvalues --   -1.08525  -1.05407  -1.04512  -0.96333  -0.95383
 Alpha  occ. eigenvalues --   -0.86810  -0.85907  -0.83153  -0.82224  -0.78240
 Alpha  occ. eigenvalues --   -0.77301  -0.72911  -0.72136  -0.71937  -0.71115
 Alpha  occ. eigenvalues --   -0.71066  -0.70198  -0.65684  -0.65378  -0.64769
 Alpha  occ. eigenvalues --   -0.64500  -0.62746  -0.61867  -0.55877  -0.54967
 Alpha  occ. eigenvalues --   -0.53768  -0.53475  -0.52844  -0.52596  -0.49687
 Alpha  occ. eigenvalues --   -0.49663  -0.48700  -0.48684  -0.45745  -0.44733
 Alpha  occ. eigenvalues --   -0.38014  -0.37078  -0.37006  -0.36116
 Alpha virt. eigenvalues --    0.04242   0.05235   0.10641   0.11547   0.15791
 Alpha virt. eigenvalues --    0.16767   0.20891   0.21527   0.26802   0.26872
 Alpha virt. eigenvalues --    0.27841   0.28638   0.30337   0.31046   0.31943

 Mulliken charges:
               1
     1  C   -0.171749
     2  C   -0.218914
     3  C   -0.171655
     4  C    0.158094
     5  C   -0.171681
     6  C   -0.217010
     7  H    0.231191
     8  H    0.223122
     9  H    0.274495
    10  H    0.272546
    11  H    0.225381
    12  N    0.488306
    13  O   -0.462945
    14  O   -0.460929
    15  C   -0.169353
    16  C   -0.217996
    17  C   -0.174919
    18  C    0.151080
    19  C   -0.172506
    20  C   -0.217818
    21  H    0.229807
    22  H    0.228305
    23  H    0.277508
    24  H    0.275389
    25  H    0.226075
    26  N    0.486202
    27  O   -0.461946
    28  O   -0.458081
 Sum of Mulliken charges =  -0.00000

 Dipole moment (field-independent basis, Debye):
    X=              3.2911    Y=              0.4405    Z=              3.6759  Tot=              4.9535
 Quadrupole moment (field-independent basis, Debye-Ang):
   XX=           -117.5164   YY=           -104.7777   ZZ=           -101.6409
   XY=             31.5097   XZ=              2.1359   YZ=             -3.9182

 Normal termination of Gaussian 16 at Thu May  6 03:36:18 2021.
