 Gaussian 16, Revision A.03,
 Gaussian 16:  EM64L-G16RevA.03 25-Dec-2016

 -------------
 #p 6-31g* mp2
 -------------

 ------------------------------------------------------
 Input file generated by CHIRIPA (05-May-2021 14:57:26)
 ------------------------------------------------------
 Symbolic Z-matrix:
 Charge =  0 Multiplicity = 1

                         Standard orientation:
 ---------------------------------------------------------------------
 Center     Atomic      Atomic             Coordinates (Angstroms)
 Number     Number       Type             X           Y           Z
 ---------------------------------------------------------------------
      1          6           0       -2.893864    2.273658    0.052082
      2          6           0       -2.279627    1.190587    0.689413
      3          6           0       -2.846945   -0.085596    0.625715
      4          6           0       -4.034437   -0.243481   -0.087183
      5          6           0       -4.670399    0.815812   -0.732739
      6          6           0       -4.085189    2.083150   -0.655712
      7          1           0       -2.446209    3.261591    0.106741
      8          1           0       -1.354378    1.335585    1.239807
      9          1           0       -2.392584   -0.941542    1.109791
     10          1           0       -5.592201    0.640159   -1.273890
     11          1           0       -4.564432    2.922446   -1.151648
     12          7           0       -4.644502   -1.589836   -0.161673
     13          8           0       -5.691133   -1.702667   -0.796077
     14          8           0       -4.064487   -2.506785    0.415757
     15          6           0        1.977589    0.961908    1.361217
     16          6           0        2.288642    1.464825    0.093605
     17          6           0        3.370304    0.951374   -0.628146
     18          6           0        4.123019   -0.069322   -0.049449
     19          6           0        3.838299   -0.591359    1.211384
     20          6           0        2.752044   -0.062772    1.915085
     21          1           0        1.135545    1.366649    1.914880
     22          1           0        1.688937    2.260585   -0.339021
     23          1           0        3.633337    1.322211   -1.611361
     24          1           0        4.454528   -1.384826    1.616465
     25          1           0        2.512806   -0.455283    2.899334
     26          7           0        5.270557   -0.620902   -0.803981
     27          8           0        5.918154   -1.519956   -0.272044
     28          8           0        5.500671   -0.143731   -1.913031
 ---------------------------------------------------------------------

 SCF Done:  E(RHF) =  -868.336306862     A.U. after   16 cycles
 E2 =    -0.2599839221D+01 EUMP2 =    -0.87093614608322D+03

 The electronic state is 1-A.
 Alpha  occ. eigenvalues --  -20.61242 -20.61235 -20.61159 -20.61152 -15.86302
 Alpha  occ. eigenvalues --  -15.86216 -11.31804 -11.31742 -11.28442 -11.28371
 Alpha  occ. eigenvalues --  -11.28319 -11.28291 -11.28232 -11.28229 -11.27575
 Alpha  occ. eigenvalues --  -11.27457 -11.27411 -11.27395  -1.60313  -1.60229
 Alpha  occ. eigenvalues --   -1.39863  -1.39778  -1.20010  -1.19937  -1.09392
 Alpha  occ. eigenvalues --   -1.09335  -1.05443  -1.05354  -0.96192  -0.96140
 Alpha  occ. eigenvalues --   -0.86852  -0.86760  -0.83041  -0.82945  -0.78048
 Alpha  occ. eigenvalues --   -0.77946  -0.72518  -0.72434  -0.71638  -0.71551
 Alpha  occ. eigenvalues --   -0.71163  -0.71119  -0.65673  -0.65619  -0.65521
 Alpha  occ. eigenvalues --   -0.65328  -0.62801  -0.62686  -0.56076  -0.55878
 Alpha  occ. eigenvalues --   -0.53763  -0.53698  -0.53508  -0.53460  -0.49289
 Alpha  occ. eigenvalues --   -0.49262  -0.49206  -0.49176  -0.45238  -0.45147
 Alpha  occ. eigenvalues --   -0.38035  -0.37952  -0.37041  -0.36929
 Alpha virt. eigenvalues --    0.04496   0.04566   0.10523   0.10762   0.15828
 Alpha virt. eigenvalues --    0.15993   0.18158   0.21953   0.24743   0.26520
 Alpha virt. eigenvalues --    0.27703   0.28747   0.29698   0.31572   0.31975

 Mulliken charges:
               1
     1  C   -0.172286
     2  C   -0.219214
     3  C   -0.170329
     4  C    0.159196
     5  C   -0.169675
     6  C   -0.218087
     7  H    0.223806
     8  H    0.215024
     9  H    0.276440
    10  H    0.277989
    11  H    0.225573
    12  N    0.488102
    13  O   -0.458391
    14  O   -0.459270
    15  C   -0.175104
    16  C   -0.216527
    17  C   -0.169930
    18  C    0.159906
    19  C   -0.169758
    20  C   -0.217728
    21  H    0.218112
    22  H    0.220100
    23  H    0.277403
    24  H    0.278322
    25  H    0.225454
    26  N    0.487947
    27  O   -0.458148
    28  O   -0.458927
 Sum of Mulliken charges =  -0.00000

 Dipole moment (field-independent basis, Debye):
    X=             -1.8651    Y=              6.5396    Z=              2.7960  Tot=              7.3528
 Quadrupole moment (field-independent basis, Debye-Ang):
   XX=           -151.8001   YY=           -105.8108   ZZ=           -101.6562
   XY=            -13.9021   XZ=             13.3775   YZ=             -4.9871

 Normal termination of Gaussian 16 at Fri May  7 12:41:41 2021.
