 Gaussian 16, Revision A.03,
 Gaussian 16:  EM64L-G16RevA.03 25-Dec-2016

 -------------
 #p 6-31g* mp2
 -------------

 ------------------------------------------------------
 Input file generated by CHIRIPA (05-May-2021 14:55:22)
 ------------------------------------------------------
 Symbolic Z-matrix:
 Charge =  0 Multiplicity = 1

                         Standard orientation:
 ---------------------------------------------------------------------
 Center     Atomic      Atomic             Coordinates (Angstroms)
 Number     Number       Type             X           Y           Z
 ---------------------------------------------------------------------
      1          6           0       -3.093660   -2.601020    0.419211
      2          6           0       -2.701672   -1.763722    1.468877
      3          6           0       -2.410210   -0.417069    1.231974
      4          6           0       -2.521631    0.061138   -0.072707
      5          6           0       -2.909661   -0.747958   -1.139518
      6          6           0       -3.196222   -2.091364   -0.879347
      7          1           0       -3.318171   -3.645872    0.612280
      8          1           0       -2.621166   -2.156792    2.478362
      9          1           0       -2.104524    0.253309    2.026058
     10          1           0       -2.980911   -0.327302   -2.135204
     11          1           0       -3.500412   -2.739297   -1.696474
     12          7           0       -2.215667    1.485061   -0.335821
     13          8           0       -2.321429    1.882028   -1.494212
     14          8           0       -1.875884    2.177204    0.621322
     15          6           0        3.245426    0.983666    0.073726
     16          6           0        1.827911    1.492159    0.338432
     17          6           0        1.750451    3.017592    0.408051
     18          1           0        3.913439    1.350417    0.865052
     19          1           0        3.611726    1.413726   -0.868754
     20          1           0        1.463873    1.060175    1.279433
     21          1           0        1.163157    1.123995   -0.453511
     22          1           0        2.088143    3.463818   -0.532932
     23          1           0        2.390566    3.399635    1.209859
     24          1           0        0.728234    3.359415    0.598023
     25          6           0        3.339041   -0.539401    0.001391
     26          6           0        4.756557   -1.047893   -0.263316
     27          6           0        4.834016   -2.573326   -0.332935
     28          1           0        2.972742   -0.969461    0.943870
     29          1           0        2.671028   -0.906152   -0.789935
     30          1           0        5.421310   -0.679729    0.528628
     31          1           0        5.120595   -0.615910   -1.204316
     32          1           0        4.193901   -2.955369   -1.134743
     33          1           0        4.496325   -3.019552    0.608048
     34          1           0        5.856233   -2.915150   -0.522907
 ---------------------------------------------------------------------

 SCF Done:  E(RHF) =  -669.536420468     A.U. after   15 cycles
 E2 =    -0.2091853121D+01 EUMP2 =    -0.67162827358844D+03

 The electronic state is 1-A.
 Alpha  occ. eigenvalues --  -20.60957 -20.60940 -15.85970 -11.31269 -11.27830
 Alpha  occ. eigenvalues --  -11.27825 -11.27564 -11.26833 -11.26823 -11.21395
 Alpha  occ. eigenvalues --  -11.21085 -11.20985 -11.20875 -11.20815 -11.19794
 Alpha  occ. eigenvalues --   -1.60001  -1.39559  -1.19433  -1.08843  -1.07980
 Alpha  occ. eigenvalues --   -1.04828  -1.02979  -0.95694  -0.95401  -0.86428
 Alpha  occ. eigenvalues --   -0.86228  -0.82526  -0.79093  -0.77779  -0.77577
 Alpha  occ. eigenvalues --   -0.72199  -0.71310  -0.70545  -0.65092  -0.64834
 Alpha  occ. eigenvalues --   -0.64622  -0.62177  -0.60393  -0.58817  -0.56980
 Alpha  occ. eigenvalues --   -0.55334  -0.54723  -0.53159  -0.52922  -0.52048
 Alpha  occ. eigenvalues --   -0.51834  -0.49388  -0.48959  -0.48938  -0.47369
 Alpha  occ. eigenvalues --   -0.46161  -0.45318  -0.45236  -0.44933  -0.43207
 Alpha  occ. eigenvalues --   -0.37406  -0.36425
 Alpha virt. eigenvalues --    0.04921   0.11217   0.16400   0.21315   0.23235
 Alpha virt. eigenvalues --    0.24838   0.26888   0.27262   0.27641   0.28304
 Alpha virt. eigenvalues --    0.28738   0.30840   0.31653   0.31979   0.32540

 Mulliken charges:
               1
     1  C   -0.170401
     2  C   -0.218522
     3  C   -0.169894
     4  C    0.158288
     5  C   -0.171000
     6  C   -0.218571
     7  H    0.225956
     8  H    0.223718
     9  H    0.275803
    10  H    0.275653
    11  H    0.223698
    12  N    0.489647
    13  O   -0.459162
    14  O   -0.459937
    15  C   -0.297876
    16  C   -0.295796
    17  C   -0.484788
    18  H    0.148266
    19  H    0.149742
    20  H    0.146479
    21  H    0.148047
    22  H    0.152227
    23  H    0.147649
    24  H    0.187315
    25  C   -0.297154
    26  C   -0.299140
    27  C   -0.475165
    28  H    0.146102
    29  H    0.147951
    30  H    0.151738
    31  H    0.152396
    32  H    0.153812
    33  H    0.153272
    34  H    0.159645
 Sum of Mulliken charges =  -0.00000

 Dipole moment (field-independent basis, Debye):
    X=             -1.3157    Y=             -4.9211    Z=              0.9157  Tot=              5.1756
 Quadrupole moment (field-independent basis, Debye-Ang):
   XX=            -90.5241   YY=            -96.8627   ZZ=            -89.2297
   XY=             13.1884   XZ=             -1.0148   YZ=              1.0174

 Normal termination of Gaussian 16 at Wed May  5 23:51:06 2021.
