 Gaussian 16, Revision A.03,
 Gaussian 16:  EM64L-G16RevA.03 25-Dec-2016

 -------------
 #p 6-31g* mp2
 -------------

 ------------------------------------------------------
 Input file generated by CHIRIPA (05-May-2021 14:57:22)
 ------------------------------------------------------
 Symbolic Z-matrix:
 Charge =  0 Multiplicity = 1

                         Standard orientation:
 ---------------------------------------------------------------------
 Center     Atomic      Atomic             Coordinates (Angstroms)
 Number     Number       Type             X           Y           Z
 ---------------------------------------------------------------------
      1          6           0       -5.923905    1.124960    0.079949
      2          6           0       -4.917031    1.315102    1.032090
      3          6           0       -3.763744    0.525085    1.013326
      4          6           0       -3.649719   -0.450231    0.023857
      5          6           0       -4.635391   -0.663853   -0.938487
      6          6           0       -5.780125    0.137829   -0.900572
      7          1           0       -6.816483    1.743195    0.101965
      8          1           0       -5.025989    2.080963    1.794736
      9          1           0       -2.968813    0.650952    1.738350
     10          1           0       -4.498292   -1.435281   -1.686500
     11          1           0       -6.560457   -0.012074   -1.641284
     12          7           0       -2.433314   -1.292761   -0.006145
     13          8           0       -2.356905   -2.145279   -0.888194
     14          8           0       -1.579337   -1.084665    0.852957
     15          6           0        2.340575    2.314618   -0.300767
     16          6           0        3.707312    2.425435   -0.576938
     17          6           0        4.553164    1.322071   -0.429731
     18          6           0        3.996142    0.117705   -0.002510
     19          6           0        2.638561   -0.024330    0.280488
     20          6           0        1.811494    1.092244    0.126312
     21          1           0        1.690794    3.176869   -0.417828
     22          1           0        4.120968    3.373497   -0.908772
     23          1           0        5.614892    1.379956   -0.636615
     24          1           0        2.255334   -0.982576    0.609607
     25          1           0        0.750451    1.003258    0.341515
     26          7           0        4.881664   -1.057370    0.157021
     27          8           0        4.366338   -2.107298    0.534813
     28          8           0        6.074296   -0.906215   -0.098751
 ---------------------------------------------------------------------

 SCF Done:  E(RHF) =  -868.339317642     A.U. after   16 cycles
 E2 =    -0.2598643960D+01 EUMP2 =    -0.87093796160242D+03

 The electronic state is 1-A.
 Alpha  occ. eigenvalues --  -20.61668 -20.61594 -20.60013 -20.59988 -15.86656
 Alpha  occ. eigenvalues --  -15.85051 -11.31867 -11.30353 -11.28441 -11.28384
 Alpha  occ. eigenvalues --  -11.28110 -11.27400 -11.27363 -11.26987 -11.26783
 Alpha  occ. eigenvalues --  -11.26724 -11.26032 -11.25806  -1.60687  -1.59081
 Alpha  occ. eigenvalues --   -1.40248  -1.38633  -1.20021  -1.18531  -1.09441
 Alpha  occ. eigenvalues --   -1.07961  -1.05399  -1.03897  -0.96302  -0.94797
 Alpha  occ. eigenvalues --   -0.86803  -0.85320  -0.83139  -0.81605  -0.78211
 Alpha  occ. eigenvalues --   -0.76644  -0.72876  -0.71995  -0.71273  -0.71120
 Alpha  occ. eigenvalues --   -0.70403  -0.69672  -0.65674  -0.65393  -0.64180
 Alpha  occ. eigenvalues --   -0.63895  -0.62748  -0.61216  -0.55894  -0.54479
 Alpha  occ. eigenvalues --   -0.53738  -0.53484  -0.52275  -0.51975  -0.49649
 Alpha  occ. eigenvalues --   -0.49610  -0.48037  -0.48020  -0.45673  -0.44051
 Alpha  occ. eigenvalues --   -0.37988  -0.36998  -0.36566  -0.35502
 Alpha virt. eigenvalues --    0.04276   0.05852   0.10655   0.12130   0.15774
 Alpha virt. eigenvalues --    0.17340   0.20768   0.22266   0.26641   0.27331
 Alpha virt. eigenvalues --    0.28457   0.29091   0.30366   0.31428   0.32445

 Mulliken charges:
               1
     1  C   -0.170223
     2  C   -0.218457
     3  C   -0.172831
     4  C    0.157839
     5  C   -0.170404
     6  C   -0.218399
     7  H    0.227755
     8  H    0.224697
     9  H    0.273286
    10  H    0.277596
    11  H    0.225886
    12  N    0.488835
    13  O   -0.453087
    14  O   -0.469101
    15  C   -0.171960
    16  C   -0.218958
    17  C   -0.172381
    18  C    0.157760
    19  C   -0.171726
    20  C   -0.223549
    21  H    0.220206
    22  H    0.219393
    23  H    0.272844
    24  H    0.286384
    25  H    0.232798
    26  N    0.487850
    27  O   -0.457884
    28  O   -0.464169
 Sum of Mulliken charges =  -0.00000

 Dipole moment (field-independent basis, Debye):
    X=             -7.8769    Y=              6.9037    Z=             -0.4814  Tot=             10.4852
 Quadrupole moment (field-independent basis, Debye-Ang):
   XX=            -95.4702   YY=           -105.0270   ZZ=           -102.2892
   XY=             10.1557   XZ=             -1.9735   YZ=              1.4605

 Normal termination of Gaussian 16 at Fri May  7 07:54:21 2021.
