 Gaussian 16, Revision A.03,
 Gaussian 16:  EM64L-G16RevA.03 25-Dec-2016

 -------------
 #p 6-31g* mp2
 -------------

 ------------------------------------------------------
 Input file generated by CHIRIPA (05-May-2021 14:57:23)
 ------------------------------------------------------
 Symbolic Z-matrix:
 Charge =  0 Multiplicity = 1

                         Standard orientation:
 ---------------------------------------------------------------------
 Center     Atomic      Atomic             Coordinates (Angstroms)
 Number     Number       Type             X           Y           Z
 ---------------------------------------------------------------------
      1          6           0        2.124310    2.654246   -0.385909
      2          6           0        2.453442    2.298957    0.926327
      3          6           0        2.894149    1.005652    1.222451
      4          6           0        2.994444    0.088704    0.177254
      5          6           0        2.673980    0.412340   -1.140264
      6          6           0        2.235433    1.711466   -1.413205
      7          1           0        1.782797    3.661177   -0.606940
      8          1           0        2.368105    3.029063    1.726144
      9          1           0        3.155533    0.703821    2.229423
     10          1           0        2.769203   -0.337265   -1.916436
     11          1           0        1.980515    1.984581   -2.433239
     12          7           0        3.459857   -1.283541    0.478475
     13          8           0        3.539643   -2.072969   -0.460180
     14          8           0        3.736049   -1.543694    1.647524
     15          6           0       -0.930243   -1.592425   -1.012840
     16          6           0       -0.987815   -0.201966   -1.153661
     17          6           0       -2.084163    0.516176   -0.666997
     18          6           0       -3.109882   -0.191358   -0.042028
     19          6           0       -3.081623   -1.576385    0.113500
     20          6           0       -1.975488   -2.273994   -0.380823
     21          1           0       -0.074772   -2.142319   -1.393866
     22          1           0       -0.177514    0.329984   -1.644058
     23          1           0       -2.154410    1.592905   -0.762585
     24          1           0       -3.904656   -2.078915    0.606955
     25          1           0       -1.933468   -3.353814   -0.270051
     26          7           0       -4.275716    0.558039    0.477236
     27          8           0       -5.166471   -0.088721    1.023947
     28          8           0       -4.276668    1.777987    0.327690
 ---------------------------------------------------------------------

 SCF Done:  E(RHF) =  -868.337216761     A.U. after   16 cycles
 E2 =    -0.2602140477D+01 EUMP2 =    -0.87093935723824D+03

 The electronic state is 1-A.
 Alpha  occ. eigenvalues --  -20.61711 -20.61665 -20.60833 -20.60816 -15.86739
 Alpha  occ. eigenvalues --  -15.85876 -11.32150 -11.31165 -11.28796 -11.28655
 Alpha  occ. eigenvalues --  -11.28428 -11.27778 -11.27740 -11.27681 -11.27639
 Alpha  occ. eigenvalues --  -11.27358 -11.26659 -11.26620  -1.60760  -1.59904
 Alpha  occ. eigenvalues --   -1.40314  -1.39460  -1.20335  -1.19310  -1.09700
 Alpha  occ. eigenvalues --   -1.08711  -1.05764  -1.04698  -0.96530  -0.95564
 Alpha  occ. eigenvalues --   -0.87128  -0.86109  -0.83371  -0.82401  -0.78422
 Alpha  occ. eigenvalues --   -0.77479  -0.72952  -0.72106  -0.72078  -0.71402
 Alpha  occ. eigenvalues --   -0.71226  -0.70391  -0.65983  -0.65727  -0.64955
 Alpha  occ. eigenvalues --   -0.64751  -0.63081  -0.62094  -0.56188  -0.55190
 Alpha  occ. eigenvalues --   -0.54177  -0.53813  -0.53014  -0.52635  -0.49720
 Alpha  occ. eigenvalues --   -0.49704  -0.48860  -0.48843  -0.45709  -0.44884
 Alpha  occ. eigenvalues --   -0.38301  -0.37477  -0.37119  -0.36263
 Alpha virt. eigenvalues --    0.04089   0.05051   0.10158   0.11358   0.15472
 Alpha virt. eigenvalues --    0.16580   0.20019   0.22015   0.25915   0.26905
 Alpha virt. eigenvalues --    0.28008   0.28750   0.29939   0.31295   0.32551

 Mulliken charges:
               1
     1  C   -0.169973
     2  C   -0.216741
     3  C   -0.168094
     4  C    0.163180
     5  C   -0.178039
     6  C   -0.229978
     7  H    0.230655
     8  H    0.229372
     9  H    0.279563
    10  H    0.273895
    11  H    0.225295
    12  N    0.487974
    13  O   -0.464479
    14  O   -0.455038
    15  C   -0.177476
    16  C   -0.216898
    17  C   -0.175091
    18  C    0.158658
    19  C   -0.171771
    20  C   -0.217736
    21  H    0.232334
    22  H    0.222858
    23  H    0.270209
    24  H    0.275644
    25  H    0.226475
    26  N    0.488191
    27  O   -0.459678
    28  O   -0.463311
 Sum of Mulliken charges =  -0.00000

 Dipole moment (field-independent basis, Debye):
    X=              2.7428    Y=              2.2263    Z=             -2.6364  Tot=              4.4080
 Quadrupole moment (field-independent basis, Debye-Ang):
   XX=           -140.6097   YY=            -99.1022   ZZ=           -100.5921
   XY=             24.5826   XZ=              2.2834   YZ=              1.1678

 Normal termination of Gaussian 16 at Thu May  6 19:36:33 2021.
