 Gaussian 16, Revision A.03,
 Gaussian 16:  EM64L-G16RevA.03 25-Dec-2016

 -------------
 #p 6-31g* mp2
 -------------

 ------------------------------------------------------
 Input file generated by CHIRIPA (05-May-2021 14:55:22)
 ------------------------------------------------------
 Symbolic Z-matrix:
 Charge =  0 Multiplicity = 1

                         Standard orientation:
 ---------------------------------------------------------------------
 Center     Atomic      Atomic             Coordinates (Angstroms)
 Number     Number       Type             X           Y           Z
 ---------------------------------------------------------------------
      1          6           0       -1.343477    0.524820    2.050639
      2          6           0       -1.979330    1.477969    1.248317
      3          6           0       -2.880781    1.082801    0.255454
      4          6           0       -3.124042   -0.280005    0.091524
      5          6           0       -2.506301   -1.253633    0.874936
      6          6           0       -1.608524   -0.835540    1.861721
      7          1           0       -0.644635    0.840700    2.819558
      8          1           0       -1.775415    2.535131    1.392787
      9          1           0       -3.386956    1.799535   -0.379760
     10          1           0       -2.729855   -2.300209    0.707245
     11          1           0       -1.116172   -1.577986    2.483338
     12          7           0       -4.076423   -0.710486   -0.956358
     13          8           0       -4.273613   -1.917246   -1.080792
     14          8           0       -4.607675    0.167013   -1.633412
     15          6           0        4.467958    0.006000   -0.595057
     16          6           0        5.094910   -1.051365    0.314282
     17          6           0        6.435078   -1.564983   -0.212917
     18          1           0        4.330404   -0.418027   -1.599161
     19          1           0        5.166798    0.846932   -0.703926
     20          1           0        4.394522   -1.889433    0.422517
     21          1           0        5.230813   -0.624833    1.316388
     22          1           0        7.153404   -0.743834   -0.304154
     23          1           0        6.312363   -2.015620   -1.203103
     24          1           0        6.865510   -2.319914    0.452416
     25          6           0        3.127762    0.529185   -0.081367
     26          6           0        2.500812    1.586550   -0.990705
     27          6           0        1.160643    2.100168   -0.463505
     28          1           0        2.428923   -0.311747    0.027503
     29          1           0        3.265318    0.953212    0.922739
     30          1           0        2.364909    1.160018   -1.992811
     31          1           0        3.201199    2.424618   -1.098940
     32          1           0        1.283359    2.550805    0.526680
     33          1           0        0.442317    1.279020   -0.372269
     34          1           0        0.730211    2.855100   -1.128838
 ---------------------------------------------------------------------

 SCF Done:  E(RHF) =  -669.534827431     A.U. after   15 cycles
 E2 =    -0.2092327540D+01 EUMP2 =    -0.67162715497098D+03

 The electronic state is 1-A.
 Alpha  occ. eigenvalues --  -20.60776 -20.60770 -15.85829 -11.31202 -11.27766
 Alpha  occ. eigenvalues --  -11.27738 -11.27478 -11.26788 -11.26741 -11.21976
 Alpha  occ. eigenvalues --  -11.21968 -11.21831 -11.21724 -11.21475 -11.21364
 Alpha  occ. eigenvalues --   -1.59851  -1.39404  -1.19376  -1.08828  -1.08757
 Alpha  occ. eigenvalues --   -1.04777  -1.03904  -0.96367  -0.95595  -0.87396
 Alpha  occ. eigenvalues --   -0.86159  -0.82425  -0.79982  -0.78642  -0.77473
 Alpha  occ. eigenvalues --   -0.72046  -0.71175  -0.70465  -0.65447  -0.65018
 Alpha  occ. eigenvalues --   -0.64767  -0.62115  -0.61305  -0.59733  -0.57996
 Alpha  occ. eigenvalues --   -0.55687  -0.55260  -0.53423  -0.53045  -0.52848
 Alpha  occ. eigenvalues --   -0.52532  -0.50274  -0.48806  -0.48801  -0.48280
 Alpha  occ. eigenvalues --   -0.46995  -0.46183  -0.46097  -0.44809  -0.44172
 Alpha  occ. eigenvalues --   -0.37298  -0.36333
 Alpha virt. eigenvalues --    0.05047   0.11243   0.16513   0.21019   0.22549
 Alpha virt. eigenvalues --    0.23989   0.26042   0.26738   0.27065   0.27970
 Alpha virt. eigenvalues --    0.28528   0.30792   0.31067   0.31529   0.31676

 Mulliken charges:
               1
     1  C   -0.169973
     2  C   -0.214876
     3  C   -0.172032
     4  C    0.158392
     5  C   -0.171783
     6  C   -0.219174
     7  H    0.226133
     8  H    0.224945
     9  H    0.275736
    10  H    0.275536
    11  H    0.223651
    12  N    0.488096
    13  O   -0.460537
    14  O   -0.460253
    15  C   -0.298475
    16  C   -0.299661
    17  C   -0.475888
    18  H    0.151760
    19  H    0.150316
    20  H    0.151120
    21  H    0.150472
    22  H    0.155763
    23  H    0.156519
    24  H    0.160557
    25  C   -0.298212
    26  C   -0.299769
    27  C   -0.480666
    28  H    0.149048
    29  H    0.145605
    30  H    0.155136
    31  H    0.152012
    32  H    0.144711
    33  H    0.166232
    34  H    0.159557
 Sum of Mulliken charges =  -0.00000

 Dipole moment (field-independent basis, Debye):
    X=              3.3619    Y=              1.4930    Z=              3.6594  Tot=              5.1887
 Quadrupole moment (field-independent basis, Debye-Ang):
   XX=           -117.0900   YY=            -90.9368   ZZ=            -94.1813
   XY=             -5.9729   XZ=            -10.7586   YZ=             -2.0116

 Normal termination of Gaussian 16 at Wed May  5 15:58:45 2021.
