 Gaussian 16, Revision A.03,
 Gaussian 16:  EM64L-G16RevA.03 25-Dec-2016

 -------------
 #p 6-31g* mp2
 -------------

 ------------------------------------------------------
 Input file generated by CHIRIPA (05-May-2021 14:55:24)
 ------------------------------------------------------
 Symbolic Z-matrix:
 Charge =  0 Multiplicity = 1

                         Standard orientation:
 ---------------------------------------------------------------------
 Center     Atomic      Atomic             Coordinates (Angstroms)
 Number     Number       Type             X           Y           Z
 ---------------------------------------------------------------------
      1          6           0       -5.523881   -1.468389    0.341442
      2          6           0       -5.333219   -0.268486    1.034551
      3          6           0       -4.187961    0.503140    0.816546
      4          6           0       -3.249578    0.042820   -0.105860
      5          6           0       -3.410948   -1.148255   -0.811970
      6          6           0       -4.563830   -1.903677   -0.577986
      7          1           0       -6.416506   -2.061513    0.517000
      8          1           0       -6.077130    0.072027    1.749179
      9          1           0       -4.015129    1.435964    1.339409
     10          1           0       -2.651702   -1.461740   -1.518151
     11          1           0       -4.709256   -2.835129   -1.117701
     12          7           0       -2.033109    0.851128   -0.345110
     13          8           0       -1.221317    0.423673   -1.162982
     14          8           0       -1.914466    1.896830    0.289766
     15          6           0        3.765052    0.419541    0.344405
     16          6           0        3.261859    1.588845   -0.502654
     17          6           0        1.958575    2.186084    0.028903
     18          1           0        2.990857   -0.359117    0.379873
     19          1           0        3.912137    0.761395    1.378279
     20          1           0        3.117086    1.245233   -1.534927
     21          1           0        4.037417    2.364727   -0.536267
     22          1           0        2.092724    2.555656    1.050677
     23          1           0        1.167164    1.429800    0.046343
     24          1           0        1.616889    3.020452   -0.591534
     25          6           0        5.067118   -0.188119   -0.174349
     26          6           0        5.570312   -1.357423    0.672711
     27          6           0        6.873595   -1.954662    0.141153
     28          1           0        4.920033   -0.529973   -1.208223
     29          1           0        5.841313    0.590539   -0.209816
     30          1           0        4.794753   -2.133305    0.706323
     31          1           0        5.715084   -1.013811    1.704984
     32          1           0        7.665006   -1.198378    0.123714
     33          1           0        6.739446   -2.324234   -0.880620
     34          1           0        7.215281   -2.789029    0.761589
 ---------------------------------------------------------------------

 SCF Done:  E(RHF) =  -669.536305794     A.U. after   15 cycles
 E2 =    -0.2091329575D+01 EUMP2 =    -0.67162763536819D+03

 The electronic state is 1-A.
 Alpha  occ. eigenvalues --  -20.61010 -20.61000 -15.86019 -11.31334 -11.27892
 Alpha  occ. eigenvalues --  -11.27886 -11.27626 -11.26893 -11.26883 -11.20956
 Alpha  occ. eigenvalues --  -11.20553 -11.20542 -11.20288 -11.20153 -11.19034
 Alpha  occ. eigenvalues --   -1.60053  -1.39608  -1.19497  -1.08903  -1.07432
 Alpha  occ. eigenvalues --   -1.04890  -1.02413  -0.95747  -0.94830  -0.86290
 Alpha  occ. eigenvalues --   -0.85842  -0.82579  -0.78534  -0.77636  -0.77183
 Alpha  occ. eigenvalues --   -0.72223  -0.71368  -0.70604  -0.65150  -0.64893
 Alpha  occ. eigenvalues --   -0.64071  -0.62236  -0.59810  -0.58313  -0.56440
 Alpha  occ. eigenvalues --   -0.55401  -0.54124  -0.53222  -0.52980  -0.51508
 Alpha  occ. eigenvalues --   -0.51280  -0.49261  -0.48982  -0.48504  -0.46798
 Alpha  occ. eigenvalues --   -0.45570  -0.45026  -0.44711  -0.44579  -0.42671
 Alpha  occ. eigenvalues --   -0.37474  -0.36490
 Alpha virt. eigenvalues --    0.04867   0.11166   0.16372   0.21307   0.23783
 Alpha virt. eigenvalues --    0.25520   0.27225   0.27605   0.28188   0.28426
 Alpha virt. eigenvalues --    0.29277   0.30869   0.32412   0.32553   0.32657

 Mulliken charges:
               1
     1  C   -0.170488
     2  C   -0.218605
     3  C   -0.170770
     4  C    0.159657
     5  C   -0.170803
     6  C   -0.218578
     7  H    0.226143
     8  H    0.224001
     9  H    0.276110
    10  H    0.275732
    11  H    0.223930
    12  N    0.487388
    13  O   -0.459891
    14  O   -0.457395
    15  C   -0.297425
    16  C   -0.299831
    17  C   -0.476369
    18  H    0.149889
    19  H    0.146349
    20  H    0.151605
    21  H    0.144957
    22  H    0.144945
    23  H    0.176587
    24  H    0.160098
    25  C   -0.297314
    26  C   -0.298709
    27  C   -0.475075
    28  H    0.148565
    29  H    0.147808
    30  H    0.150451
    31  H    0.150598
    32  H    0.154425
    33  H    0.154277
    34  H    0.157737
 Sum of Mulliken charges =  -0.00000

 Dipole moment (field-independent basis, Debye):
    X=             -4.7307    Y=             -2.8447    Z=              0.8017  Tot=              5.5780
 Quadrupole moment (field-independent basis, Debye-Ang):
   XX=            -68.8935   YY=            -93.2228   ZZ=            -93.0453
   XY=              8.8450   XZ=             -3.2321   YZ=              3.2056

 Normal termination of Gaussian 16 at Thu May  6 19:19:24 2021.
