 Gaussian 16, Revision A.03,
 Gaussian 16:  EM64L-G16RevA.03 25-Dec-2016

 -------------
 #p 6-31g* mp2
 -------------

 ------------------------------------------------------
 Input file generated by CHIRIPA (05-May-2021 14:55:25)
 ------------------------------------------------------
 Symbolic Z-matrix:
 Charge =  0 Multiplicity = 1

                         Standard orientation:
 ---------------------------------------------------------------------
 Center     Atomic      Atomic             Coordinates (Angstroms)
 Number     Number       Type             X           Y           Z
 ---------------------------------------------------------------------
      1          6           0        1.202659   -1.665497    1.461791
      2          6           0        1.034420   -1.557950    0.077359
      3          6           0        1.869648   -0.728628   -0.677073
      4          6           0        2.867348   -0.017991   -0.011581
      5          6           0        3.060078   -0.104016    1.366368
      6          6           0        2.213170   -0.939467    2.100750
      7          1           0        0.549298   -2.312115    2.040064
      8          1           0        0.250485   -2.120617   -0.421536
      9          1           0        1.761558   -0.626727   -1.750083
     10          1           0        3.850408    0.469280    1.835546
     11          1           0        2.346149   -1.021035    3.175789
     12          7           0        3.757750    0.863219   -0.799652
     13          8           0        4.629241    1.478820   -0.189590
     14          8           0        3.567295    0.921624   -2.012480
     15          6           0       -3.171346   -0.355090   -0.562013
     16          6           0       -3.699482   -1.740252   -0.187333
     17          6           0       -3.067820   -2.858183   -1.017411
     18          1           0       -3.360998   -0.173581   -1.628798
     19          1           0       -2.080465   -0.338560   -0.431243
     20          1           0       -4.789209   -1.753742   -0.317449
     21          1           0       -3.508723   -1.918408    0.878728
     22          1           0       -1.981786   -2.873493   -0.879951
     23          1           0       -3.269548   -2.707892   -2.082924
     24          1           0       -3.459644   -3.839763   -0.733095
     25          6           0       -3.793389    0.772947    0.259159
     26          6           0       -3.265253    2.158109   -0.115520
     27          6           0       -3.896914    3.276039    0.714557
     28          1           0       -4.884270    0.756418    0.128389
     29          1           0       -3.603737    0.591438    1.325945
     30          1           0       -3.456012    2.336265   -1.181581
     31          1           0       -2.175526    2.171599    0.014596
     32          1           0       -3.695187    3.125749    1.780071
     33          1           0       -4.982950    3.291350    0.577097
     34          1           0       -3.505091    4.257619    0.430241
 ---------------------------------------------------------------------

 SCF Done:  E(RHF) =  -669.535544339     A.U. after   15 cycles
 E2 =    -0.2091682047D+01 EUMP2 =    -0.67162722638544D+03

 The electronic state is 1-A.
 Alpha  occ. eigenvalues --  -20.60785 -20.60780 -15.85840 -11.31222 -11.27803
 Alpha  occ. eigenvalues --  -11.27798 -11.27550 -11.26813 -11.26800 -11.22375
 Alpha  occ. eigenvalues --  -11.22075 -11.21988 -11.21897 -11.21816 -11.21299
 Alpha  occ. eigenvalues --   -1.59861  -1.39413  -1.19403  -1.08986  -1.08792
 Alpha  occ. eigenvalues --   -1.04809  -1.04095  -0.96555  -0.95623  -0.87575
 Alpha  occ. eigenvalues --   -0.86207  -0.82456  -0.80166  -0.78763  -0.77498
 Alpha  occ. eigenvalues --   -0.72058  -0.71184  -0.70506  -0.65666  -0.65053
 Alpha  occ. eigenvalues --   -0.64801  -0.62201  -0.61454  -0.59932  -0.58146
 Alpha  occ. eigenvalues --   -0.55877  -0.55303  -0.53245  -0.53139  -0.53059
 Alpha  occ. eigenvalues --   -0.52825  -0.50512  -0.48825  -0.48811  -0.48463
 Alpha  occ. eigenvalues --   -0.47191  -0.46305  -0.46205  -0.44815  -0.44327
 Alpha  occ. eigenvalues --   -0.37380  -0.36399
 Alpha virt. eigenvalues --    0.05035   0.11152   0.16461   0.19348   0.22756
 Alpha virt. eigenvalues --    0.23780   0.25343   0.26457   0.27223   0.28244
 Alpha virt. eigenvalues --    0.28667   0.30041   0.31126   0.31540   0.31987

 Mulliken charges:
               1
     1  C   -0.174033
     2  C   -0.225364
     3  C   -0.173602
     4  C    0.158791
     5  C   -0.170767
     6  C   -0.218708
     7  H    0.226067
     8  H    0.235514
     9  H    0.276939
    10  H    0.275814
    11  H    0.223594
    12  N    0.488032
    13  O   -0.460457
    14  O   -0.460088
    15  C   -0.301880
    16  C   -0.299942
    17  C   -0.478767
    18  H    0.151913
    19  H    0.148201
    20  H    0.156103
    21  H    0.149327
    22  H    0.144363
    23  H    0.160398
    24  H    0.163786
    25  C   -0.297997
    26  C   -0.300669
    27  C   -0.476047
    28  H    0.150728
    29  H    0.148485
    30  H    0.153417
    31  H    0.154138
    32  H    0.154601
    33  H    0.155333
    34  H    0.162777
 Sum of Mulliken charges =  -0.00000

 Dipole moment (field-independent basis, Debye):
    X=             -3.2385    Y=             -3.0366    Z=              2.7585  Tot=              5.2266
 Quadrupole moment (field-independent basis, Debye-Ang):
   XX=           -111.2185   YY=            -95.7760   ZZ=            -91.2148
   XY=             -7.9118   XZ=             11.3003   YZ=              0.6486

 Normal termination of Gaussian 16 at Thu May  6 20:57:50 2021.
