 Gaussian 16, Revision A.03,
 Gaussian 16:  EM64L-G16RevA.03 25-Dec-2016

 -------------
 #p 6-31g* mp2
 -------------

 ------------------------------------------------------
 Input file generated by CHIRIPA (05-May-2021 14:51:12)
 ------------------------------------------------------
 Symbolic Z-matrix:
 Charge =  0 Multiplicity = 1

                         Standard orientation:
 ---------------------------------------------------------------------
 Center     Atomic      Atomic             Coordinates (Angstroms)
 Number     Number       Type             X           Y           Z
 ---------------------------------------------------------------------
      1          6           0       -2.379540   -0.758153    0.126288
      2          6           0       -1.838428   -2.188118    0.145838
      3          6           0       -0.332732   -2.246916    0.405104
      4          1           0       -1.850341   -0.183159   -0.645900
      5          1           0       -2.152724   -0.274547    1.086536
      6          1           0       -2.067415   -2.669335   -0.813646
      7          1           0       -2.369111   -2.759826    0.917940
      8          1           0       -0.090025   -1.791609    1.370707
      9          1           0        0.213385   -1.700603   -0.370718
     10          1           0        0.032972   -3.278432    0.414915
     11          6           0       -3.883358   -0.682951   -0.131793
     12          6           0       -4.424471    0.747014   -0.151343
     13          6           0       -5.930166    0.805812   -0.410608
     14          1           0       -4.110174   -1.166557   -1.092040
     15          1           0       -4.412558   -1.257945    0.640396
     16          1           0       -3.893787    1.318722   -0.923444
     17          1           0       -4.195483    1.228231    0.808142
     18          1           0       -6.476283    0.259500    0.365213
     19          1           0       -6.172873    0.350505   -1.376212
     20          1           0       -6.295870    1.837328   -0.420419
     21          6           0        3.829057    0.587116   -0.278262
     22          6           0        4.368263   -0.800425    0.070988
     23          6           0        5.764786   -1.052443   -0.498228
     24          1           0        3.807267    0.700737   -1.370764
     25          1           0        4.523783    1.349071    0.101441
     26          1           0        3.672027   -1.559502   -0.308052
     27          1           0        4.388592   -0.910826    1.162782
     28          1           0        6.477242   -0.317053   -0.110660
     29          1           0        5.756605   -0.969416   -1.589851
     30          1           0        6.130924   -2.050117   -0.236604
     31          6           0        2.433841    0.853988    0.283767
     32          6           0        1.894635    2.241528   -0.065483
     33          6           0        0.498113    2.493547    0.503732
     34          1           0        1.739115    0.092032   -0.095937
     35          1           0        2.455631    0.740367    1.376269
     36          1           0        1.874306    2.351931   -1.157278
     37          1           0        2.590871    3.000606    0.313557
     38          1           0        0.506293    2.410520    1.595355
     39          1           0       -0.214344    1.758157    0.116164
     40          1           0        0.131974    3.491221    0.242108
 ---------------------------------------------------------------------

 SCF Done:  E(RHF) =  -470.732838451     A.U. after   11 cycles
 E2 =    -0.1583828575D+01 EUMP2 =    -0.47231666702693D+03

 The electronic state is 1-A.
 Alpha  occ. eigenvalues --  -11.21639 -11.21602 -11.21534 -11.21518 -11.21439
 Alpha  occ. eigenvalues --  -11.21377 -11.21315 -11.21229 -11.21094 -11.21073
 Alpha  occ. eigenvalues --  -11.21024 -11.20951  -1.08466  -1.08346  -1.03557
 Alpha  occ. eigenvalues --   -1.03450  -0.96021  -0.95887  -0.87047  -0.86896
 Alpha  occ. eigenvalues --   -0.79659  -0.79494  -0.78342  -0.78084  -0.65129
 Alpha  occ. eigenvalues --   -0.64959  -0.60969  -0.60840  -0.59394  -0.59245
 Alpha  occ. eigenvalues --   -0.57733  -0.57427  -0.55378  -0.55123  -0.52709
 Alpha  occ. eigenvalues --   -0.52626  -0.52563  -0.52153  -0.50020  -0.49763
 Alpha  occ. eigenvalues --   -0.48127  -0.47758  -0.46739  -0.46558  -0.46010
 Alpha  occ. eigenvalues --   -0.45763  -0.45644  -0.45169  -0.43810  -0.43702
 Alpha virt. eigenvalues --    0.21113   0.23016   0.23786   0.24660   0.25407
 Alpha virt. eigenvalues --    0.26149   0.26588   0.27206   0.28817   0.29610
 Alpha virt. eigenvalues --    0.30942   0.31581   0.31831   0.31917   0.31976

 Mulliken charges:
               1
     1  C   -0.301844
     2  C   -0.299625
     3  C   -0.479298
     4  H    0.150998
     5  H    0.151896
     6  H    0.151685
     7  H    0.152219
     8  H    0.157299
     9  H    0.157354
    10  H    0.160489
    11  C   -0.297981
    12  C   -0.299898
    13  C   -0.475715
    14  H    0.149379
    15  H    0.149833
    16  H    0.152014
    17  H    0.152586
    18  H    0.155171
    19  H    0.155078
    20  H    0.160420
    21  C   -0.297806
    22  C   -0.299945
    23  C   -0.475629
    24  H    0.148842
    25  H    0.149175
    26  H    0.152564
    27  H    0.151868
    28  H    0.155041
    29  H    0.154902
    30  H    0.160076
    31  C   -0.305536
    32  C   -0.299008
    33  C   -0.481195
    34  H    0.158234
    35  H    0.148846
    36  H    0.150815
    37  H    0.151413
    38  H    0.154202
    39  H    0.161600
    40  H    0.159481
 Sum of Mulliken charges =  -0.00000

 Dipole moment (field-independent basis, Debye):
    X=             -0.0577    Y=             -0.0458    Z=              0.0171  Tot=              0.0757
 Quadrupole moment (field-independent basis, Debye-Ang):
   XX=            -86.8928   YY=            -84.9080   ZZ=            -83.1528
   XY=              0.6478   XZ=              0.3238   YZ=              0.1623

 Normal termination of Gaussian 16 at Wed May  5 23:10:52 2021.
