 Gaussian 16, Revision A.03,
 Gaussian 16:  EM64L-G16RevA.03 25-Dec-2016

 -------------
 #p 6-31g* mp2
 -------------

 ------------------------------------------------------
 Input file generated by CHIRIPA (05-May-2021 14:57:21)
 ------------------------------------------------------
 Symbolic Z-matrix:
 Charge =  0 Multiplicity = 1

                         Standard orientation:
 ---------------------------------------------------------------------
 Center     Atomic      Atomic             Coordinates (Angstroms)
 Number     Number       Type             X           Y           Z
 ---------------------------------------------------------------------
      1          6           0        2.863818   -2.321967   -0.004954
      2          6           0        2.309844   -1.459477    0.946752
      3          6           0        2.650816   -0.103708    0.960080
      4          6           0        3.552973    0.357827    0.002799
      5          6           0        4.121886   -0.476470   -0.958231
      6          6           0        3.766480   -1.828581   -0.952737
      7          1           0        2.593337   -3.373740   -0.007996
      8          1           0        1.608565   -1.839869    1.684014
      9          1           0        2.236925    0.586084    1.685545
     10          1           0        4.818214   -0.068001   -1.680519
     11          1           0        4.198274   -2.496088   -1.693030
     12          7           0        3.921586    1.791182    0.006946
     13          8           0        4.718703    2.173079   -0.847101
     14          8           0        3.406407    2.505608    0.864164
     15          6           0       -1.594507   -1.675796    0.588693
     16          6           0       -2.059553   -1.608062   -0.728753
     17          6           0       -3.110440   -0.750503   -1.067543
     18          6           0       -3.675686    0.028663   -0.059233
     19          6           0       -3.234565   -0.016373    1.262385
     20          6           0       -2.182461   -0.881135    1.578313
     21          1           0       -0.777680   -2.344765    0.842993
     22          1           0       -1.604841   -2.224042   -1.499369
     23          1           0       -3.490065   -0.678259   -2.079512
     24          1           0       -3.707868    0.609920    2.008816
     25          1           0       -1.823354   -0.931661    2.602293
     26          7           0       -4.788857    0.940334   -0.405793
     27          8           0       -5.269934    1.616434    0.500900
     28          8           0       -5.159205    0.961540   -1.577556
 ---------------------------------------------------------------------

 SCF Done:  E(RHF) =  -868.336136911     A.U. after   16 cycles
 E2 =    -0.2600373923D+01 EUMP2 =    -0.87093651083443D+03

 The electronic state is 1-A.
 Alpha  occ. eigenvalues --  -20.61268 -20.61263 -20.61002 -20.60997 -15.86331
 Alpha  occ. eigenvalues --  -15.86061 -11.31879 -11.31559 -11.28515 -11.28452
 Alpha  occ. eigenvalues --  -11.28331 -11.28153 -11.28139 -11.28029 -11.27657
 Alpha  occ. eigenvalues --  -11.27508 -11.27259 -11.27218  -1.60339  -1.60074
 Alpha  occ. eigenvalues --   -1.39888  -1.39624  -1.20091  -1.19762  -1.09469
 Alpha  occ. eigenvalues --   -1.09156  -1.05528  -1.05184  -0.96260  -0.95965
 Alpha  occ. eigenvalues --   -0.86935  -0.86593  -0.83096  -0.82785  -0.78099
 Alpha  occ. eigenvalues --   -0.77789  -0.72547  -0.72280  -0.71664  -0.71397
 Alpha  occ. eigenvalues --   -0.71226  -0.70957  -0.65754  -0.65589  -0.65425
 Alpha  occ. eigenvalues --   -0.65196  -0.62877  -0.62526  -0.56089  -0.55777
 Alpha  occ. eigenvalues --   -0.53847  -0.53636  -0.53458  -0.53294  -0.49320
 Alpha  occ. eigenvalues --   -0.49287  -0.49050  -0.49023  -0.45252  -0.45000
 Alpha  occ. eigenvalues --   -0.38151  -0.37799  -0.37042  -0.36776
 Alpha virt. eigenvalues --    0.04431   0.04758   0.10418   0.10854   0.15778
 Alpha virt. eigenvalues --    0.16294   0.18640   0.21914   0.25199   0.26534
 Alpha virt. eigenvalues --    0.27590   0.28974   0.30140   0.30804   0.32143

 Mulliken charges:
               1
     1  C   -0.173529
     2  C   -0.218980
     3  C   -0.167890
     4  C    0.159139
     5  C   -0.169460
     6  C   -0.218321
     7  H    0.223370
     8  H    0.214516
     9  H    0.277043
    10  H    0.278365
    11  H    0.225513
    12  N    0.488070
    13  O   -0.458135
    14  O   -0.458388
    15  C   -0.168094
    16  C   -0.217386
    17  C   -0.169780
    18  C    0.159424
    19  C   -0.169142
    20  C   -0.220014
    21  H    0.215487
    22  H    0.222682
    23  H    0.277222
    24  H    0.277679
    25  H    0.220377
    26  N    0.488086
    27  O   -0.458761
    28  O   -0.459092
 Sum of Mulliken charges =  -0.00000

 Dipole moment (field-independent basis, Debye):
    X=              2.6678    Y=             -8.0411    Z=              1.0662  Tot=              8.5389
 Quadrupole moment (field-independent basis, Debye-Ang):
   XX=           -141.0987   YY=           -109.6581   ZZ=            -97.6946
   XY=             -7.1160   XZ=             -7.9634   YZ=              2.8484

 Normal termination of Gaussian 16 at Wed May  5 22:31:33 2021.
