 Gaussian 16, Revision A.03,
 Gaussian 16:  EM64L-G16RevA.03 25-Dec-2016

 -------------
 #p 6-31g* mp2
 -------------

 ------------------------------------------------------
 Input file generated by CHIRIPA (05-May-2021 14:51:11)
 ------------------------------------------------------
 Symbolic Z-matrix:
 Charge =  0 Multiplicity = 1

                         Standard orientation:
 ---------------------------------------------------------------------
 Center     Atomic      Atomic             Coordinates (Angstroms)
 Number     Number       Type             X           Y           Z
 ---------------------------------------------------------------------
      1          6           0        2.429586   -1.359922    0.400158
      2          6           0        0.968262   -1.315574    0.847986
      3          6           0        0.447912   -2.679235    1.303462
      4          1           0        2.533871   -2.085692   -0.417966
      5          1           0        3.048548   -1.731590    1.228497
      6          1           0        0.352420   -0.942790    0.019502
      7          1           0        0.867408   -0.589686    1.665012
      8          1           0        1.037490   -3.054703    2.146090
      9          1           0        0.519576   -3.409814    0.491230
     10          1           0       -0.598583   -2.624572    1.619249
     11          6           0        2.964191   -0.004212   -0.058072
     12          6           0        4.425515   -0.048560   -0.505900
     13          6           0        4.945865    1.315101   -0.961376
     14          1           0        2.345229    0.367456   -0.886411
     15          1           0        2.859906    0.721558    0.760053
     16          1           0        4.526368   -0.774448   -1.322925
     17          1           0        5.041357   -0.421343    0.322585
     18          1           0        4.874201    2.045680   -0.149144
     19          1           0        4.356286    1.690569   -1.804004
     20          1           0        5.992359    1.260438   -1.277163
     21          6           0       -3.196319    0.110625   -0.084705
     22          6           0       -3.000229   -1.023372   -1.091474
     23          6           0       -4.006871   -2.159185   -0.906012
     24          1           0       -3.112328   -0.293049    0.933597
     25          1           0       -4.217378    0.504941   -0.181392
     26          1           0       -1.979396   -1.414511   -0.993867
     27          1           0       -3.084507   -0.616918   -2.107499
     28          1           0       -5.030657   -1.789701   -1.024099
     29          1           0       -3.919267   -2.591825    0.095861
     30          1           0       -3.848571   -2.959118   -1.636019
     31          6           0       -2.197457    1.253509   -0.257381
     32          6           0       -2.393548    2.387506    0.749387
     33          6           0       -1.386905    3.523319    0.563926
     34          1           0       -1.176398    0.859193   -0.160695
     35          1           0       -2.281449    1.657183   -1.275683
     36          1           0       -2.309270    1.981052    1.765413
     37          1           0       -3.414381    2.778645    0.651781
     38          1           0       -1.474510    3.955959   -0.437947
     39          1           0       -0.363120    3.153834    0.682012
     40          1           0       -1.545206    4.323252    1.293933
 ---------------------------------------------------------------------

 SCF Done:  E(RHF) =  -470.733005589     A.U. after   11 cycles
 E2 =    -0.1583991308D+01 EUMP2 =    -0.47231699689642D+03

 The electronic state is 1-A.
 Alpha  occ. eigenvalues --  -11.21683 -11.21639 -11.21583 -11.21555 -11.21468
 Alpha  occ. eigenvalues --  -11.21408 -11.21359 -11.21272 -11.21165 -11.21091
 Alpha  occ. eigenvalues --  -11.21062 -11.21030  -1.08508  -1.08383  -1.03599
 Alpha  occ. eigenvalues --   -1.03496  -0.96040  -0.95945  -0.87058  -0.86960
 Alpha  occ. eigenvalues --   -0.79682  -0.79563  -0.78403  -0.78121  -0.65245
 Alpha  occ. eigenvalues --   -0.64939  -0.61058  -0.60839  -0.59405  -0.59312
 Alpha  occ. eigenvalues --   -0.57655  -0.57553  -0.55325  -0.55237  -0.52737
 Alpha  occ. eigenvalues --   -0.52645  -0.52475  -0.52364  -0.49987  -0.49890
 Alpha  occ. eigenvalues --   -0.48044  -0.47879  -0.46837  -0.46596  -0.46152
 Alpha  occ. eigenvalues --   -0.45800  -0.45728  -0.45106  -0.43842  -0.43745
 Alpha virt. eigenvalues --    0.20127   0.22956   0.23512   0.24606   0.25454
 Alpha virt. eigenvalues --    0.26406   0.26991   0.27847   0.28090   0.29670
 Alpha virt. eigenvalues --    0.30687   0.31164   0.31730   0.31878   0.32346

 Mulliken charges:
               1
     1  C   -0.297297
     2  C   -0.309814
     3  C   -0.475801
     4  H    0.149855
     5  H    0.149806
     6  H    0.160727
     7  H    0.151696
     8  H    0.155754
     9  H    0.155562
    10  H    0.160440
    11  C   -0.299087
    12  C   -0.299638
    13  C   -0.475814
    14  H    0.149960
    15  H    0.149392
    16  H    0.152113
    17  H    0.152072
    18  H    0.155290
    19  H    0.155477
    20  H    0.160385
    21  C   -0.297730
    22  C   -0.305244
    23  C   -0.475345
    24  H    0.149338
    25  H    0.149505
    26  H    0.156869
    27  H    0.151641
    28  H    0.155199
    29  H    0.155089
    30  H    0.160121
    31  C   -0.305948
    32  C   -0.298992
    33  C   -0.476011
    34  H    0.157849
    35  H    0.148739
    36  H    0.151612
    37  H    0.151601
    38  H    0.154982
    39  H    0.155714
    40  H    0.159933
 Sum of Mulliken charges =  -0.00000

 Dipole moment (field-independent basis, Debye):
    X=              0.0476    Y=             -0.0224    Z=             -0.0030  Tot=              0.0527
 Quadrupole moment (field-independent basis, Debye-Ang):
   XX=            -85.0398   YY=            -86.2063   ZZ=            -83.5709
   XY=             -1.2863   XZ=              0.8835   YZ=              0.2230

 Normal termination of Gaussian 16 at Wed May  5 16:44:04 2021.
