 Gaussian 16, Revision A.03,
 Gaussian 16:  EM64L-G16RevA.03 25-Dec-2016

 -------------
 #p 6-31g* mp2
 -------------

 ------------------------------------------------------
 Input file generated by CHIRIPA (05-May-2021 14:55:19)
 ------------------------------------------------------
 Symbolic Z-matrix:
 Charge =  0 Multiplicity = 1

                         Standard orientation:
 ---------------------------------------------------------------------
 Center     Atomic      Atomic             Coordinates (Angstroms)
 Number     Number       Type             X           Y           Z
 ---------------------------------------------------------------------
      1          6           0       -1.068849    0.206372    2.621683
      2          6           0       -0.943638   -1.122182    2.202412
      3          6           0       -1.300492   -1.493132    0.902566
      4          6           0       -1.781145   -0.505307    0.044390
      5          6           0       -1.917363    0.826654    0.432480
      6          6           0       -1.554456    1.174842    1.736939
      7          1           0       -0.789285    0.485694    3.633226
      8          1           0       -0.566802   -1.876428    2.887360
      9          1           0       -1.213675   -2.514338    0.551828
     10          1           0       -2.296099    1.556193   -0.273033
     11          1           0       -1.652757    2.207381    2.059808
     12          7           0       -2.162134   -0.885967   -1.334140
     13          8           0       -2.582983    0.003160   -2.071009
     14          8           0       -2.032691   -2.066248   -1.651660
     15          6           0        2.445051   -0.096542   -0.636636
     16          6           0        3.246551   -0.933173    0.361178
     17          6           0        3.730936   -2.256664   -0.231728
     18          1           0        1.582808   -0.680806   -0.986087
     19          1           0        3.066784    0.102321   -1.520546
     20          1           0        2.623966   -1.129228    1.243541
     21          1           0        4.106880   -0.346777    0.708438
     22          1           0        4.373594   -2.077626   -1.099793
     23          1           0        2.882255   -2.864523   -0.561650
     24          1           0        4.301607   -2.838769    0.498578
     25          6           0        1.953933    1.229521   -0.058631
     26          6           0        1.152433    2.066152   -1.056445
     27          6           0        0.668048    3.389643   -0.463540
     28          1           0        1.332200    1.030659    0.825278
     29          1           0        2.816177    1.813785    0.290818
     30          1           0        0.292104    1.479756   -1.403706
     31          1           0        1.775018    2.262207   -1.938809
     32          1           0        1.516730    3.997502   -0.133618
     33          1           0        0.025390    3.210606    0.404525
     34          1           0        0.097376    3.971749   -1.193846
 ---------------------------------------------------------------------

 SCF Done:  E(RHF) =  -669.534111693     A.U. after   15 cycles
 E2 =    -0.2097639958D+01 EUMP2 =    -0.67163175165040D+03

 The electronic state is 1-A.
 Alpha  occ. eigenvalues --  -20.60976 -20.60960 -15.86005 -11.31377 -11.27974
 Alpha  occ. eigenvalues --  -11.27930 -11.27694 -11.26976 -11.26934 -11.21693
 Alpha  occ. eigenvalues --  -11.21565 -11.21343 -11.21323 -11.21271 -11.21124
 Alpha  occ. eigenvalues --   -1.60032  -1.39585  -1.19582  -1.08965  -1.08440
 Alpha  occ. eigenvalues --   -1.04995  -1.03597  -0.96075  -0.95784  -0.87096
 Alpha  occ. eigenvalues --   -0.86370  -0.82621  -0.79666  -0.78246  -0.77669
 Alpha  occ. eigenvalues --   -0.72222  -0.71365  -0.70668  -0.65233  -0.65136
 Alpha  occ. eigenvalues --   -0.64971  -0.62386  -0.61015  -0.59427  -0.57672
 Alpha  occ. eigenvalues --   -0.55514  -0.55326  -0.53245  -0.53076  -0.52776
 Alpha  occ. eigenvalues --   -0.52478  -0.50025  -0.48987  -0.48979  -0.47986
 Alpha  occ. eigenvalues --   -0.46724  -0.45777  -0.45722  -0.44944  -0.43826
 Alpha  occ. eigenvalues --   -0.37464  -0.36480
 Alpha virt. eigenvalues --    0.04847   0.10925   0.16196   0.20653   0.22860
 Alpha virt. eigenvalues --    0.23953   0.26329   0.26414   0.27141   0.27904
 Alpha virt. eigenvalues --    0.29100   0.30022   0.31166   0.31728   0.32181

 Mulliken charges:
               1
     1  C   -0.172376
     2  C   -0.217815
     3  C   -0.171383
     4  C    0.160336
     5  C   -0.168309
     6  C   -0.218976
     7  H    0.227267
     8  H    0.224899
     9  H    0.276509
    10  H    0.278300
    11  H    0.225412
    12  N    0.488198
    13  O   -0.459523
    14  O   -0.459248
    15  C   -0.297954
    16  C   -0.299459
    17  C   -0.476079
    18  H    0.150953
    19  H    0.150926
    20  H    0.146198
    21  H    0.150997
    22  H    0.157382
    23  H    0.156559
    24  H    0.158085
    25  C   -0.304478
    26  C   -0.301565
    27  C   -0.479117
    28  H    0.154147
    29  H    0.146581
    30  H    0.155637
    31  H    0.154998
    32  H    0.155868
    33  H    0.144803
    34  H    0.162229
 Sum of Mulliken charges =  -0.00000

 Dipole moment (field-independent basis, Debye):
    X=              1.1915    Y=              1.2597    Z=              4.8333  Tot=              5.1349
 Quadrupole moment (field-independent basis, Debye-Ang):
   XX=            -99.5077   YY=            -92.7747   ZZ=            -94.5142
   XY=             -3.6700   XZ=             -8.7662   YZ=             -3.8758

 Normal termination of Gaussian 16 at Thu May  6 06:06:13 2021.
