 Gaussian 16, Revision A.03,
 Gaussian 16:  EM64L-G16RevA.03 25-Dec-2016

 -------------
 #p 6-31g* mp2
 -------------

 ------------------------------------------------------
 Input file generated by CHIRIPA (05-May-2021 14:53:17)
 ------------------------------------------------------
 Symbolic Z-matrix:
 Charge =  0 Multiplicity = 1

                         Standard orientation:
 ---------------------------------------------------------------------
 Center     Atomic      Atomic             Coordinates (Angstroms)
 Number     Number       Type             X           Y           Z
 ---------------------------------------------------------------------
      1          6           0        4.408505    0.106724    0.373024
      2          6           0        4.634324   -1.368919    0.042167
      3          6           0        5.809861   -1.973797    0.810301
      4          1           0        5.324213    0.670597    0.148362
      5          1           0        4.234442    0.210691    1.452973
      6          1           0        4.806537   -1.470234   -1.037043
      7          1           0        3.717909   -1.929314    0.267463
      8          1           0        5.642435   -1.902045    1.889847
      9          1           0        6.737248   -1.440357    0.577930
     10          1           0        5.953392   -3.029227    0.558654
     11          6           0        3.236734    0.725563   -0.387054
     12          6           0        3.010916    2.201207   -0.056196
     13          6           0        1.835379    2.806085   -0.824330
     14          1           0        3.410798    0.621597   -1.467002
     15          1           0        2.321027    0.161691   -0.162391
     16          1           0        3.927330    2.761601   -0.281492
     17          1           0        2.838703    2.302522    1.023014
     18          1           0        0.907992    2.272645   -0.591959
     19          1           0        2.002805    2.734333   -1.903877
     20          1           0        1.691847    3.861515   -0.572683
     21          6           0       -5.365788    0.181632    0.674621
     22          6           0       -5.105176   -0.518362   -0.508008
     23          6           0       -3.790763   -0.804684   -0.888649
     24          6           0       -2.756394   -0.374103   -0.059210
     25          6           0       -2.983812    0.325208    1.125077
     26          6           0       -4.306143    0.600443    1.485959
     27          1           0       -6.389931    0.399748    0.962637
     28          1           0       -5.926133   -0.844848   -1.140055
     29          1           0       -3.560563   -1.344928   -1.798903
     30          1           0       -2.144605    0.637695    1.734586
     31          1           0       -4.505557    1.144242    2.404960
     32          7           0       -1.360693   -0.671351   -0.451718
     33          8           0       -0.467003   -0.281058    0.296366
     34          8           0       -1.186859   -1.288999   -1.500016
 ---------------------------------------------------------------------

 SCF Done:  E(RHF) =  -669.536754386     A.U. after   15 cycles
 E2 =    -0.2091661677D+01 EUMP2 =    -0.67162841606276D+03

 The electronic state is 1-A.
 Alpha  occ. eigenvalues --  -20.61144 -20.61130 -15.86140 -11.31390 -11.27942
 Alpha  occ. eigenvalues --  -11.27938 -11.27667 -11.26933 -11.26923 -11.20449
 Alpha  occ. eigenvalues --  -11.20352 -11.20174 -11.20144 -11.19845 -11.19687
 Alpha  occ. eigenvalues --   -1.60177  -1.39738  -1.19549  -1.08968  -1.07113
 Alpha  occ. eigenvalues --   -1.04934  -1.02343  -0.95821  -0.94791  -0.86338
 Alpha  occ. eigenvalues --   -0.85816  -0.82660  -0.78417  -0.77722  -0.76882
 Alpha  occ. eigenvalues --   -0.72366  -0.71476  -0.70658  -0.65209  -0.64937
 Alpha  occ. eigenvalues --   -0.63732  -0.62282  -0.59743  -0.58171  -0.56405
 Alpha  occ. eigenvalues --   -0.55443  -0.54074  -0.53268  -0.53025  -0.51557
 Alpha  occ. eigenvalues --   -0.51223  -0.49196  -0.49116  -0.48696  -0.46741
 Alpha  occ. eigenvalues --   -0.45504  -0.45108  -0.44461  -0.44169  -0.42553
 Alpha  occ. eigenvalues --   -0.37523  -0.36531
 Alpha virt. eigenvalues --    0.04778   0.11125   0.16266   0.21241   0.24160
 Alpha virt. eigenvalues --    0.25442   0.27182   0.27815   0.28206   0.28948
 Alpha virt. eigenvalues --    0.29172   0.30817   0.32142   0.32653   0.32862

 Mulliken charges:
               1
     1  C   -0.296839
     2  C   -0.299589
     3  C   -0.474938
     4  H    0.143695
     5  H    0.146125
     6  H    0.150627
     7  H    0.157826
     8  H    0.152930
     9  H    0.152309
    10  H    0.157540
    11  C   -0.312291
    12  C   -0.295736
    13  C   -0.479758
    14  H    0.145067
    15  H    0.182839
    16  H    0.145283
    17  H    0.147599
    18  H    0.165605
    19  H    0.152426
    20  H    0.151102
    21  C   -0.170311
    22  C   -0.218609
    23  C   -0.170278
    24  C    0.157532
    25  C   -0.170617
    26  C   -0.218504
    27  H    0.226394
    28  H    0.224188
    29  H    0.276126
    30  H    0.275836
    31  H    0.224234
    32  N    0.490326
    33  O   -0.461496
    34  O   -0.456640
 Sum of Mulliken charges =  -0.00000

 Dipole moment (field-independent basis, Debye):
    X=             -5.3944    Y=              0.8402    Z=              1.3619  Tot=              5.6267
 Quadrupole moment (field-independent basis, Debye-Ang):
   XX=            -69.3518   YY=            -96.2983   ZZ=            -91.5234
   XY=              0.0430   XZ=             -3.0140   YZ=              1.9744

 Normal termination of Gaussian 16 at Wed May  5 17:13:55 2021.
