 Gaussian 16, Revision A.03,
 Gaussian 16:  EM64L-G16RevA.03 25-Dec-2016

 -------------
 #p 6-31g* mp2
 -------------

 ------------------------------------------------------
 Input file generated by CHIRIPA (05-May-2021 14:57:26)
 ------------------------------------------------------
 Symbolic Z-matrix:
 Charge =  0 Multiplicity = 1

                         Standard orientation:
 ---------------------------------------------------------------------
 Center     Atomic      Atomic             Coordinates (Angstroms)
 Number     Number       Type             X           Y           Z
 ---------------------------------------------------------------------
      1          6           0        3.658067    2.408433    0.846124
      2          6           0        4.506397    1.367778    1.238419
      3          6           0        4.321882    0.074917    0.739406
      4          6           0        3.274323   -0.142718   -0.154207
      5          6           0        2.412325    0.873272   -0.564103
      6          6           0        2.615577    2.158299   -0.052301
      7          1           0        3.808680    3.409715    1.238737
      8          1           0        5.316832    1.559114    1.936008
      9          1           0        4.963820   -0.749112    1.026303
     10          1           0        1.613117    0.651763   -1.260966
     11          1           0        1.955200    2.964558   -0.358723
     12          7           0        3.069067   -1.507265   -0.689259
     13          8           0        2.138843   -1.673018   -1.475290
     14          8           0        3.842299   -2.385206   -0.312471
     15          6           0       -2.636828   -2.417156    0.746551
     16          6           0       -1.740661   -1.609386    0.038800
     17          6           0       -2.101905   -0.314023   -0.343413
     18          6           0       -3.373052    0.143560    0.000233
     19          6           0       -4.288194   -0.637106    0.704765
     20          6           0       -3.905497   -1.929298    1.076694
     21          1           0       -2.347873   -3.422193    1.039469
     22          1           0       -0.754735   -1.985628   -0.218954
     23          1           0       -1.427771    0.332622   -0.891876
     24          1           0       -5.264054   -0.234291    0.947365
     25          1           0       -4.603532   -2.554390    1.626286
     26          7           0       -3.766840    1.513225   -0.398955
     27          8           0       -4.892597    1.892924   -0.084094
     28          8           0       -2.942278    2.181135   -1.019141
 ---------------------------------------------------------------------

 SCF Done:  E(RHF) =  -868.340209376     A.U. after   16 cycles
 E2 =    -0.2598899979D+01 EUMP2 =    -0.87093910935477D+03

 The electronic state is 1-A.
 Alpha  occ. eigenvalues --  -20.61592 -20.61532 -20.60769 -20.60745 -15.86577
 Alpha  occ. eigenvalues --  -15.85803 -11.31668 -11.30982 -11.28210 -11.28176
 Alpha  occ. eigenvalues --  -11.27828 -11.27508 -11.27503 -11.27133 -11.27132
 Alpha  occ. eigenvalues --  -11.27081 -11.26497 -11.26301  -1.60622  -1.59835
 Alpha  occ. eigenvalues --   -1.40186  -1.39397  -1.19797  -1.19103  -1.09235
 Alpha  occ. eigenvalues --   -1.08523  -1.05151  -1.04462  -0.96122  -0.95404
 Alpha  occ. eigenvalues --   -0.86561  -0.85864  -0.82960  -0.82232  -0.78056
 Alpha  occ. eigenvalues --   -0.77314  -0.72799  -0.72029  -0.71927  -0.71152
 Alpha  occ. eigenvalues --   -0.70896  -0.70208  -0.65446  -0.65132  -0.64743
 Alpha  occ. eigenvalues --   -0.64418  -0.62514  -0.61797  -0.55641  -0.54948
 Alpha  occ. eigenvalues --   -0.53498  -0.53228  -0.52817  -0.52518  -0.49580
 Alpha  occ. eigenvalues --   -0.49527  -0.48798  -0.48758  -0.45636  -0.44845
 Alpha  occ. eigenvalues --   -0.37746  -0.37063  -0.36743  -0.36060
 Alpha virt. eigenvalues --    0.04406   0.05186   0.10891   0.11591   0.15960
 Alpha virt. eigenvalues --    0.16751   0.19916   0.22088   0.25043   0.27490
 Alpha virt. eigenvalues --    0.28353   0.29388   0.31001   0.31509   0.31875

 Mulliken charges:
               1
     1  C   -0.170077
     2  C   -0.218175
     3  C   -0.171043
     4  C    0.158264
     5  C   -0.174831
     6  C   -0.218251
     7  H    0.228984
     8  H    0.225139
     9  H    0.275704
    10  H    0.272952
    11  H    0.231635
    12  N    0.488089
    13  O   -0.468357
    14  O   -0.456107
    15  C   -0.171571
    16  C   -0.225173
    17  C   -0.173405
    18  C    0.158953
    19  C   -0.172312
    20  C   -0.218269
    21  H    0.228108
    22  H    0.242089
    23  H    0.268528
    24  H    0.274050
    25  H    0.222637
    26  N    0.488385
    27  O   -0.460244
    28  O   -0.465703
 Sum of Mulliken charges =  -0.00000

 Dipole moment (field-independent basis, Debye):
    X=              2.3993    Y=             -0.0198    Z=              3.3932  Tot=              4.1558
 Quadrupole moment (field-independent basis, Debye-Ang):
   XX=           -102.5072   YY=           -107.5105   ZZ=           -104.4247
   XY=             32.2279   XZ=              1.7586   YZ=             -2.0745

 Normal termination of Gaussian 16 at Thu May  6 08:20:57 2021.
