 Gaussian 16, Revision A.03,
 Gaussian 16:  EM64L-G16RevA.03 25-Dec-2016

 -------------
 #p 6-31g* mp2
 -------------

 ------------------------------------------------------
 Input file generated by CHIRIPA (05-May-2021 14:55:20)
 ------------------------------------------------------
 Symbolic Z-matrix:
 Charge =  0 Multiplicity = 1

                         Standard orientation:
 ---------------------------------------------------------------------
 Center     Atomic      Atomic             Coordinates (Angstroms)
 Number     Number       Type             X           Y           Z
 ---------------------------------------------------------------------
      1          6           0        2.166832    2.454525    0.428386
      2          6           0        2.960207    1.560271    1.154601
      3          6           0        2.936375    0.192880    0.864391
      4          6           0        2.103789   -0.247761   -0.163191
      5          6           0        1.301688    0.618304   -0.904713
      6          6           0        1.341559    1.981521   -0.597145
      7          1           0        2.191575    3.515126    0.660570
      8          1           0        3.602082    1.924780    1.951580
      9          1           0        3.540307   -0.521393    1.410740
     10          1           0        0.671919    0.225099   -1.693509
     11          1           0        0.724337    2.673707   -1.162795
     12          7           0        2.070069   -1.693147   -0.479612
     13          8           0        1.328046   -2.056156   -1.389702
     14          8           0        2.786300   -2.435664    0.188460
     15          6           0       -2.637417    0.616236   -0.321203
     16          6           0       -2.713082    1.954809    0.413973
     17          6           0       -2.586413    3.153727   -0.526423
     18          1           0       -1.685229    0.557700   -0.866050
     19          1           0       -3.433377    0.575789   -1.077646
     20          1           0       -1.918079    1.992152    1.169745
     21          1           0       -3.665116    2.010084    0.957287
     22          1           0       -3.387310    3.144204   -1.272797
     23          1           0       -1.630346    3.126168   -1.059131
     24          1           0       -2.643150    4.100323    0.020018
     25          6           0       -2.762510   -0.591803    0.605469
     26          6           0       -2.686845   -1.930375   -0.129706
     27          6           0       -2.813514   -3.129294    0.810689
     28          1           0       -1.966549   -0.551357    1.361912
     29          1           0       -3.714698   -0.533267    1.150316
     30          1           0       -1.734810   -1.985652   -0.673021
     31          1           0       -3.481848   -1.967719   -0.885479
     32          1           0       -3.769581   -3.101736    1.343398
     33          1           0       -2.012617   -3.119770    1.557064
     34          1           0       -2.756777   -4.075889    0.264249
 ---------------------------------------------------------------------

 SCF Done:  E(RHF) =  -669.535328470     A.U. after   15 cycles
 E2 =    -0.2094150490D+01 EUMP2 =    -0.67162947895982D+03

 The electronic state is 1-A.
 Alpha  occ. eigenvalues --  -20.60955 -20.60950 -15.85982 -11.31315 -11.27880
 Alpha  occ. eigenvalues --  -11.27876 -11.27608 -11.26881 -11.26868 -11.21956
 Alpha  occ. eigenvalues --  -11.21746 -11.21564 -11.21263 -11.21086 -11.20543
 Alpha  occ. eigenvalues --   -1.60011  -1.39566  -1.19490  -1.08884  -1.08464
 Alpha  occ. eigenvalues --   -1.04890  -1.03523  -0.96022  -0.95723  -0.87045
 Alpha  occ. eigenvalues --   -0.86280  -0.82564  -0.79640  -0.78225  -0.77593
 Alpha  occ. eigenvalues --   -0.72201  -0.71324  -0.70595  -0.65189  -0.65100
 Alpha  occ. eigenvalues --   -0.64912  -0.62251  -0.60886  -0.59439  -0.57589
 Alpha  occ. eigenvalues --   -0.55412  -0.55346  -0.53204  -0.53009  -0.52694
 Alpha  occ. eigenvalues --   -0.52386  -0.49970  -0.48969  -0.48953  -0.47931
 Alpha  occ. eigenvalues --   -0.46678  -0.45783  -0.45657  -0.44865  -0.43774
 Alpha  occ. eigenvalues --   -0.37456  -0.36441
 Alpha virt. eigenvalues --    0.04856   0.11061   0.16235   0.19815   0.23204
 Alpha virt. eigenvalues --    0.23995   0.25220   0.26426   0.27050   0.28547
 Alpha virt. eigenvalues --    0.29465   0.30627   0.31458   0.31997   0.32336

 Mulliken charges:
               1
     1  C   -0.172009
     2  C   -0.218405
     3  C   -0.170979
     4  C    0.157327
     5  C   -0.172160
     6  C   -0.219338
     7  H    0.226774
     8  H    0.224017
     9  H    0.275951
    10  H    0.276716
    11  H    0.229248
    12  N    0.488309
    13  O   -0.460330
    14  O   -0.458745
    15  C   -0.299217
    16  C   -0.300057
    17  C   -0.476516
    18  H    0.144067
    19  H    0.150544
    20  H    0.152578
    21  H    0.154593
    22  H    0.159129
    23  H    0.142934
    24  H    0.160388
    25  C   -0.298368
    26  C   -0.307812
    27  C   -0.474654
    28  H    0.148906
    29  H    0.148837
    30  H    0.167353
    31  H    0.149469
    32  H    0.151086
    33  H    0.156113
    34  H    0.164251
 Sum of Mulliken charges =  -0.00000

 Dipole moment (field-independent basis, Debye):
    X=              0.2132    Y=              4.9728    Z=              1.1459  Tot=              5.1076
 Quadrupole moment (field-independent basis, Debye-Ang):
   XX=            -91.3653   YY=            -98.5707   ZZ=            -93.2695
   XY=             10.1184   XZ=              5.4140   YZ=             -1.0797

 Normal termination of Gaussian 16 at Thu May  6 17:29:34 2021.
