 Gaussian 16, Revision A.03,
 Gaussian 16:  EM64L-G16RevA.03 25-Dec-2016

 -------------
 #p 6-31g* mp2
 -------------

 ------------------------------------------------------
 Input file generated by CHIRIPA (05-May-2021 14:53:12)
 ------------------------------------------------------
 Symbolic Z-matrix:
 Charge =  0 Multiplicity = 1

                         Standard orientation:
 ---------------------------------------------------------------------
 Center     Atomic      Atomic             Coordinates (Angstroms)
 Number     Number       Type             X           Y           Z
 ---------------------------------------------------------------------
      1          6           0        3.447451   -0.272961   -0.567795
      2          6           0        3.042134   -1.579742    0.114867
      3          6           0        3.590942   -2.815000   -0.599794
      4          1           0        3.092895   -0.284545   -1.607555
      5          1           0        4.543856   -0.215238   -0.612049
      6          1           0        1.946834   -1.634338    0.159061
      7          1           0        3.397529   -1.564964    1.153179
      8          1           0        4.684949   -2.787528   -0.631355
      9          1           0        3.226011   -2.857297   -1.631122
     10          1           0        3.289175   -3.738038   -0.095018
     11          6           0        2.906374    0.970848    0.134987
     12          6           0        3.311690    2.277629   -0.547675
     13          6           0        2.762882    3.512887    0.166986
     14          1           0        1.809969    0.913125    0.179241
     15          1           0        3.260929    0.982433    1.174747
     16          1           0        2.956296    2.262851   -1.585987
     17          1           0        4.406990    2.332226   -0.591869
     18          1           0        3.127813    3.555184    1.198314
     19          1           0        1.668876    3.485416    0.198547
     20          1           0        3.064649    4.435925   -0.337790
     21          6           0       -0.549289   -1.357904    1.374402
     22          6           0       -1.281236   -0.341844    1.997616
     23          6           0       -2.354042    0.266585    1.339246
     24          6           0       -2.668807   -0.167690    0.052538
     25          6           0       -1.958665   -1.177501   -0.594974
     26          6           0       -0.889740   -1.771761    0.082373
     27          1           0        0.282585   -1.825043    1.893211
     28          1           0       -1.019097   -0.018409    3.000969
     29          1           0       -2.937558    1.055404    1.798256
     30          1           0       -2.243791   -1.478535   -1.595724
     31          1           0       -0.323068   -2.560614   -0.404082
     32          7           0       -3.802484    0.468926   -0.654494
     33          8           0       -4.059688    0.068277   -1.787616
     34          8           0       -4.412390    1.356501   -0.062157
 ---------------------------------------------------------------------

 SCF Done:  E(RHF) =  -669.534375946     A.U. after   15 cycles
 E2 =    -0.2093561648D+01 EUMP2 =    -0.67162793759415D+03

 The electronic state is 1-A.
 Alpha  occ. eigenvalues --  -20.60811 -20.60806 -15.85866 -11.31246 -11.27827
 Alpha  occ. eigenvalues --  -11.27824 -11.27539 -11.26829 -11.26819 -11.22459
 Alpha  occ. eigenvalues --  -11.22011 -11.21954 -11.21936 -11.21836 -11.21353
 Alpha  occ. eigenvalues --   -1.59887  -1.39440  -1.19434  -1.09046  -1.08806
 Alpha  occ. eigenvalues --   -1.04840  -1.04132  -0.96557  -0.95656  -0.87577
 Alpha  occ. eigenvalues --   -0.86242  -0.82483  -0.80248  -0.78825  -0.77523
 Alpha  occ. eigenvalues --   -0.72085  -0.71212  -0.70543  -0.65723  -0.65074
 Alpha  occ. eigenvalues --   -0.64818  -0.62215  -0.61485  -0.59960  -0.58171
 Alpha  occ. eigenvalues --   -0.55830  -0.55335  -0.53327  -0.53140  -0.52977
 Alpha  occ. eigenvalues --   -0.52921  -0.50499  -0.48844  -0.48839  -0.48524
 Alpha  occ. eigenvalues --   -0.47271  -0.46354  -0.46244  -0.44842  -0.44361
 Alpha  occ. eigenvalues --   -0.37318  -0.36429
 Alpha virt. eigenvalues --    0.04993   0.11066   0.16449   0.20459   0.22644
 Alpha virt. eigenvalues --    0.23820   0.25876   0.26471   0.27073   0.27901
 Alpha virt. eigenvalues --    0.28986   0.30225   0.30947   0.31505   0.31889

 Mulliken charges:
               1
     1  C   -0.296513
     2  C   -0.309905
     3  C   -0.476387
     4  H    0.151493
     5  H    0.151559
     6  H    0.151176
     7  H    0.149554
     8  H    0.160010
     9  H    0.156081
    10  H    0.156958
    11  C   -0.302490
    12  C   -0.299996
    13  C   -0.476288
    14  H    0.154151
    15  H    0.146649
    16  H    0.154070
    17  H    0.152242
    18  H    0.153756
    19  H    0.156834
    20  H    0.162421
    21  C   -0.168911
    22  C   -0.220329
    23  C   -0.171009
    24  C    0.157907
    25  C   -0.172063
    26  C   -0.220253
    27  H    0.230169
    28  H    0.224287
    29  H    0.275983
    30  H    0.275889
    31  H    0.225387
    32  N    0.488130
    33  O   -0.460323
    34  O   -0.460238
 Sum of Mulliken charges =  -0.00000

 Dipole moment (field-independent basis, Debye):
    X=              4.0060    Y=             -2.1682    Z=              2.4635  Tot=              5.1786
 Quadrupole moment (field-independent basis, Debye-Ang):
   XX=           -116.0249   YY=            -93.7252   ZZ=            -91.3654
   XY=              5.2752   XZ=             -6.8244   YZ=              1.7519

 Normal termination of Gaussian 16 at Thu May  6 08:52:18 2021.
