 Gaussian 16, Revision A.03,
 Gaussian 16:  EM64L-G16RevA.03 25-Dec-2016

 -------------
 #p 6-31g* mp2
 -------------

 ------------------------------------------------------
 Input file generated by CHIRIPA (05-May-2021 14:51:09)
 ------------------------------------------------------
 Symbolic Z-matrix:
 Charge =  0 Multiplicity = 1

                         Standard orientation:
 ---------------------------------------------------------------------
 Center     Atomic      Atomic             Coordinates (Angstroms)
 Number     Number       Type             X           Y           Z
 ---------------------------------------------------------------------
      1          6           0        1.912702   -1.017394    0.604424
      2          6           0        1.226903   -2.366252    0.384775
      3          6           0        0.097630   -2.624711    1.382642
      4          1           0        2.309675   -0.977446    1.628026
      5          1           0        1.164182   -0.216601    0.527989
      6          1           0        1.976742   -3.164165    0.460230
      7          1           0        0.831684   -2.403068   -0.638485
      8          1           0       -0.671379   -1.849501    1.303431
      9          1           0        0.480185   -2.614921    2.408389
     10          1           0       -0.378794   -3.594349    1.207478
     11          6           0        3.043841   -0.744569   -0.385435
     12          6           0        3.729640    0.604290   -0.165787
     13          6           0        4.858913    0.862748   -1.163653
     14          1           0        3.792361   -1.545362   -0.309000
     15          1           0        2.646868   -0.784517   -1.409037
     16          1           0        4.124859    0.641106    0.857474
     17          1           0        2.979801    1.402202   -0.241241
     18          1           0        4.476358    0.852959   -2.189400
     19          1           0        5.627922    0.087538   -1.084442
     20          1           0        5.335337    1.832386   -0.988489
     21          6           0       -1.836787    1.289472   -0.180666
     22          6           0       -1.727961    2.429020    0.833026
     23          6           0       -0.439240    3.237076    0.677983
     24          1           0       -0.969580    0.624241   -0.069460
     25          1           0       -1.783567    1.705252   -1.196387
     26          1           0       -1.782760    2.011356    1.846519
     27          1           0       -2.595626    3.091509    0.719524
     28          1           0       -0.380583    3.680750   -0.321174
     29          1           0        0.436902    2.594460    0.812226
     30          1           0       -0.382063    4.046458    1.412483
     31          6           0       -3.119756    0.472492   -0.038323
     32          6           0       -3.228582   -0.667057   -1.052015
     33          6           0       -4.517303   -1.475113   -0.896972
     34          1           0       -3.172976    0.056710    0.977398
     35          1           0       -3.986963    1.137721   -0.149529
     36          1           0       -2.360917   -1.329545   -0.938513
     37          1           0       -3.173782   -0.249393   -2.065508
     38          1           0       -5.393444   -0.832498   -1.031215
     39          1           0       -4.575960   -1.918788    0.102185
     40          1           0       -4.574481   -2.284496   -1.631472
 ---------------------------------------------------------------------

 SCF Done:  E(RHF) =  -470.733154219     A.U. after   11 cycles
 E2 =    -0.1584568210D+01 EUMP2 =    -0.47231772242901D+03

 The electronic state is 1-A.
 Alpha  occ. eigenvalues --  -11.21667 -11.21637 -11.21622 -11.21614 -11.21444
 Alpha  occ. eigenvalues --  -11.21441 -11.21385 -11.21378 -11.21148 -11.21107
 Alpha  occ. eigenvalues --  -11.21077 -11.21072  -1.08510  -1.08438  -1.03574
 Alpha  occ. eigenvalues --   -1.03556  -0.96021  -0.96009  -0.87058  -0.87005
 Alpha  occ. eigenvalues --   -0.79635  -0.79624  -0.78402  -0.78184  -0.65400
 Alpha  occ. eigenvalues --   -0.64846  -0.61028  -0.60900  -0.59394  -0.59375
 Alpha  occ. eigenvalues --   -0.57630  -0.57618  -0.55316  -0.55295  -0.52712
 Alpha  occ. eigenvalues --   -0.52698  -0.52477  -0.52409  -0.50081  -0.49841
 Alpha  occ. eigenvalues --   -0.47981  -0.47936  -0.46816  -0.46657  -0.46226
 Alpha  occ. eigenvalues --   -0.45794  -0.45779  -0.45118  -0.43823  -0.43815
 Alpha virt. eigenvalues --    0.18981   0.21686   0.23539   0.24489   0.25631
 Alpha virt. eigenvalues --    0.26543   0.26795   0.27838   0.28327   0.29836
 Alpha virt. eigenvalues --    0.31094   0.31536   0.31623   0.31892   0.31973

 Mulliken charges:
               1
     1  C   -0.308509
     2  C   -0.300079
     3  C   -0.479897
     4  H    0.149924
     5  H    0.157865
     6  H    0.152677
     7  H    0.152472
     8  H    0.157913
     9  H    0.155546
    10  H    0.160771
    11  C   -0.297594
    12  C   -0.302573
    13  C   -0.475690
    14  H    0.149726
    15  H    0.149988
    16  H    0.151905
    17  H    0.154682
    18  H    0.155346
    19  H    0.155172
    20  H    0.160504
    21  C   -0.308669
    22  C   -0.298927
    23  C   -0.480456
    24  H    0.157862
    25  H    0.149652
    26  H    0.152215
    27  H    0.152320
    28  H    0.155099
    29  H    0.158817
    30  H    0.160829
    31  C   -0.298230
    32  C   -0.302639
    33  C   -0.475640
    34  H    0.149989
    35  H    0.150152
    36  H    0.154531
    37  H    0.151837
    38  H    0.155159
    39  H    0.155669
    40  H    0.160283
 Sum of Mulliken charges =  -0.00000

 Dipole moment (field-independent basis, Debye):
    X=              0.0063    Y=             -0.0019    Z=              0.0009  Tot=              0.0066
 Quadrupole moment (field-independent basis, Debye-Ang):
   XX=            -85.5406   YY=            -84.7247   ZZ=            -84.3492
   XY=             -1.4758   XZ=              1.2533   YZ=             -0.4867

 Normal termination of Gaussian 16 at Wed May  5 21:23:22 2021.
