 Gaussian 16, Revision A.03,
 Gaussian 16:  EM64L-G16RevA.03 25-Dec-2016

 -------------
 #p 6-31g* mp2
 -------------

 ------------------------------------------------------
 Input file generated by CHIRIPA (05-May-2021 14:57:25)
 ------------------------------------------------------
 Symbolic Z-matrix:
 Charge =  0 Multiplicity = 1

                         Standard orientation:
 ---------------------------------------------------------------------
 Center     Atomic      Atomic             Coordinates (Angstroms)
 Number     Number       Type             X           Y           Z
 ---------------------------------------------------------------------
      1          6           0       -2.079612    2.592583   -0.435076
      2          6           0       -1.748710    1.654511   -1.418460
      3          6           0       -1.856699    0.285110   -1.158407
      4          6           0       -2.300938   -0.112837    0.101585
      5          6           0       -2.638153    0.797440    1.102072
      6          6           0       -2.522496    2.161813    0.819839
      7          1           0       -1.992745    3.654414   -0.645706
      8          1           0       -1.404484    1.986163   -2.393940
      9          1           0       -1.607170   -0.462600   -1.901430
     10          1           0       -2.978388    0.436386    2.065035
     11          1           0       -2.780175    2.888081    1.585464
     12          7           0       -2.419319   -1.559899    0.388632
     13          8           0       -2.813147   -1.884786    1.506659
     14          8           0       -2.116037   -2.341820   -0.509843
     15          6           0        2.743999    2.305502    0.437067
     16          6           0        1.881210    1.954063   -0.606296
     17          6           0        1.617627    0.610196   -0.887530
     18          6           0        2.236707   -0.360692   -0.101778
     19          6           0        3.101090   -0.042325    0.944537
     20          6           0        3.350116    1.307945    1.207795
     21          1           0        2.943102    3.351937    0.648555
     22          1           0        1.409085    2.726652   -1.206505
     23          1           0        0.953890    0.310082   -1.689280
     24          1           0        3.556925   -0.834898    1.525452
     25          1           0        4.020610    1.577937    2.018712
     26          7           0        1.965369   -1.786773   -0.389992
     27          8           0        2.523277   -2.623200    0.316949
     28          8           0        1.199926   -2.041107   -1.317381
 ---------------------------------------------------------------------

 SCF Done:  E(RHF) =  -868.333491347     A.U. after   16 cycles
 E2 =    -0.2605809018D+01 EUMP2 =    -0.87093930036506D+03

 The electronic state is 1-A.
 Alpha  occ. eigenvalues --  -20.60584 -20.60539 -20.60457 -20.60342 -15.85608
 Alpha  occ. eigenvalues --  -15.85460 -11.31267 -11.31195 -11.27908 -11.27863
 Alpha  occ. eigenvalues --  -11.27844 -11.27801 -11.27770 -11.27613 -11.27072
 Alpha  occ. eigenvalues --  -11.27002 -11.26920 -11.26835  -1.59620  -1.59473
 Alpha  occ. eigenvalues --   -1.39175  -1.39004  -1.19538  -1.19386  -1.08841
 Alpha  occ. eigenvalues --   -1.08756  -1.05081  -1.04778  -0.95628  -0.95519
 Alpha  occ. eigenvalues --   -0.86399  -0.86222  -0.82500  -0.82323  -0.77562
 Alpha  occ. eigenvalues --   -0.77230  -0.71861  -0.71647  -0.71053  -0.70710
 Alpha  occ. eigenvalues --   -0.70678  -0.70496  -0.65212  -0.65130  -0.64989
 Alpha  occ. eigenvalues --   -0.64799  -0.62519  -0.62041  -0.55500  -0.55381
 Alpha  occ. eigenvalues --   -0.53672  -0.53129  -0.52958  -0.52717  -0.48605
 Alpha  occ. eigenvalues --   -0.48588  -0.48467  -0.48388  -0.44707  -0.44092
 Alpha  occ. eigenvalues --   -0.37746  -0.37332  -0.36974  -0.35859
 Alpha virt. eigenvalues --    0.04778   0.05503   0.10547   0.11581   0.16333
 Alpha virt. eigenvalues --    0.16717   0.19728   0.22145   0.25649   0.26701
 Alpha virt. eigenvalues --    0.28289   0.29568   0.30377   0.30933   0.32078

 Mulliken charges:
               1
     1  C   -0.171047
     2  C   -0.225036
     3  C   -0.176866
     4  C    0.158918
     5  C   -0.169742
     6  C   -0.217828
     7  H    0.221833
     8  H    0.218450
     9  H    0.287612
    10  H    0.277175
    11  H    0.222884
    12  N    0.485787
    13  O   -0.463231
    14  O   -0.444869
    15  C   -0.172269
    16  C   -0.214173
    17  C   -0.161916
    18  C    0.156145
    19  C   -0.170227
    20  C   -0.218838
    21  H    0.222986
    22  H    0.213486
    23  H    0.266398
    24  H    0.277251
    25  H    0.223309
    26  N    0.488527
    27  O   -0.457373
    28  O   -0.457345
 Sum of Mulliken charges =  -0.00000

 Dipole moment (field-independent basis, Debye):
    X=              1.2821    Y=              9.6805    Z=              0.0818  Tot=              9.7654
 Quadrupole moment (field-independent basis, Debye-Ang):
   XX=           -101.3504   YY=           -110.3318   ZZ=            -98.7969
   XY=             -2.0914   XZ=              5.6783   YZ=              0.2067

 Normal termination of Gaussian 16 at Thu May  6 22:50:45 2021.
