 Gaussian 16, Revision A.03,
 Gaussian 16:  EM64L-G16RevA.03 25-Dec-2016

 -------------
 #p 6-31g* mp2
 -------------

 ------------------------------------------------------
 Input file generated by CHIRIPA (05-May-2021 14:57:26)
 ------------------------------------------------------
 Symbolic Z-matrix:
 Charge =  0 Multiplicity = 1

                         Standard orientation:
 ---------------------------------------------------------------------
 Center     Atomic      Atomic             Coordinates (Angstroms)
 Number     Number       Type             X           Y           Z
 ---------------------------------------------------------------------
      1          6           0       -1.895106    1.083990   -0.076442
      2          6           0       -1.991651   -0.311037   -0.109591
      3          6           0       -3.240794   -0.937490   -0.067803
      4          6           0       -4.377905   -0.134606    0.007333
      5          6           0       -4.314443    1.257538    0.041959
      6          6           0       -3.054766    1.862453   -0.000906
      7          1           0       -0.920649    1.562269   -0.109322
      8          1           0       -1.092735   -0.918124   -0.168242
      9          1           0       -3.344415   -2.015494   -0.092055
     10          1           0       -5.228349    1.836124    0.100545
     11          1           0       -2.982814    2.946057    0.024986
     12          7           0       -5.705894   -0.786403    0.052143
     13          8           0       -6.692644   -0.056613    0.118237
     14          8           0       -5.734875   -2.014729    0.020322
     15          6           0        6.520578   -0.852387    0.124177
     16          6           0        5.907634   -0.665554   -1.119171
     17          6           0        4.599558   -0.178765   -1.199926
     18          6           0        3.930732    0.112215   -0.011948
     19          6           0        4.514242   -0.063244    1.241854
     20          6           0        5.823155   -0.551167    1.298651
     21          1           0        7.537048   -1.230977    0.177604
     22          1           0        6.446854   -0.898641   -2.032931
     23          1           0        4.101054   -0.024696   -2.149229
     24          1           0        3.951349    0.178009    2.135367
     25          1           0        6.296661   -0.695275    2.265640
     26          7           0        2.545487    0.628158   -0.084759
     27          8           0        1.977671    0.876996    0.976515
     28          8           0        2.053779    0.773944   -1.201722
 ---------------------------------------------------------------------

 SCF Done:  E(RHF) =  -868.341866925     A.U. after   16 cycles
 E2 =    -0.2598505997D+01 EUMP2 =    -0.87094037292174D+03

 The electronic state is 1-A.
 Alpha  occ. eigenvalues --  -20.62218 -20.62212 -20.59832 -20.59827 -15.87176
 Alpha  occ. eigenvalues --  -15.84879 -11.32128 -11.29949 -11.28638 -11.28634
 Alpha  occ. eigenvalues --  -11.28300 -11.27552 -11.27543 -11.26542 -11.26508
 Alpha  occ. eigenvalues --  -11.25872 -11.25385 -11.25297  -1.61261  -1.58917
 Alpha  occ. eigenvalues --   -1.40816  -1.38479  -1.20258  -1.18078  -1.09735
 Alpha  occ. eigenvalues --   -1.07457  -1.05590  -1.03459  -0.96636  -0.94349
 Alpha  occ. eigenvalues --   -0.87008  -0.84827  -0.83478  -0.81223  -0.78574
 Alpha  occ. eigenvalues --   -0.76368  -0.73395  -0.72541  -0.71353  -0.71102
 Alpha  occ. eigenvalues --   -0.70240  -0.69007  -0.65907  -0.65585  -0.63696
 Alpha  occ. eigenvalues --   -0.63429  -0.62938  -0.60834  -0.56110  -0.53946
 Alpha  occ. eigenvalues --   -0.53730  -0.53671  -0.51787  -0.51525  -0.50185
 Alpha  occ. eigenvalues --   -0.50129  -0.47875  -0.47827  -0.46303  -0.43953
 Alpha  occ. eigenvalues --   -0.38211  -0.37173  -0.35935  -0.35100
 Alpha virt. eigenvalues --    0.03917   0.06187   0.10489   0.12588   0.15511
 Alpha virt. eigenvalues --    0.17791   0.20681   0.22958   0.26632   0.27545
 Alpha virt. eigenvalues --    0.28535   0.29911   0.30446   0.31755   0.32847

 Mulliken charges:
               1
     1  C   -0.173285
     2  C   -0.219653
     3  C   -0.173308
     4  C    0.156234
     5  C   -0.172158
     6  C   -0.221354
     7  H    0.250642
     8  H    0.224932
     9  H    0.270409
    10  H    0.270958
    11  H    0.220169
    12  N    0.488449
    13  O   -0.464123
    14  O   -0.464331
    15  C   -0.169143
    16  C   -0.218614
    17  C   -0.170381
    18  C    0.157393
    19  C   -0.170331
    20  C   -0.218607
    21  H    0.229006
    22  H    0.226474
    23  H    0.276561
    24  H    0.276641
    25  H    0.226513
    26  N    0.488292
    27  O   -0.463827
    28  O   -0.463556
 Sum of Mulliken charges =  -0.00000

 Dipole moment (field-independent basis, Debye):
    X=             10.4367    Y=              0.5231    Z=              0.0978  Tot=             10.4502
 Quadrupole moment (field-independent basis, Debye-Ang):
   XX=           -107.9072   YY=           -102.9436   ZZ=           -100.5376
   XY=            -20.2365   XZ=              1.4484   YZ=              0.5863

 Normal termination of Gaussian 16 at Thu May  6 16:25:09 2021.
