 Gaussian 16, Revision A.03,
 Gaussian 16:  EM64L-G16RevA.03 25-Dec-2016

 -------------
 #p 6-31g* mp2
 -------------

 ------------------------------------------------------
 Input file generated by CHIRIPA (05-May-2021 14:57:22)
 ------------------------------------------------------
 Symbolic Z-matrix:
 Charge =  0 Multiplicity = 1

                         Standard orientation:
 ---------------------------------------------------------------------
 Center     Atomic      Atomic             Coordinates (Angstroms)
 Number     Number       Type             X           Y           Z
 ---------------------------------------------------------------------
      1          6           0        2.640829   -2.367063    1.122832
      2          6           0        1.764125   -1.964031    0.110174
      3          6           0        1.915413   -0.718061   -0.505632
      4          6           0        2.959041    0.103384   -0.082124
      5          6           0        3.848796   -0.269771    0.924047
      6          6           0        3.678537   -1.520140    1.525826
      7          1           0        2.515936   -3.336672    1.595757
      8          1           0        0.957327   -2.619694   -0.204830
      9          1           0        1.251056   -0.380991   -1.292037
     10          1           0        4.643566    0.405623    1.216624
     11          1           0        4.360902   -1.830514    2.312013
     12          7           0        3.129245    1.424765   -0.726626
     13          8           0        4.056692    2.130057   -0.335418
     14          8           0        2.331982    1.730152   -1.610790
     15          6           0       -3.006093    2.371516    1.100931
     16          6           0       -1.978738    2.072222    0.200106
     17          6           0       -1.927151    0.824824   -0.429089
     18          6           0       -2.923729   -0.103815   -0.132861
     19          6           0       -3.960135    0.164508    0.759975
     20          6           0       -3.991775    1.418385    1.377503
     21          1           0       -3.038420    3.343042    1.585173
     22          1           0       -1.211902    2.810496   -0.016595
     23          1           0       -1.143124    0.566763   -1.130606
     24          1           0       -4.710406   -0.591896    0.955847
     25          1           0       -4.790819    1.648058    2.076662
     26          7           0       -2.879674   -1.427808   -0.792786
     27          8           0       -3.769608   -2.228669   -0.514799
     28          8           0       -1.956046   -1.639623   -1.575525
 ---------------------------------------------------------------------

 SCF Done:  E(RHF) =  -868.340534565     A.U. after   16 cycles
 E2 =    -0.2599521378D+01 EUMP2 =    -0.87094005594242D+03

 The electronic state is 1-A.
 Alpha  occ. eigenvalues --  -20.61345 -20.61292 -20.61032 -20.60994 -15.86341
 Alpha  occ. eigenvalues --  -15.86050 -11.31389 -11.31156 -11.27921 -11.27889
 Alpha  occ. eigenvalues --  -11.27691 -11.27627 -11.27562 -11.27316 -11.26879
 Alpha  occ. eigenvalues --  -11.26756 -11.26672 -11.26472  -1.60382  -1.60091
 Alpha  occ. eigenvalues --   -1.39949  -1.39654  -1.19521  -1.19281  -1.08971
 Alpha  occ. eigenvalues --   -1.08722  -1.04863  -1.04616  -0.95864  -0.95605
 Alpha  occ. eigenvalues --   -0.86286  -0.86033  -0.82702  -0.82425  -0.77822
 Alpha  occ. eigenvalues --   -0.77490  -0.72572  -0.72272  -0.71690  -0.71411
 Alpha  occ. eigenvalues --   -0.70655  -0.70363  -0.65168  -0.64919  -0.64870
 Alpha  occ. eigenvalues --   -0.64562  -0.62294  -0.61864  -0.55382  -0.55124
 Alpha  occ. eigenvalues --   -0.53234  -0.53025  -0.52933  -0.52621  -0.49347
 Alpha  occ. eigenvalues --   -0.49286  -0.49047  -0.48998  -0.45417  -0.45116
 Alpha  occ. eigenvalues --   -0.37486  -0.37256  -0.36499  -0.36161
 Alpha virt. eigenvalues --    0.04633   0.04983   0.11107   0.11469   0.16243
 Alpha virt. eigenvalues --    0.16539   0.20303   0.22135   0.25328   0.27716
 Alpha virt. eigenvalues --    0.28136   0.29477   0.31097   0.31307   0.31688

 Mulliken charges:
               1
     1  C   -0.171161
     2  C   -0.223465
     3  C   -0.179299
     4  C    0.158657
     5  C   -0.172208
     6  C   -0.218332
     7  H    0.227277
     8  H    0.240481
     9  H    0.279364
    10  H    0.274004
    11  H    0.222871
    12  N    0.487766
    13  O   -0.459481
    14  O   -0.467656
    15  C   -0.170317
    16  C   -0.221790
    17  C   -0.174342
    18  C    0.157319
    19  C   -0.171210
    20  C   -0.218683
    21  H    0.227864
    22  H    0.235082
    23  H    0.278595
    24  H    0.274677
    25  H    0.223810
    26  N    0.488271
    27  O   -0.457480
    28  O   -0.470615
 Sum of Mulliken charges =  -0.00000

 Dipole moment (field-independent basis, Debye):
    X=             -0.8676    Y=             -0.0008    Z=              4.6893  Tot=              4.7688
 Quadrupole moment (field-independent basis, Debye-Ang):
   XX=           -101.4671   YY=           -106.7480   ZZ=           -104.1922
   XY=            -26.1074   XZ=              0.2283   YZ=             -0.3218

 Normal termination of Gaussian 16 at Thu May  6 09:41:34 2021.
