 Gaussian 16, Revision A.03,
 Gaussian 16:  EM64L-G16RevA.03 25-Dec-2016

 -------------
 #p 6-31g* mp2
 -------------

 ------------------------------------------------------
 Input file generated by CHIRIPA (05-May-2021 14:53:11)
 ------------------------------------------------------
 Symbolic Z-matrix:
 Charge =  0 Multiplicity = 1

                         Standard orientation:
 ---------------------------------------------------------------------
 Center     Atomic      Atomic             Coordinates (Angstroms)
 Number     Number       Type             X           Y           Z
 ---------------------------------------------------------------------
      1          6           0       -5.170567   -0.096440   -0.006342
      2          6           0       -5.321178   -1.617802   -0.033910
      3          6           0       -6.782067   -2.066442   -0.082088
      4          1           0       -5.707235    0.303048    0.865060
      5          1           0       -5.656740    0.329333   -0.895020
      6          1           0       -4.833664   -2.040684    0.853849
      7          1           0       -4.783929   -2.013732   -0.905242
      8          1           0       -7.276917   -1.672043   -0.975494
      9          1           0       -7.326935   -1.699148    0.793592
     10          1           0       -6.866557   -3.157477   -0.101193
     11          6           0       -3.715879    0.367548    0.041895
     12          6           0       -3.565267    1.888909    0.069463
     13          6           0       -2.104379    2.337550    0.117641
     14          1           0       -3.229706   -0.058225    0.930573
     15          1           0       -3.179211   -0.031940   -0.829507
     16          1           0       -4.102517    2.284840    0.940794
     17          1           0       -4.052782    2.311792   -0.818296
     18          1           0       -1.559511    1.970256   -0.758039
     19          1           0       -1.609529    1.943151    1.011047
     20          1           0       -2.019888    3.428584    0.136746
     21          6           0        1.580530    1.563603   -0.075432
     22          6           0        2.906840    2.006436   -0.111790
     23          6           0        3.962414    1.090367   -0.078219
     24          6           0        3.654058   -0.267303   -0.007938
     25          6           0        2.343034   -0.739627    0.029706
     26          6           0        1.303349    0.194399   -0.004924
     27          1           0        0.766706    2.282202   -0.101922
     28          1           0        3.125080    3.069177   -0.166551
     29          1           0        4.998386    1.405736   -0.105116
     30          1           0        2.156857   -1.805356    0.084263
     31          1           0        0.274282   -0.152390    0.023444
     32          7           0        4.763136   -1.246609    0.028163
     33          8           0        4.464985   -2.437368    0.090108
     34          8           0        5.909583   -0.804888   -0.006170
 ---------------------------------------------------------------------

 SCF Done:  E(RHF) =  -669.535402718     A.U. after   15 cycles
 E2 =    -0.2091656678D+01 EUMP2 =    -0.67162705939560D+03

 The electronic state is 1-A.
 Alpha  occ. eigenvalues --  -20.60673 -20.60668 -15.85726 -11.31060 -11.27631
 Alpha  occ. eigenvalues --  -11.27627 -11.27261 -11.26616 -11.26591 -11.22704
 Alpha  occ. eigenvalues --  -11.22563 -11.22376 -11.22210 -11.22107 -11.21547
 Alpha  occ. eigenvalues --   -1.59750  -1.39304  -1.19224  -1.09319  -1.08615
 Alpha  occ. eigenvalues --   -1.04629  -1.04437  -0.96938  -0.95454  -0.87970
 Alpha  occ. eigenvalues --   -0.86017  -0.82299  -0.80543  -0.79088  -0.77354
 Alpha  occ. eigenvalues --   -0.71944  -0.71073  -0.70317  -0.65936  -0.64872
 Alpha  occ. eigenvalues --   -0.64637  -0.61986  -0.61825  -0.60312  -0.58507
 Alpha  occ. eigenvalues --   -0.56230  -0.55201  -0.53566  -0.53272  -0.52957
 Alpha  occ. eigenvalues --   -0.52706  -0.50865  -0.48816  -0.48700  -0.48696
 Alpha  occ. eigenvalues --   -0.47535  -0.46634  -0.46519  -0.44717  -0.44674
 Alpha  occ. eigenvalues --   -0.37186  -0.36239
 Alpha virt. eigenvalues --    0.05171   0.11371   0.16660   0.20219   0.22215
 Alpha virt. eigenvalues --    0.23558   0.25768   0.25889   0.26141   0.27875
 Alpha virt. eigenvalues --    0.29288   0.30212   0.30445   0.30666   0.31618

 Mulliken charges:
               1
     1  C   -0.298821
     2  C   -0.300523
     3  C   -0.476253
     4  H    0.151790
     5  H    0.151565
     6  H    0.152495
     7  H    0.152415
     8  H    0.156137
     9  H    0.156167
    10  H    0.162419
    11  C   -0.300940
    12  C   -0.299397
    13  C   -0.488773
    14  H    0.148816
    15  H    0.148420
    16  H    0.156629
    17  H    0.156250
    18  H    0.152222
    19  H    0.156235
    20  H    0.164352
    21  C   -0.177591
    22  C   -0.219893
    23  C   -0.170911
    24  C    0.158024
    25  C   -0.171025
    26  C   -0.224569
    27  H    0.239607
    28  H    0.223094
    29  H    0.274973
    30  H    0.275080
    31  H    0.225653
    32  N    0.488078
    33  O   -0.460891
    34  O   -0.460833
 Sum of Mulliken charges =  -0.00000

 Dipole moment (field-independent basis, Debye):
    X=             -4.2469    Y=              3.4857    Z=             -0.1170  Tot=              5.4955
 Quadrupole moment (field-independent basis, Debye-Ang):
   XX=           -121.4629   YY=            -94.1044   ZZ=            -94.6053
   XY=             16.0742   XZ=             -0.6944   YZ=             -0.1998

 Normal termination of Gaussian 16 at Wed May  5 21:40:35 2021.
