 Gaussian 16, Revision A.03,
 Gaussian 16:  EM64L-G16RevA.03 25-Dec-2016

 -------------
 #p 6-31g* mp2
 -------------

 ------------------------------------------------------
 Input file generated by CHIRIPA (05-May-2021 14:55:22)
 ------------------------------------------------------
 Symbolic Z-matrix:
 Charge =  0 Multiplicity = 1

                         Standard orientation:
 ---------------------------------------------------------------------
 Center     Atomic      Atomic             Coordinates (Angstroms)
 Number     Number       Type             X           Y           Z
 ---------------------------------------------------------------------
      1          6           0        1.106896    1.120503    0.923753
      2          6           0        1.929765    1.715521   -0.038204
      3          6           0        3.088448    1.069332   -0.479161
      4          6           0        3.395442   -0.176575    0.065595
      5          6           0        2.595795   -0.795273    1.025318
      6          6           0        1.441946   -0.130789    1.451513
      7          1           0        0.208681    1.629584    1.260565
      8          1           0        1.672042    2.687218   -0.449821
      9          1           0        3.743308    1.507152   -1.222726
     10          1           0        2.878850   -1.764674    1.417186
     11          1           0        0.804763   -0.595280    2.198702
     12          7           0        4.619529   -0.870350   -0.393412
     13          8           0        4.867919   -1.967350    0.102098
     14          8           0        5.307399   -0.303995   -1.240000
     15          6           0       -3.562704    0.566599   -0.446227
     16          6           0       -3.592029    1.928243    0.248792
     17          6           0       -2.535470    2.891451   -0.293157
     18          1           0       -2.564698    0.122915   -0.327602
     19          1           0       -3.714809    0.709996   -1.524975
     20          1           0       -3.441294    1.782197    1.326087
     21          1           0       -4.590138    2.368653    0.128663
     22          1           0       -2.686521    3.066569   -1.363258
     23          1           0       -1.531149    2.476780   -0.159031
     24          1           0       -2.574186    3.858619    0.217673
     25          6           0       -4.613161   -0.407284    0.084639
     26          6           0       -4.583837   -1.768927   -0.610380
     27          6           0       -5.640397   -2.732135   -0.068430
     28          1           0       -4.461057   -0.550682    1.163387
     29          1           0       -5.611168    0.036402   -0.033986
     30          1           0       -3.585728   -2.209337   -0.490251
     31          1           0       -4.734571   -1.622882   -1.687675
     32          1           0       -6.644717   -2.317465   -0.202557
     33          1           0       -5.489345   -2.907253    1.001671
     34          1           0       -5.601680   -3.699303   -0.579262
 ---------------------------------------------------------------------

 SCF Done:  E(RHF) =  -669.535487695     A.U. after   15 cycles
 E2 =    -0.2091289891D+01 EUMP2 =    -0.67162677758605D+03

 The electronic state is 1-A.
 Alpha  occ. eigenvalues --  -20.60774 -20.60768 -15.85827 -11.31206 -11.27772
 Alpha  occ. eigenvalues --  -11.27764 -11.27497 -11.26796 -11.26779 -11.22524
 Alpha  occ. eigenvalues --  -11.22179 -11.22141 -11.22106 -11.21994 -11.21493
 Alpha  occ. eigenvalues --   -1.59849  -1.39402  -1.19377  -1.09150  -1.08770
 Alpha  occ. eigenvalues --   -1.04779  -1.04264  -0.96723  -0.95604  -0.87741
 Alpha  occ. eigenvalues --   -0.86176  -0.82436  -0.80331  -0.78924  -0.77478
 Alpha  occ. eigenvalues --   -0.72045  -0.71172  -0.70514  -0.65791  -0.65029
 Alpha  occ. eigenvalues --   -0.64782  -0.62126  -0.61676  -0.60094  -0.58310
 Alpha  occ. eigenvalues --   -0.56127  -0.55200  -0.53413  -0.53167  -0.53067
 Alpha  occ. eigenvalues --   -0.52868  -0.50665  -0.48805  -0.48799  -0.48634
 Alpha  occ. eigenvalues --   -0.47365  -0.46470  -0.46384  -0.44804  -0.44500
 Alpha  occ. eigenvalues --   -0.37347  -0.36381
 Alpha virt. eigenvalues --    0.05023   0.11233   0.16409   0.19701   0.22564
 Alpha virt. eigenvalues --    0.23759   0.25782   0.26216   0.26913   0.27658
 Alpha virt. eigenvalues --    0.28889   0.30447   0.30884   0.31352   0.32063

 Mulliken charges:
               1
     1  C   -0.173757
     2  C   -0.219394
     3  C   -0.170951
     4  C    0.158646
     5  C   -0.170917
     6  C   -0.219332
     7  H    0.230009
     8  H    0.224647
     9  H    0.275806
    10  H    0.275615
    11  H    0.223377
    12  N    0.488063
    13  O   -0.460378
    14  O   -0.460273
    15  C   -0.299115
    16  C   -0.300342
    17  C   -0.480293
    18  H    0.147934
    19  H    0.152605
    20  H    0.148764
    21  H    0.156541
    22  H    0.160872
    23  H    0.146203
    24  H    0.162010
    25  C   -0.298557
    26  C   -0.300119
    27  C   -0.476048
    28  H    0.147999
    29  H    0.151459
    30  H    0.152032
    31  H    0.153683
    32  H    0.156069
    33  H    0.154808
    34  H    0.162333
 Sum of Mulliken charges =  -0.00000

 Dipole moment (field-independent basis, Debye):
    X=             -4.4637    Y=              2.4204    Z=              1.5479  Tot=              5.3084
 Quadrupole moment (field-independent basis, Debye-Ang):
   XX=           -123.8762   YY=            -93.4371   ZZ=            -92.7419
   XY=              9.2061   XZ=              5.4010   YZ=             -2.9606

 Normal termination of Gaussian 16 at Thu May  6 10:58:11 2021.
