 Gaussian 16, Revision A.03,
 Gaussian 16:  EM64L-G16RevA.03 25-Dec-2016

 -------------
 #p 6-31g* mp2
 -------------

 ------------------------------------------------------
 Input file generated by CHIRIPA (05-May-2021 14:53:16)
 ------------------------------------------------------
 Symbolic Z-matrix:
 Charge =  0 Multiplicity = 1

                         Standard orientation:
 ---------------------------------------------------------------------
 Center     Atomic      Atomic             Coordinates (Angstroms)
 Number     Number       Type             X           Y           Z
 ---------------------------------------------------------------------
      1          6           0        3.229617   -0.613449    0.261711
      2          6           0        4.370775    0.303758   -0.179281
      3          6           0        5.387965    0.558687    0.933432
      4          1           0        2.723006   -0.167144    1.128373
      5          1           0        3.648530   -1.570206    0.603066
      6          1           0        3.949736    1.257996   -0.521003
      7          1           0        4.874607   -0.144688   -1.045113
      8          1           0        5.835288   -0.382368    1.269466
      9          1           0        4.905163    1.028286    1.796554
     10          1           0        6.195037    1.216714    0.596543
     11          6           0        2.204625   -0.877715   -0.839781
     12          6           0        1.063467   -1.794922   -0.398789
     13          6           0        0.046277   -2.049850   -1.511502
     14          1           0        1.785712    0.079042   -1.181136
     15          1           0        2.711235   -1.324019   -1.706443
     16          1           0        0.559635   -1.346475    0.467043
     17          1           0        1.484505   -2.749159   -0.057067
     18          1           0        0.529079   -2.519449   -2.374624
     19          1           0       -0.401046   -1.108795   -1.847536
     20          1           0       -0.760795   -2.707878   -1.174613
     21          6           0       -3.560588   -1.383356    0.884605
     22          6           0       -3.844090   -0.669293   -0.284267
     23          6           0       -3.054167    0.421622   -0.659068
     24          6           0       -1.983746    0.772536    0.162119
     25          6           0       -1.675816    0.080955    1.332667
     26          6           0       -2.479262   -1.006617    1.687925
     27          1           0       -4.179471   -2.229507    1.168168
     28          1           0       -4.683221   -0.959613   -0.910061
     29          1           0       -3.251171    0.991949   -1.558699
     30          1           0       -0.832575    0.394178    1.936201
     31          1           0       -2.256735   -1.559332    2.596239
     32          7           0       -1.140331    1.925670   -0.224322
     33          8           0       -0.202991    2.214716    0.516274
     34          8           0       -1.432575    2.518615   -1.260491
 ---------------------------------------------------------------------

 SCF Done:  E(RHF) =  -669.534835020     A.U. after   15 cycles
 E2 =    -0.2095089136D+01 EUMP2 =    -0.67162992415598D+03

 The electronic state is 1-A.
 Alpha  occ. eigenvalues --  -20.60945 -20.60936 -15.85980 -11.31277 -11.27860
 Alpha  occ. eigenvalues --  -11.27854 -11.27605 -11.26866 -11.26848 -11.21370
 Alpha  occ. eigenvalues --  -11.21025 -11.20941 -11.20932 -11.20881 -11.20582
 Alpha  occ. eigenvalues --   -1.60011  -1.39565  -1.19476  -1.08874  -1.08011
 Alpha  occ. eigenvalues --   -1.04874  -1.03163  -0.95725  -0.95605  -0.86642
 Alpha  occ. eigenvalues --   -0.86269  -0.82550  -0.79242  -0.77826  -0.77593
 Alpha  occ. eigenvalues --   -0.72199  -0.71349  -0.70591  -0.65127  -0.64887
 Alpha  occ. eigenvalues --   -0.64621  -0.62223  -0.60608  -0.59012  -0.57234
 Alpha  occ. eigenvalues --   -0.55373  -0.55033  -0.53036  -0.52962  -0.52279
 Alpha  occ. eigenvalues --   -0.52047  -0.49570  -0.48962  -0.48953  -0.47557
 Alpha  occ. eigenvalues --   -0.46300  -0.45397  -0.45258  -0.44930  -0.43400
 Alpha  occ. eigenvalues --   -0.37411  -0.36362
 Alpha virt. eigenvalues --    0.04891   0.11114   0.16384   0.21031   0.23013
 Alpha virt. eigenvalues --    0.24532   0.25980   0.27177   0.27810   0.28221
 Alpha virt. eigenvalues --    0.29048   0.30919   0.31599   0.31911   0.32187

 Mulliken charges:
               1
     1  C   -0.297023
     2  C   -0.300989
     3  C   -0.475810
     4  H    0.150951
     5  H    0.144982
     6  H    0.160935
     7  H    0.149512
     8  H    0.151885
     9  H    0.156359
    10  H    0.159900
    11  C   -0.300209
    12  C   -0.303406
    13  C   -0.474775
    14  H    0.158885
    15  H    0.147897
    16  H    0.149350
    17  H    0.148679
    18  H    0.154893
    19  H    0.154403
    20  H    0.155840
    21  C   -0.170673
    22  C   -0.216808
    23  C   -0.171282
    24  C    0.163090
    25  C   -0.173314
    26  C   -0.216783
    27  H    0.226228
    28  H    0.224038
    29  H    0.275958
    30  H    0.275967
    31  H    0.224366
    32  N    0.487801
    33  O   -0.461344
    34  O   -0.459505
 Sum of Mulliken charges =  -0.00000

 Dipole moment (field-independent basis, Debye):
    X=             -3.1066    Y=             -3.9031    Z=              1.3635  Tot=              5.1715
 Quadrupole moment (field-independent basis, Debye-Ang):
   XX=            -82.2307   YY=           -101.3696   ZZ=            -91.6816
   XY=              5.2335   XZ=             -1.4504   YZ=             -0.3704

 Normal termination of Gaussian 16 at Wed May  5 21:58:20 2021.
