 Gaussian 16, Revision A.03,
 Gaussian 16:  EM64L-G16RevA.03 25-Dec-2016

 -------------
 #p 6-31g* mp2
 -------------

 ------------------------------------------------------
 Input file generated by CHIRIPA (05-May-2021 14:51:14)
 ------------------------------------------------------
 Symbolic Z-matrix:
 Charge =  0 Multiplicity = 1

                         Standard orientation:
 ---------------------------------------------------------------------
 Center     Atomic      Atomic             Coordinates (Angstroms)
 Number     Number       Type             X           Y           Z
 ---------------------------------------------------------------------
      1          6           0        3.564335   -0.109706   -0.080132
      2          6           0        4.993592   -0.200125   -0.615885
      3          6           0        5.520873   -1.634802   -0.654257
      4          1           0        3.529953   -0.541629    0.929425
      5          1           0        2.905580   -0.726811   -0.706725
      6          1           0        5.649214    0.418067    0.010705
      7          1           0        5.024615    0.232237   -1.624209
      8          1           0        4.890655   -2.259841   -1.295156
      9          1           0        5.518803   -2.072956    0.349047
     10          1           0        6.544099   -1.676266   -1.040455
     11          6           0        3.023212    1.318209   -0.035704
     12          6           0        1.593955    1.408627    0.500050
     13          6           0        1.066674    2.843304    0.538421
     14          1           0        3.681967    1.935313    0.590890
     15          1           0        3.057594    1.750132   -1.045261
     16          1           0        1.562932    0.976265    1.508373
     17          1           0        0.938333    0.790436   -0.126541
     18          1           0        1.068744    3.281458   -0.464882
     19          1           0        1.696892    3.468343    1.179321
     20          1           0        0.043448    2.884768    0.924619
     21          6           0       -2.872705   -1.190049    0.308865
     22          6           0       -1.389001   -0.851092    0.456218
     23          6           0       -0.559697   -2.033094    0.959131
     24          1           0       -3.263250   -1.527581    1.278655
     25          1           0       -2.981321   -2.036342   -0.383512
     26          1           0       -1.283315   -0.004799    1.147039
     27          1           0       -1.001989   -0.514146   -0.513991
     28          1           0       -0.635445   -2.878680    0.267865
     29          1           0       -0.918369   -2.366439    1.938333
     30          1           0        0.497827   -1.768727    1.057174
     31          6           0       -3.714841   -0.018453   -0.193030
     32          6           0       -5.198546   -0.357410   -0.340382
     33          6           0       -6.027850    0.824592   -0.843295
     34          1           0       -3.606227    0.827840    0.499347
     35          1           0       -3.324297    0.319078   -1.162820
     36          1           0       -5.585558   -0.694356    0.629826
     37          1           0       -5.304232   -1.203703   -1.031204
     38          1           0       -5.669177    1.157936   -1.822497
     39          1           0       -5.952102    1.670178   -0.152029
     40          1           0       -7.085373    0.560226   -0.941340
 ---------------------------------------------------------------------

 SCF Done:  E(RHF) =  -470.732475619     A.U. after   11 cycles
 E2 =    -0.1584034045D+01 EUMP2 =    -0.47231650966443D+03

 The electronic state is 1-A.
 Alpha  occ. eigenvalues --  -11.21603 -11.21600 -11.21567 -11.21479 -11.21397
 Alpha  occ. eigenvalues --  -11.21394 -11.21331 -11.21321 -11.21070 -11.21067
 Alpha  occ. eigenvalues --  -11.21034 -11.21007  -1.08456  -1.08378  -1.03582
 Alpha  occ. eigenvalues --   -1.03439  -0.95977  -0.95945  -0.86976  -0.86974
 Alpha  occ. eigenvalues --   -0.79769  -0.79428  -0.78379  -0.78072  -0.65110
 Alpha  occ. eigenvalues --   -0.64993  -0.61006  -0.60829  -0.59549  -0.59141
 Alpha  occ. eigenvalues --   -0.57682  -0.57447  -0.55259  -0.55237  -0.52724
 Alpha  occ. eigenvalues --   -0.52586  -0.52416  -0.52343  -0.49943  -0.49873
 Alpha  occ. eigenvalues --   -0.48103  -0.47730  -0.46776  -0.46477  -0.45952
 Alpha  occ. eigenvalues --   -0.45776  -0.45655  -0.45367  -0.43763  -0.43750
 Alpha virt. eigenvalues --    0.21343   0.23105   0.23657   0.24322   0.25570
 Alpha virt. eigenvalues --    0.26145   0.26507   0.27208   0.28576   0.29260
 Alpha virt. eigenvalues --    0.30344   0.31080   0.31482   0.31793   0.32353

 Mulliken charges:
               1
     1  C   -0.299725
     2  C   -0.299594
     3  C   -0.475736
     4  H    0.149576
     5  H    0.150026
     6  H    0.152069
     7  H    0.151958
     8  H    0.155233
     9  H    0.155248
    10  H    0.160244
    11  C   -0.297669
    12  C   -0.306737
    13  C   -0.476230
    14  H    0.149031
    15  H    0.149129
    16  H    0.151117
    17  H    0.162565
    18  H    0.154814
    19  H    0.154822
    20  H    0.160234
    21  C   -0.297438
    22  C   -0.301922
    23  C   -0.480188
    24  H    0.149502
    25  H    0.149255
    26  H    0.155032
    27  H    0.151192
    28  H    0.154506
    29  H    0.154832
    30  H    0.165310
    31  C   -0.298181
    32  C   -0.299602
    33  C   -0.475687
    34  H    0.149190
    35  H    0.149365
    36  H    0.151966
    37  H    0.151915
    38  H    0.155137
    39  H    0.155190
    40  H    0.160248
 Sum of Mulliken charges =  -0.00000

 Dipole moment (field-independent basis, Debye):
    X=             -0.0028    Y=             -0.0040    Z=             -0.0031  Tot=              0.0058
 Quadrupole moment (field-independent basis, Debye-Ang):
   XX=            -85.5795   YY=            -86.3428   ZZ=            -83.0505
   XY=              0.9897   XZ=             -0.0502   YZ=              0.5652

 Normal termination of Gaussian 16 at Thu May  6 05:36:39 2021.
