 Gaussian 16, Revision A.03,
 Gaussian 16:  EM64L-G16RevA.03 25-Dec-2016

 -------------
 #p 6-31g* mp2
 -------------

 ------------------------------------------------------
 Input file generated by CHIRIPA (05-May-2021 14:55:22)
 ------------------------------------------------------
 Symbolic Z-matrix:
 Charge =  0 Multiplicity = 1

                         Standard orientation:
 ---------------------------------------------------------------------
 Center     Atomic      Atomic             Coordinates (Angstroms)
 Number     Number       Type             X           Y           Z
 ---------------------------------------------------------------------
      1          6           0        1.707053    1.368769    0.801913
      2          6           0        2.030492    0.208493    1.513017
      3          6           0        3.114976   -0.583476    1.124135
      4          6           0        3.857851   -0.183687    0.014363
      5          6           0        3.560695    0.966802   -0.714585
      6          6           0        2.471838    1.743560   -0.307662
      7          1           0        0.862901    1.978082    1.111013
      8          1           0        1.438316   -0.085013    2.375122
      9          1           0        3.387514   -1.486596    1.656596
     10          1           0        4.169619    1.233679   -1.569808
     11          1           0        2.222972    2.644134   -0.861806
     12          7           0        5.008260   -1.014057   -0.406879
     13          8           0        5.647020   -0.640141   -1.388107
     14          8           0        5.249408   -2.023095    0.252157
     15          6           0       -4.045851    0.233872    0.255131
     16          6           0       -3.167240    1.220267   -0.514969
     17          6           0       -1.871436    1.558428    0.222819
     18          1           0       -4.283157    0.656431    1.241069
     19          1           0       -3.476253   -0.687642    0.438887
     20          1           0       -3.738793    2.139118   -0.698425
     21          1           0       -2.932157    0.795393   -1.499262
     22          1           0       -1.277694    0.654432    0.392711
     23          1           0       -2.088914    2.005792    1.198098
     24          1           0       -1.258559    2.265030   -0.345475
     25          6           0       -5.344869   -0.113982   -0.469629
     26          6           0       -6.223479   -1.100379    0.300471
     27          6           0       -7.519285   -1.438540   -0.437317
     28          1           0       -5.914466    0.807531   -0.653385
     29          1           0       -5.107563   -0.536543   -1.455567
     30          1           0       -6.458563   -0.675504    1.284764
     31          1           0       -5.651928   -2.019230    0.483927
     32          1           0       -7.301807   -1.885903   -1.412596
     33          1           0       -8.113026   -0.534543   -0.607208
     34          1           0       -8.132161   -2.145141    0.130976
 ---------------------------------------------------------------------

 SCF Done:  E(RHF) =  -669.535083882     A.U. after   15 cycles
 E2 =    -0.2091492253D+01 EUMP2 =    -0.67162657613592D+03

 The electronic state is 1-A.
 Alpha  occ. eigenvalues --  -20.60714 -20.60709 -15.85769 -11.31110 -11.27703
 Alpha  occ. eigenvalues --  -11.27699 -11.27353 -11.26682 -11.26671 -11.22409
 Alpha  occ. eigenvalues --  -11.22209 -11.22046 -11.22025 -11.21878 -11.21415
 Alpha  occ. eigenvalues --   -1.59791  -1.39345  -1.19291  -1.09051  -1.08679
 Alpha  occ. eigenvalues --   -1.04696  -1.04193  -0.96687  -0.95511  -0.87716
 Alpha  occ. eigenvalues --   -0.86089  -0.82357  -0.80280  -0.78828  -0.77410
 Alpha  occ. eigenvalues --   -0.71986  -0.71115  -0.70381  -0.65671  -0.64939
 Alpha  occ. eigenvalues --   -0.64700  -0.62048  -0.61580  -0.60078  -0.58259
 Alpha  occ. eigenvalues --   -0.55978  -0.55248  -0.53354  -0.53134  -0.52913
 Alpha  occ. eigenvalues --   -0.52783  -0.50592  -0.48745  -0.48743  -0.48578
 Alpha  occ. eigenvalues --   -0.47271  -0.46380  -0.46273  -0.44756  -0.44435
 Alpha  occ. eigenvalues --   -0.37214  -0.36312
 Alpha virt. eigenvalues --    0.05122   0.11282   0.16588   0.20854   0.22326
 Alpha virt. eigenvalues --    0.23817   0.25952   0.26484   0.26561   0.27338
 Alpha virt. eigenvalues --    0.28803   0.30158   0.30557   0.31209   0.31901

 Mulliken charges:
               1
     1  C   -0.169538
     2  C   -0.222505
     3  C   -0.170629
     4  C    0.157854
     5  C   -0.170700
     6  C   -0.221575
     7  H    0.235403
     8  H    0.223296
     9  H    0.275260
    10  H    0.275285
    11  H    0.222675
    12  N    0.488147
    13  O   -0.460756
    14  O   -0.460794
    15  C   -0.299305
    16  C   -0.299954
    17  C   -0.482910
    18  H    0.149420
    19  H    0.150296
    20  H    0.153893
    21  H    0.155728
    22  H    0.159102
    23  H    0.153163
    24  H    0.154903
    25  C   -0.298931
    26  C   -0.300098
    27  C   -0.476065
    28  H    0.150306
    29  H    0.151252
    30  H    0.151962
    31  H    0.152606
    32  H    0.156136
    33  H    0.155584
    34  H    0.161488
 Sum of Mulliken charges =  -0.00000

 Dipole moment (field-independent basis, Debye):
    X=             -4.2582    Y=              2.8993    Z=              1.4527  Tot=              5.3524
 Quadrupole moment (field-independent basis, Debye-Ang):
   XX=           -126.8721   YY=            -93.8711   ZZ=            -92.2083
   XY=             12.2059   XZ=              4.4214   YZ=             -2.7889

 Normal termination of Gaussian 16 at Thu May  6 15:52:23 2021.
