 Gaussian 16, Revision A.03,
 Gaussian 16:  EM64L-G16RevA.03 25-Dec-2016

 -------------
 #p 6-31g* mp2
 -------------

 ------------------------------------------------------
 Input file generated by CHIRIPA (05-May-2021 14:51:09)
 ------------------------------------------------------
 Symbolic Z-matrix:
 Charge =  0 Multiplicity = 1

                         Standard orientation:
 ---------------------------------------------------------------------
 Center     Atomic      Atomic             Coordinates (Angstroms)
 Number     Number       Type             X           Y           Z
 ---------------------------------------------------------------------
      1          6           0       -4.311431   -0.465128   -0.000893
      2          6           0       -5.546451    0.413673    0.200155
      3          6           0       -6.824925   -0.400480    0.401282
      4          1           0       -4.471874   -1.118931   -0.869078
      5          1           0       -4.193859   -1.124988    0.869828
      6          1           0       -5.660867    1.072647   -0.670062
      7          1           0       -5.382972    1.065595    1.067846
      8          1           0       -6.735905   -1.046501    1.280676
      9          1           0       -7.015379   -1.039409   -0.467107
     10          1           0       -7.695431    0.247567    0.543107
     11          6           0       -3.025480    0.334310   -0.203276
     12          6           0       -1.790461   -0.544490   -0.404324
     13          6           0       -0.511986    0.269663   -0.605451
     14          1           0       -3.143053    0.994171   -1.073997
     15          1           0       -2.865038    0.988114    0.664909
     16          1           0       -1.953939   -1.196413   -1.272015
     17          1           0       -1.676044   -1.203465    0.465893
     18          1           0       -0.321532    0.908591    0.262938
     19          1           0       -0.601006    0.915683   -1.484845
     20          1           0        0.358519   -0.378385   -0.747276
     21          6           0        3.500773    0.715655   -0.261914
     22          6           0        3.534842    1.945192    0.646415
     23          6           0        3.197238    3.238351   -0.096254
     24          1           0        4.207990    0.859832   -1.090167
     25          1           0        2.503011    0.630060   -0.714173
     26          1           0        4.531824    2.027655    1.097903
     27          1           0        2.827601    1.797988    1.472707
     28          1           0        2.194912    3.181372   -0.532943
     29          1           0        3.908818    3.412344   -0.909876
     30          1           0        3.227443    4.104655    0.571928
     31          6           0        3.836138   -0.584837    0.466084
     32          6           0        3.802069   -1.814375   -0.442245
     33          6           0        4.139673   -3.107534    0.300422
     34          1           0        4.833901   -0.499243    0.918342
     35          1           0        3.128922   -0.729015    1.294335
     36          1           0        4.509310   -1.667171   -1.268538
     37          1           0        2.805088   -1.896838   -0.893735
     38          1           0        3.428093   -3.281527    1.114044
     39          1           0        5.141999   -3.050554    0.737112
     40          1           0        4.109469   -3.973837   -0.367759
 ---------------------------------------------------------------------

 SCF Done:  E(RHF) =  -470.733052957     A.U. after   11 cycles
 E2 =    -0.1583157267D+01 EUMP2 =    -0.47231621022415D+03

 The electronic state is 1-A.
 Alpha  occ. eigenvalues --  -11.21686 -11.21635 -11.21595 -11.21519 -11.21459
 Alpha  occ. eigenvalues --  -11.21397 -11.21328 -11.21213 -11.21192 -11.21097
 Alpha  occ. eigenvalues --  -11.21060 -11.20993  -1.08491  -1.08362  -1.03598
 Alpha  occ. eigenvalues --   -1.03476  -0.96062  -0.95913  -0.87085  -0.86931
 Alpha  occ. eigenvalues --   -0.79679  -0.79535  -0.78305  -0.78163  -0.65126
 Alpha  occ. eigenvalues --   -0.65015  -0.60999  -0.60870  -0.59434  -0.59290
 Alpha  occ. eigenvalues --   -0.57681  -0.57515  -0.55338  -0.55213  -0.52803
 Alpha  occ. eigenvalues --   -0.52616  -0.52473  -0.52321  -0.49994  -0.49852
 Alpha  occ. eigenvalues --   -0.47996  -0.47845  -0.46688  -0.46579  -0.45858
 Alpha  occ. eigenvalues --   -0.45763  -0.45712  -0.45650  -0.43770  -0.43694
 Alpha virt. eigenvalues --    0.20707   0.23000   0.23471   0.24653   0.25801
 Alpha virt. eigenvalues --    0.26537   0.26960   0.27529   0.27940   0.29092
 Alpha virt. eigenvalues --    0.30024   0.31105   0.31759   0.32003   0.32227

 Mulliken charges:
               1
     1  C   -0.298336
     2  C   -0.299667
     3  C   -0.475738
     4  H    0.149783
     5  H    0.149598
     6  H    0.152029
     7  H    0.152013
     8  H    0.155228
     9  H    0.155242
    10  H    0.160388
    11  C   -0.298774
    12  C   -0.299929
    13  C   -0.481260
    14  H    0.149738
    15  H    0.149759
    16  H    0.152382
    17  H    0.152101
    18  H    0.155930
    19  H    0.155891
    20  H    0.164247
    21  C   -0.306569
    22  C   -0.298864
    23  C   -0.476562
    24  H    0.148728
    25  H    0.160473
    26  H    0.151356
    27  H    0.151314
    28  H    0.156409
    29  H    0.154873
    30  H    0.159667
    31  C   -0.298019
    32  C   -0.301962
    33  C   -0.475554
    34  H    0.149383
    35  H    0.149430
    36  H    0.152238
    37  H    0.152465
    38  H    0.155107
    39  H    0.155328
    40  H    0.160133
 Sum of Mulliken charges =  -0.00000

 Dipole moment (field-independent basis, Debye):
    X=             -0.0530    Y=             -0.0047    Z=             -0.0162  Tot=              0.0556
 Quadrupole moment (field-independent basis, Debye-Ang):
   XX=            -84.9572   YY=            -86.0875   ZZ=            -83.8845
   XY=             -0.1325   XZ=             -0.0065   YZ=              0.4234

 Normal termination of Gaussian 16 at Thu May  6 00:35:10 2021.
