 Gaussian 16, Revision A.03,
 Gaussian 16:  EM64L-G16RevA.03 25-Dec-2016

 -------------
 #p 6-31g* mp2
 -------------

 ------------------------------------------------------
 Input file generated by CHIRIPA (05-May-2021 14:51:10)
 ------------------------------------------------------
 Symbolic Z-matrix:
 Charge =  0 Multiplicity = 1

                         Standard orientation:
 ---------------------------------------------------------------------
 Center     Atomic      Atomic             Coordinates (Angstroms)
 Number     Number       Type             X           Y           Z
 ---------------------------------------------------------------------
      1          6           0       -2.410165   -1.450381    0.004152
      2          6           0       -1.059238   -2.023576   -0.425300
      3          6           0       -1.012251   -3.549742   -0.345271
      4          1           0       -2.627744   -1.771958    1.031864
      5          1           0       -3.199723   -1.876233   -0.630390
      6          1           0       -0.272304   -1.595715    0.208960
      7          1           0       -0.844762   -1.700439   -1.452042
      8          1           0       -1.776605   -3.993116   -0.991633
      9          1           0       -1.200895   -3.887797    0.678805
     10          1           0       -0.037609   -3.938271   -0.656682
     11          6           0       -2.472695    0.074171   -0.070418
     12          6           0       -3.823622    0.647366    0.359034
     13          6           0       -3.870609    2.173532    0.279006
     14          1           0       -1.683137    0.500023    0.564124
     15          1           0       -2.255116    0.395748   -1.098130
     16          1           0       -4.038099    0.324229    1.385776
     17          1           0       -4.610556    0.219505   -0.275225
     18          1           0       -3.681965    2.511587   -0.745071
     19          1           0       -3.106255    2.616906    0.925368
     20          1           0       -4.845252    2.562061    0.590416
     21          6           0        2.205252    1.265728   -0.407325
     22          6           0        2.037272    2.580361    0.355243
     23          6           0        1.564303    3.726481   -0.539467
     24          1           0        2.922421    1.413360   -1.226360
     25          1           0        1.248059    0.996187   -0.874790
     26          1           0        2.994139    2.846632    0.822278
     27          1           0        1.320564    2.429534    1.172677
     28          1           0        0.598137    3.486195   -0.994866
     29          1           0        2.281221    3.905662   -1.347256
     30          1           0        1.450867    4.656667    0.025993
     31          6           0        2.677608    0.110481    0.473590
     32          6           0        2.845589   -1.204152   -0.288977
     33          6           0        3.318557   -2.350271    0.605733
     34          1           0        3.634801    0.380024    0.941055
     35          1           0        1.960440   -0.037149    1.292626
     36          1           0        3.562296   -1.053324   -1.106410
     37          1           0        1.888722   -1.470421   -0.756012
     38          1           0        2.601639   -2.529452    1.413522
     39          1           0        4.284722   -2.109985    1.061133
     40          1           0        3.431993   -3.280457    0.040272
 ---------------------------------------------------------------------

 SCF Done:  E(RHF) =  -470.733021813     A.U. after   11 cycles
 E2 =    -0.1584326087D+01 EUMP2 =    -0.47231734790023D+03

 The electronic state is 1-A.
 Alpha  occ. eigenvalues --  -11.21682 -11.21668 -11.21578 -11.21494 -11.21487
 Alpha  occ. eigenvalues --  -11.21432 -11.21369 -11.21305 -11.21136 -11.21121
 Alpha  occ. eigenvalues --  -11.21045 -11.21037  -1.08530  -1.08378  -1.03629
 Alpha  occ. eigenvalues --   -1.03468  -0.96055  -0.95938  -0.87071  -0.86953
 Alpha  occ. eigenvalues --   -0.79740  -0.79504  -0.78396  -0.78145  -0.65279
 Alpha  occ. eigenvalues --   -0.64918  -0.61156  -0.60793  -0.59435  -0.59262
 Alpha  occ. eigenvalues --   -0.57690  -0.57513  -0.55352  -0.55203  -0.52748
 Alpha  occ. eigenvalues --   -0.52625  -0.52477  -0.52363  -0.50034  -0.49856
 Alpha  occ. eigenvalues --   -0.48130  -0.47772  -0.46744  -0.46538  -0.46128
 Alpha  occ. eigenvalues --   -0.45844  -0.45673  -0.45330  -0.43855  -0.43740
 Alpha virt. eigenvalues --    0.19759   0.22176   0.23641   0.25022   0.25705
 Alpha virt. eigenvalues --    0.25761   0.26693   0.27957   0.28838   0.29907
 Alpha virt. eigenvalues --    0.30177   0.31193   0.31539   0.31778   0.32644

 Mulliken charges:
               1
     1  C   -0.297690
     2  C   -0.305886
     3  C   -0.477224
     4  H    0.149828
     5  H    0.149933
     6  H    0.157593
     7  H    0.151995
     8  H    0.155629
     9  H    0.155438
    10  H    0.162008
    11  C   -0.299607
    12  C   -0.299734
    13  C   -0.475863
    14  H    0.149707
    15  H    0.149650
    16  H    0.152176
    17  H    0.152311
    18  H    0.155242
    19  H    0.155332
    20  H    0.160626
    21  C   -0.300456
    22  C   -0.299390
    23  C   -0.475939
    24  H    0.149469
    25  H    0.152335
    26  H    0.151780
    27  H    0.151125
    28  H    0.155891
    29  H    0.154999
    30  H    0.160071
    31  C   -0.298749
    32  C   -0.307889
    33  C   -0.475794
    34  H    0.149630
    35  H    0.148310
    36  H    0.151697
    37  H    0.161717
    38  H    0.154841
    39  H    0.155115
    40  H    0.159771
 Sum of Mulliken charges =  -0.00000

 Dipole moment (field-independent basis, Debye):
    X=             -0.0523    Y=             -0.0202    Z=             -0.0198  Tot=              0.0595
 Quadrupole moment (field-independent basis, Debye-Ang):
   XX=            -83.9291   YY=            -86.7665   ZZ=            -84.0743
   XY=              0.8034   XZ=             -0.0827   YZ=              0.5008

 Normal termination of Gaussian 16 at Wed May  5 18:13:33 2021.
