 Gaussian 16, Revision A.03,
 Gaussian 16:  EM64L-G16RevA.03 25-Dec-2016

 -------------
 #p 6-31g* mp2
 -------------

 ------------------------------------------------------
 Input file generated by CHIRIPA (05-May-2021 14:57:22)
 ------------------------------------------------------
 Symbolic Z-matrix:
 Charge =  0 Multiplicity = 1

                         Standard orientation:
 ---------------------------------------------------------------------
 Center     Atomic      Atomic             Coordinates (Angstroms)
 Number     Number       Type             X           Y           Z
 ---------------------------------------------------------------------
      1          6           0       -1.954810    0.690946   -0.221408
      2          6           0       -2.352946   -0.600467   -0.582325
      3          6           0       -3.701852   -0.965449   -0.540046
      4          6           0       -4.630107   -0.009595   -0.130198
      5          6           0       -4.264705    1.285011    0.235545
      6          6           0       -2.910276    1.627912    0.185657
      7          1           0       -0.904802    0.965897   -0.257207
      8          1           0       -1.613111   -1.330192   -0.898853
      9          1           0       -4.037668   -1.958214   -0.814026
     10          1           0       -5.025307    1.990672    0.546906
     11          1           0       -2.603971    2.631574    0.466518
     12          7           0       -6.061057   -0.384297   -0.081411
     13          8           0       -6.859350    0.476187    0.283187
     14          8           0       -6.357247   -1.531378   -0.408694
     15          6           0        6.763566   -0.046495   -0.729128
     16          6           0        5.986580    1.113950   -0.807735
     17          6           0        4.672602    1.122327   -0.330303
     18          6           0        4.165214   -0.052708    0.222092
     19          6           0        4.914275   -1.224739    0.314519
     20          6           0        6.225881   -1.210085   -0.169240
     21          1           0        7.783374   -0.044056   -1.102467
     22          1           0        6.401533    2.019064   -1.242049
     23          1           0        4.048966    2.006720   -0.378708
     24          1           0        4.473029   -2.111679    0.752762
     25          1           0        6.826980   -2.112768   -0.106888
     26          7           0        2.775420   -0.056032    0.730876
     27          8           0        2.351712   -1.104174    1.213065
     28          8           0        2.136123    0.989570    0.637840
 ---------------------------------------------------------------------

 SCF Done:  E(RHF) =  -868.340503549     A.U. after   16 cycles
 E2 =    -0.2598075675D+01 EUMP2 =    -0.87093857922420D+03

 The electronic state is 1-A.
 Alpha  occ. eigenvalues --  -20.61933 -20.61908 -20.59974 -20.59969 -15.86936
 Alpha  occ. eigenvalues --  -15.85023 -11.32004 -11.30166 -11.28543 -11.28522
 Alpha  occ. eigenvalues --  -11.28211 -11.27478 -11.27463 -11.26748 -11.26733
 Alpha  occ. eigenvalues --  -11.26204 -11.25632 -11.25597  -1.60981  -1.59056
 Alpha  occ. eigenvalues --   -1.40541  -1.38616  -1.20145  -1.18307  -1.09595
 Alpha  occ. eigenvalues --   -1.07696  -1.05501  -1.03695  -0.96479  -0.94573
 Alpha  occ. eigenvalues --   -0.86912  -0.85076  -0.83321  -0.81434  -0.78403
 Alpha  occ. eigenvalues --   -0.76552  -0.73166  -0.72282  -0.71245  -0.71244
 Alpha  occ. eigenvalues --   -0.70379  -0.69286  -0.65799  -0.65496  -0.63940
 Alpha  occ. eigenvalues --   -0.63679  -0.62851  -0.61064  -0.56007  -0.54029
 Alpha  occ. eigenvalues --   -0.53843  -0.53585  -0.52020  -0.51771  -0.49930
 Alpha  occ. eigenvalues --   -0.49890  -0.48013  -0.47980  -0.46007  -0.44073
 Alpha  occ. eigenvalues --   -0.38104  -0.37091  -0.36200  -0.35322
 Alpha virt. eigenvalues --    0.04085   0.06000   0.10569   0.12355   0.15636
 Alpha virt. eigenvalues --    0.17573   0.20749   0.22691   0.26683   0.27604
 Alpha virt. eigenvalues --    0.28367   0.29664   0.30384   0.31761   0.32415

 Mulliken charges:
               1
     1  C   -0.174409
     2  C   -0.219472
     3  C   -0.172117
     4  C    0.156804
     5  C   -0.172008
     6  C   -0.220774
     7  H    0.246054
     8  H    0.224301
     9  H    0.272115
    10  H    0.271995
    11  H    0.222068
    12  N    0.488362
    13  O   -0.463363
    14  O   -0.463246
    15  C   -0.169621
    16  C   -0.218440
    17  C   -0.170699
    18  C    0.157253
    19  C   -0.170486
    20  C   -0.218500
    21  H    0.228402
    22  H    0.225611
    23  H    0.274698
    24  H    0.276640
    25  H    0.226064
    26  N    0.488967
    27  O   -0.457359
    28  O   -0.468842
 Sum of Mulliken charges =  -0.00000

 Dipole moment (field-independent basis, Debye):
    X=             10.6162    Y=              1.3014    Z=             -1.9578  Tot=             10.8733
 Quadrupole moment (field-independent basis, Debye-Ang):
   XX=           -111.8491   YY=            -96.1624   ZZ=           -106.3142
   XY=             -8.3841   XZ=             -6.8985   YZ=              0.0394

 Normal termination of Gaussian 16 at Thu May  6 14:31:28 2021.
