 Gaussian 16, Revision A.03,
 Gaussian 16:  EM64L-G16RevA.03 25-Dec-2016

 -------------
 #p 6-31g* mp2
 -------------

 ------------------------------------------------------
 Input file generated by CHIRIPA (05-May-2021 14:51:07)
 ------------------------------------------------------
 Symbolic Z-matrix:
 Charge =  0 Multiplicity = 1

                         Standard orientation:
 ---------------------------------------------------------------------
 Center     Atomic      Atomic             Coordinates (Angstroms)
 Number     Number       Type             X           Y           Z
 ---------------------------------------------------------------------
      1          6           0       -2.911392    0.334031    0.044267
      2          6           0       -4.362010    0.816577    0.073300
      3          6           0       -4.477707    2.331805    0.242098
      4          1           0       -2.411152    0.640171    0.973237
      5          1           0       -2.381381    0.836862   -0.776491
      6          1           0       -4.889488    0.311949    0.892893
      7          1           0       -4.858907    0.509087   -0.855764
      8          1           0       -3.976349    2.850558   -0.581392
      9          1           0       -4.007103    2.652300    1.177200
     10          1           0       -5.523190    2.655062    0.260258
     11          6           0       -2.779360   -1.178582   -0.123951
     12          6           0       -1.328742   -1.661127   -0.152983
     13          6           0       -1.213045   -3.176355   -0.321782
     14          1           0       -3.309371   -1.681413    0.696808
     15          1           0       -3.279599   -1.484721   -1.052920
     16          1           0       -0.831844   -1.353637    0.776080
     17          1           0       -0.801264   -1.156499   -0.972577
     18          1           0       -1.683649   -3.496850   -1.256884
     19          1           0       -1.714402   -3.695108    0.501709
     20          1           0       -0.167562   -3.499613   -0.339941
     21          6           0        2.798384    1.114831    0.358572
     22          6           0        2.831824    2.254670   -0.660071
     23          6           0        2.736931    3.633970   -0.007138
     24          1           0        1.871220    1.181915    0.944075
     25          1           0        3.626716    1.242954    1.069097
     26          1           0        2.004502    2.123671   -1.369290
     27          1           0        3.758926    2.184753   -1.243345
     28          1           0        3.569522    3.789964    0.686447
     29          1           0        1.805128    3.728536    0.559786
     30          1           0        2.762652    4.434076   -0.753481
     31          6           0        2.892368   -0.270281   -0.278889
     32          6           0        2.858928   -1.410120    0.739755
     33          6           0        2.953821   -2.789420    0.086821
     34          1           0        2.064036   -0.398404   -0.989413
     35          1           0        3.819532   -0.337364   -0.864392
     36          1           0        1.931826   -1.340203    1.323030
     37          1           0        3.686250   -1.279121    1.448975
     38          1           0        3.885624   -2.883986   -0.480103
     39          1           0        2.121230   -2.945413   -0.606763
     40          1           0        2.928100   -3.589526    0.833164
 ---------------------------------------------------------------------

 SCF Done:  E(RHF) =  -470.733126074     A.U. after   11 cycles
 E2 =    -0.1583621877D+01 EUMP2 =    -0.47231674795053D+03

 The electronic state is 1-A.
 Alpha  occ. eigenvalues --  -11.21680 -11.21644 -11.21582 -11.21577 -11.21464
 Alpha  occ. eigenvalues --  -11.21405 -11.21373 -11.21313 -11.21105 -11.21076
 Alpha  occ. eigenvalues --  -11.21062 -11.21052  -1.08493  -1.08398  -1.03602
 Alpha  occ. eigenvalues --   -1.03491  -0.96048  -0.95940  -0.87076  -0.86946
 Alpha  occ. eigenvalues --   -0.79664  -0.79557  -0.78303  -0.78218  -0.65118
 Alpha  occ. eigenvalues --   -0.65046  -0.61026  -0.60955  -0.59352  -0.59329
 Alpha  occ. eigenvalues --   -0.57662  -0.57549  -0.55311  -0.55252  -0.52767
 Alpha  occ. eigenvalues --   -0.52636  -0.52497  -0.52309  -0.49963  -0.49906
 Alpha  occ. eigenvalues --   -0.47942  -0.47889  -0.46787  -0.46520  -0.45917
 Alpha  occ. eigenvalues --   -0.45856  -0.45667  -0.45551  -0.43821  -0.43757
 Alpha virt. eigenvalues --    0.19935   0.23107   0.23540   0.25036   0.25355
 Alpha virt. eigenvalues --    0.25790   0.26823   0.27832   0.28761   0.29179
 Alpha virt. eigenvalues --    0.30566   0.30788   0.31431   0.31781   0.32179

 Mulliken charges:
               1
     1  C   -0.298278
     2  C   -0.299682
     3  C   -0.475772
     4  H    0.149293
     5  H    0.149254
     6  H    0.152103
     7  H    0.152116
     8  H    0.155237
     9  H    0.155179
    10  H    0.160470
    11  C   -0.298221
    12  C   -0.302806
    13  C   -0.482408
    14  H    0.149927
    15  H    0.149989
    16  H    0.153439
    17  H    0.152400
    18  H    0.155178
    19  H    0.155447
    20  H    0.167200
    21  C   -0.298387
    22  C   -0.299497
    23  C   -0.475753
    24  H    0.149995
    25  H    0.149278
    26  H    0.151689
    27  H    0.151791
    28  H    0.155077
    29  H    0.155408
    30  H    0.160121
    31  C   -0.299965
    32  C   -0.301533
    33  C   -0.480205
    34  H    0.151753
    35  H    0.149308
    36  H    0.154529
    37  H    0.151780
    38  H    0.155416
    39  H    0.159088
    40  H    0.160041
 Sum of Mulliken charges =  -0.00000

 Dipole moment (field-independent basis, Debye):
    X=             -0.0193    Y=             -0.0101    Z=              0.0022  Tot=              0.0219
 Quadrupole moment (field-independent basis, Debye-Ang):
   XX=            -83.8222   YY=            -87.0632   ZZ=            -83.8515
   XY=              0.3591   XZ=              0.0972   YZ=             -0.5818

 Normal termination of Gaussian 16 at Thu May  6 05:14:57 2021.
