 Gaussian 16, Revision A.03,
 Gaussian 16:  EM64L-G16RevA.03 25-Dec-2016

 -------------
 #p 6-31g* mp2
 -------------

 ------------------------------------------------------
 Input file generated by CHIRIPA (05-May-2021 14:53:13)
 ------------------------------------------------------
 Symbolic Z-matrix:
 Charge =  0 Multiplicity = 1

                         Standard orientation:
 ---------------------------------------------------------------------
 Center     Atomic      Atomic             Coordinates (Angstroms)
 Number     Number       Type             X           Y           Z
 ---------------------------------------------------------------------
      1          6           0        3.707475    0.020043    0.163821
      2          6           0        2.862681   -0.917716    1.026906
      3          6           0        1.373552   -0.572701    0.991490
      4          1           0        3.560943    1.053892    0.505332
      5          1           0        3.345178   -0.021050   -0.872734
      6          1           0        3.227353   -0.875912    2.061258
      7          1           0        3.011389   -1.949473    0.683424
      8          1           0        0.988338   -0.633119   -0.031525
      9          1           0        1.205528    0.446542    1.354137
     10          1           0        0.788303   -1.255530    1.615260
     11          6           0        5.198368   -0.312124    0.188950
     12          6           0        6.043162    0.625635   -0.674135
     13          6           0        7.532290    0.280620   -0.638719
     14          1           0        5.560665   -0.271031    1.225505
     15          1           0        5.344899   -1.345973   -0.152561
     16          1           0        5.894454    1.657392   -0.330653
     17          1           0        5.678490    0.583831   -1.708486
     18          1           0        7.700314   -0.738623   -1.001366
     19          1           0        7.917505    0.341039    0.384296
     20          1           0        8.117540    0.963449   -1.262489
     21          6           0       -3.174706    2.607550    0.099053
     22          6           0       -2.058922    1.777300   -0.050050
     23          6           0       -2.215548    0.394341   -0.182114
     24          6           0       -3.508248   -0.126964   -0.160699
     25          6           0       -4.639661    0.674022   -0.013681
     26          6           0       -4.459250    2.054237    0.116731
     27          1           0       -3.043797    3.680800    0.201000
     28          1           0       -1.060138    2.204238   -0.064131
     29          1           0       -1.369155   -0.271539   -0.298899
     30          1           0       -5.622750    0.219216   -0.003349
     31          1           0       -5.327607    2.696595    0.232383
     32          7           0       -3.686651   -1.589588   -0.299635
     33          8           0       -4.836116   -2.024196   -0.277641
     34          8           0       -2.673640   -2.273690   -0.427894
 ---------------------------------------------------------------------

 SCF Done:  E(RHF) =  -669.535584630     A.U. after   15 cycles
 E2 =    -0.2091243003D+01 EUMP2 =    -0.67162682763328D+03

 The electronic state is 1-A.
 Alpha  occ. eigenvalues --  -20.60696 -20.60691 -15.85747 -11.31076 -11.27669
 Alpha  occ. eigenvalues --  -11.27593 -11.27413 -11.26682 -11.26649 -11.21943
 Alpha  occ. eigenvalues --  -11.21824 -11.21730 -11.21648 -11.21608 -11.21238
 Alpha  occ. eigenvalues --   -1.59771  -1.39325  -1.19258  -1.08729  -1.08665
 Alpha  occ. eigenvalues --   -1.04658  -1.03845  -0.96322  -0.95499  -0.87352
 Alpha  occ. eigenvalues --   -0.86057  -0.82332  -0.79928  -0.78540  -0.77371
 Alpha  occ. eigenvalues --   -0.71968  -0.71094  -0.70378  -0.65358  -0.64912
 Alpha  occ. eigenvalues --   -0.64668  -0.62037  -0.61226  -0.59661  -0.57910
 Alpha  occ. eigenvalues --   -0.55638  -0.55168  -0.53089  -0.52964  -0.52811
 Alpha  occ. eigenvalues --   -0.52610  -0.50254  -0.48725  -0.48723  -0.48228
 Alpha  occ. eigenvalues --   -0.46932  -0.46085  -0.45993  -0.44739  -0.44082
 Alpha  occ. eigenvalues --   -0.37252  -0.36254
 Alpha virt. eigenvalues --    0.05138   0.11379   0.16620   0.20579   0.22669
 Alpha virt. eigenvalues --    0.23940   0.25582   0.26133   0.27343   0.27898
 Alpha virt. eigenvalues --    0.29307   0.29826   0.31528   0.31651   0.32178

 Mulliken charges:
               1
     1  C   -0.298981
     2  C   -0.299607
     3  C   -0.482704
     4  H    0.146600
     5  H    0.149592
     6  H    0.153884
     7  H    0.157637
     8  H    0.151039
     9  H    0.149592
    10  H    0.171235
    11  C   -0.298659
    12  C   -0.299807
    13  C   -0.475910
    14  H    0.150189
    15  H    0.151846
    16  H    0.150825
    17  H    0.152191
    18  H    0.156309
    19  H    0.155479
    20  H    0.160553
    21  C   -0.170715
    22  C   -0.222628
    23  C   -0.177942
    24  C    0.158631
    25  C   -0.170350
    26  C   -0.219106
    27  H    0.225092
    28  H    0.224073
    29  H    0.287624
    30  H    0.275193
    31  H    0.222975
    32  N    0.487284
    33  O   -0.460827
    34  O   -0.460606
 Sum of Mulliken charges =  -0.00000

 Dipole moment (field-independent basis, Debye):
    X=              0.7868    Y=              5.0549    Z=              0.5333  Tot=              5.1435
 Quadrupole moment (field-independent basis, Debye-Ang):
   XX=            -95.1865   YY=            -96.1993   ZZ=            -95.1082
   XY=            -19.0327   XZ=             -2.0040   YZ=             -0.4476

 Normal termination of Gaussian 16 at Thu May  6 18:42:28 2021.
