 Gaussian 16, Revision A.03,
 Gaussian 16:  EM64L-G16RevA.03 25-Dec-2016

 -------------
 #p 6-31g* mp2
 -------------

 ------------------------------------------------------
 Input file generated by CHIRIPA (05-May-2021 14:53:11)
 ------------------------------------------------------
 Symbolic Z-matrix:
 Charge =  0 Multiplicity = 1

                         Standard orientation:
 ---------------------------------------------------------------------
 Center     Atomic      Atomic             Coordinates (Angstroms)
 Number     Number       Type             X           Y           Z
 ---------------------------------------------------------------------
      1          6           0       -4.000285    0.889662    0.043545
      2          6           0       -2.808058    1.695442   -0.473463
      3          6           0       -3.029868    3.205363   -0.380008
      4          1           0       -4.896987    1.166038   -0.527846
      5          1           0       -4.197027    1.168342    1.088067
      6          1           0       -2.612756    1.414317   -1.516268
      7          1           0       -1.914052    1.416977    0.099098
      8          1           0       -3.202686    3.505799    0.658487
      9          1           0       -3.905360    3.503124   -0.966056
     10          1           0       -2.165349    3.762097   -0.754861
     11          6           0       -3.793627   -0.621453   -0.043354
     12          6           0       -4.985855   -1.427233    0.473655
     13          6           0       -4.764045   -2.937154    0.380200
     14          1           0       -3.596885   -0.900133   -1.087875
     15          1           0       -2.896926   -0.897828    0.528038
     16          1           0       -5.879861   -1.148767   -0.098906
     17          1           0       -5.181157   -1.146108    1.516460
     18          1           0       -3.888552   -3.234915    0.966248
     19          1           0       -4.591227   -3.237590   -0.658295
     20          1           0       -5.628563   -3.493888    0.755053
     21          6           0        5.537511   -0.457543    0.162274
     22          6           0        4.811562   -1.057269   -0.872061
     23          6           0        3.429880   -0.868715   -0.971819
     24          6           0        2.803482   -0.070665   -0.015770
     25          6           0        3.499139    0.540309    1.026373
     26          6           0        4.880142    0.337930    1.106525
     27          1           0        6.610570   -0.609386    0.232153
     28          1           0        5.319443   -1.675553   -1.606791
     29          1           0        2.843502   -1.321135   -1.762323
     30          1           0        2.965031    1.151283    1.743908
     31          1           0        5.441367    0.804929    1.910876
     32          7           0        1.341117    0.136268   -0.111002
     33          8           0        0.812754    0.843878    0.743841
     34          8           0        0.750970   -0.413068   -1.038683
 ---------------------------------------------------------------------

 SCF Done:  E(RHF) =  -669.536646838     A.U. after   15 cycles
 E2 =    -0.2091493457D+01 EUMP2 =    -0.67162814029507D+03

 The electronic state is 1-A.
 Alpha  occ. eigenvalues --  -20.61081 -20.61064 -15.86078 -11.31368 -11.27922
 Alpha  occ. eigenvalues --  -11.27918 -11.27652 -11.26919 -11.26909 -11.20526
 Alpha  occ. eigenvalues --  -11.20177 -11.19960 -11.19890 -11.19645 -11.19575
 Alpha  occ. eigenvalues --   -1.60112  -1.39671  -1.19528  -1.08939  -1.06999
 Alpha  occ. eigenvalues --   -1.04917  -1.02153  -0.95786  -0.94673  -0.86320
 Alpha  occ. eigenvalues --   -0.85699  -0.82621  -0.78217  -0.77680  -0.76726
 Alpha  occ. eigenvalues --   -0.72289  -0.71420  -0.70636  -0.65183  -0.64920
 Alpha  occ. eigenvalues --   -0.63639  -0.62264  -0.59557  -0.58055  -0.56249
 Alpha  occ. eigenvalues --   -0.55423  -0.53984  -0.53251  -0.53008  -0.51410
 Alpha  occ. eigenvalues --   -0.51087  -0.49166  -0.49045  -0.48612  -0.46508
 Alpha  occ. eigenvalues --   -0.45223  -0.45086  -0.44295  -0.44080  -0.42404
 Alpha  occ. eigenvalues --   -0.37505  -0.36516
 Alpha virt. eigenvalues --    0.04850   0.11140   0.16360   0.21279   0.24210
 Alpha virt. eigenvalues --    0.25609   0.27201   0.28045   0.28188   0.28976
 Alpha virt. eigenvalues --    0.29300   0.30861   0.32373   0.32688   0.33106

 Mulliken charges:
               1
     1  C   -0.297643
     2  C   -0.310903
     3  C   -0.474088
     4  H    0.142497
     5  H    0.144802
     6  H    0.150115
     7  H    0.183393
     8  H    0.150644
     9  H    0.147772
    10  H    0.157495
    11  C   -0.297256
    12  C   -0.298783
    13  C   -0.474468
    14  H    0.149916
    15  H    0.157133
    16  H    0.148505
    17  H    0.149081
    18  H    0.154588
    19  H    0.154191
    20  H    0.155829
    21  C   -0.170436
    22  C   -0.218598
    23  C   -0.170669
    24  C    0.158279
    25  C   -0.170700
    26  C   -0.218556
    27  H    0.226262
    28  H    0.224100
    29  H    0.276073
    30  H    0.275881
    31  H    0.224069
    32  N    0.488869
    33  O   -0.459708
    34  O   -0.457684
 Sum of Mulliken charges =  -0.00000

 Dipole moment (field-independent basis, Debye):
    X=              5.6545    Y=             -0.8137    Z=              0.3409  Tot=              5.7229
 Quadrupole moment (field-independent basis, Debye-Ang):
   XX=            -68.0626   YY=            -95.7270   ZZ=            -90.9041
   XY=             -2.1448   XZ=              1.4015   YZ=              2.9886

 Normal termination of Gaussian 16 at Thu May  6 02:28:01 2021.
