 Gaussian 16, Revision A.03,
 Gaussian 16:  EM64L-G16RevA.03 25-Dec-2016

 -------------
 #p 6-31g* mp2
 -------------

 ------------------------------------------------------
 Input file generated by CHIRIPA (05-May-2021 14:57:24)
 ------------------------------------------------------
 Symbolic Z-matrix:
 Charge =  0 Multiplicity = 1

                         Standard orientation:
 ---------------------------------------------------------------------
 Center     Atomic      Atomic             Coordinates (Angstroms)
 Number     Number       Type             X           Y           Z
 ---------------------------------------------------------------------
      1          6           0        4.506290    2.246979    0.060133
      2          6           0        5.164749    1.100555    0.516930
      3          6           0        4.562885   -0.156279    0.404340
      4          6           0        3.296130   -0.230424   -0.172829
      5          6           0        2.614555    0.893394   -0.637347
      6          6           0        3.235535    2.139929   -0.514535
      7          1           0        4.981258    3.219318    0.151566
      8          1           0        6.151696    1.180685    0.963652
      9          1           0        5.050109   -1.060032    0.749684
     10          1           0        1.631371    0.781832   -1.078165
     11          1           0        2.721806    3.028556   -0.870160
     12          7           0        2.648845   -1.555527   -0.297434
     13          8           0        1.532280   -1.594098   -0.809715
     14          8           0        3.270324   -2.530479    0.119541
     15          6           0       -2.439787   -2.311274    0.354179
     16          6           0       -1.737073   -1.215355    0.865718
     17          6           0       -2.261059    0.076427    0.759480
     18          6           0       -3.495912    0.236640    0.132774
     19          6           0       -4.220069   -0.835207   -0.386870
     20          6           0       -3.676861   -2.118044   -0.269384
     21          1           0       -2.025276   -3.311288    0.441076
     22          1           0       -0.776129   -1.362432    1.350488
     23          1           0       -1.738241    0.942539    1.146687
     24          1           0       -5.175719   -0.657107   -0.864815
     25          1           0       -4.224821   -2.967296   -0.667576
     26          7           0       -4.060807    1.599457    0.014351
     27          8           0       -5.150627    1.714022   -0.542250
     28          8           0       -3.403055    2.527263    0.480373
 ---------------------------------------------------------------------

 SCF Done:  E(RHF) =  -868.339695698     A.U. after   16 cycles
 E2 =    -0.2598760969D+01 EUMP2 =    -0.87093845666731D+03

 The electronic state is 1-A.
 Alpha  occ. eigenvalues --  -20.61525 -20.61509 -20.60439 -20.60423 -15.86541
 Alpha  occ. eigenvalues --  -15.85477 -11.31675 -11.30608 -11.28211 -11.28191
 Alpha  occ. eigenvalues --  -11.27883 -11.27167 -11.27136 -11.27129 -11.27125
 Alpha  occ. eigenvalues --  -11.26705 -11.26091 -11.25986  -1.60598  -1.59514
 Alpha  occ. eigenvalues --   -1.40152  -1.39075  -1.19820  -1.18726  -1.09257
 Alpha  occ. eigenvalues --   -1.08137  -1.05177  -1.04095  -0.96130  -0.95027
 Alpha  occ. eigenvalues --   -0.86585  -0.85486  -0.82960  -0.81877  -0.78042
 Alpha  occ. eigenvalues --   -0.76979  -0.72763  -0.71920  -0.71701  -0.70910
 Alpha  occ. eigenvalues --   -0.70835  -0.69791  -0.65466  -0.65163  -0.64367
 Alpha  occ. eigenvalues --   -0.64067  -0.62521  -0.61460  -0.55675  -0.54527
 Alpha  occ. eigenvalues --   -0.53532  -0.53254  -0.52423  -0.52176  -0.49539
 Alpha  occ. eigenvalues --   -0.49510  -0.48472  -0.48432  -0.45596  -0.44535
 Alpha  occ. eigenvalues --   -0.37787  -0.36776  -0.36629  -0.35681
 Alpha virt. eigenvalues --    0.04438   0.05541   0.10876   0.11980   0.15993
 Alpha virt. eigenvalues --    0.17134   0.21064   0.22170   0.26955   0.27630
 Alpha virt. eigenvalues --    0.28273   0.29062   0.30720   0.31721   0.32208

 Mulliken charges:
               1
     1  C   -0.170025
     2  C   -0.218492
     3  C   -0.171210
     4  C    0.156369
     5  C   -0.173885
     6  C   -0.218464
     7  H    0.228344
     8  H    0.225023
     9  H    0.275603
    10  H    0.276988
    11  H    0.228397
    12  N    0.486733
    13  O   -0.464368
    14  O   -0.459516
    15  C   -0.167915
    16  C   -0.207090
    17  C   -0.176867
    18  C    0.158033
    19  C   -0.172617
    20  C   -0.218955
    21  H    0.231175
    22  H    0.227377
    23  H    0.269008
    24  H    0.272945
    25  H    0.222109
    26  N    0.488222
    27  O   -0.461606
    28  O   -0.465317
 Sum of Mulliken charges =  -0.00000

 Dipole moment (field-independent basis, Debye):
    X=              4.5973    Y=             -0.2436    Z=              0.8380  Tot=              4.6794
 Quadrupole moment (field-independent basis, Debye-Ang):
   XX=            -98.0356   YY=           -108.2040   ZZ=           -104.2780
   XY=             33.0829   XZ=              4.0765   YZ=             -1.6609

 Normal termination of Gaussian 16 at Thu May  6 21:14:48 2021.
