 Gaussian 16, Revision A.03,
 Gaussian 16:  EM64L-G16RevA.03 25-Dec-2016

 -------------
 #p 6-31g* mp2
 -------------

 ------------------------------------------------------
 Input file generated by CHIRIPA (05-May-2021 14:53:16)
 ------------------------------------------------------
 Symbolic Z-matrix:
 Charge =  0 Multiplicity = 1

                         Standard orientation:
 ---------------------------------------------------------------------
 Center     Atomic      Atomic             Coordinates (Angstroms)
 Number     Number       Type             X           Y           Z
 ---------------------------------------------------------------------
      1          6           0        4.094041   -0.446934   -0.201330
      2          6           0        3.656214   -1.889178    0.056008
      3          6           0        4.830569   -2.867990    0.080788
      4          1           0        4.633256   -0.399185   -1.157318
      5          1           0        4.808864   -0.143829    0.576198
      6          1           0        2.941373   -2.189010   -0.720986
      7          1           0        3.117812   -1.933465    1.011402
      8          1           0        5.541971   -2.596324    0.867366
      9          1           0        5.364529   -2.853321   -0.874865
     10          1           0        4.494941   -3.893096    0.266184
     11          6           0        2.931208    0.543411   -0.228985
     12          6           0        3.369035    1.985656   -0.486322
     13          6           0        2.194680    2.964467   -0.511102
     14          1           0        2.216385    0.240306   -1.006513
     15          1           0        2.391993    0.495662    0.727003
     16          1           0        3.907437    2.029942   -1.441716
     17          1           0        4.083876    2.285487    0.290671
     18          1           0        1.660720    2.949798    0.444550
     19          1           0        1.483278    2.692801   -1.297680
     20          1           0        2.530308    3.989573   -0.696499
     21          6           0       -1.209054    1.798402    0.966785
     22          6           0       -2.327517    2.110829    0.187073
     23          6           0       -3.185002    1.101623   -0.261002
     24          6           0       -2.892654   -0.215192    0.090877
     25          6           0       -1.786190   -0.558322    0.866306
     26          6           0       -0.942429    0.467171    1.303319
     27          1           0       -0.548269    2.588705    1.310563
     28          1           0       -2.537050    3.143800   -0.075817
     29          1           0       -4.057841    1.315389   -0.865878
     30          1           0       -1.603342   -1.597320    1.112209
     31          1           0       -0.074546    0.221591    1.908722
     32          7           0       -3.793171   -1.292215   -0.377625
     33          8           0       -3.513638   -2.444496   -0.053977
     34          8           0       -4.761475   -0.963711   -1.059612
 ---------------------------------------------------------------------

 SCF Done:  E(RHF) =  -669.535010912     A.U. after   15 cycles
 E2 =    -0.2092237575D+01 EUMP2 =    -0.67162724848650D+03

 The electronic state is 1-A.
 Alpha  occ. eigenvalues --  -20.60724 -20.60719 -15.85778 -11.31126 -11.27703
 Alpha  occ. eigenvalues --  -11.27697 -11.27414 -11.26704 -11.26694 -11.22372
 Alpha  occ. eigenvalues --  -11.22126 -11.22107 -11.22030 -11.21940 -11.21443
 Alpha  occ. eigenvalues --   -1.59801  -1.39355  -1.19302  -1.09091  -1.08695
 Alpha  occ. eigenvalues --   -1.04704  -1.04180  -0.96645  -0.95534  -0.87664
 Alpha  occ. eigenvalues --   -0.86102  -0.82370  -0.80258  -0.78894  -0.77416
 Alpha  occ. eigenvalues --   -0.71997  -0.71125  -0.70431  -0.65735  -0.64952
 Alpha  occ. eigenvalues --   -0.64700  -0.62058  -0.61577  -0.60009  -0.58263
 Alpha  occ. eigenvalues --   -0.56029  -0.55165  -0.53322  -0.53117  -0.52966
 Alpha  occ. eigenvalues --   -0.52776  -0.50578  -0.48753  -0.48752  -0.48553
 Alpha  occ. eigenvalues --   -0.47283  -0.46442  -0.46331  -0.44764  -0.44430
 Alpha  occ. eigenvalues --   -0.37240  -0.36301
 Alpha virt. eigenvalues --    0.05104   0.11268   0.16539   0.19603   0.22612
 Alpha virt. eigenvalues --    0.23737   0.24900   0.25853   0.26577   0.28465
 Alpha virt. eigenvalues --    0.28893   0.30483   0.31050   0.31427   0.31791

 Mulliken charges:
               1
     1  C   -0.298896
     2  C   -0.299675
     3  C   -0.476118
     4  H    0.152395
     5  H    0.149777
     6  H    0.154988
     7  H    0.147293
     8  H    0.155262
     9  H    0.156847
    10  H    0.162573
    11  C   -0.298528
    12  C   -0.300191
    13  C   -0.476465
    14  H    0.154746
    15  H    0.140665
    16  H    0.156047
    17  H    0.152825
    18  H    0.142875
    19  H    0.160151
    20  H    0.162788
    21  C   -0.168805
    22  C   -0.220447
    23  C   -0.171050
    24  C    0.158147
    25  C   -0.171701
    26  C   -0.218137
    27  H    0.227965
    28  H    0.223540
    29  H    0.275307
    30  H    0.275513
    31  H    0.223595
    32  N    0.488074
    33  O   -0.460654
    34  O   -0.460705
 Sum of Mulliken charges =  -0.00000

 Dipole moment (field-independent basis, Debye):
    X=              3.3227    Y=              3.7640    Z=              1.5242  Tot=              5.2470
 Quadrupole moment (field-independent basis, Debye-Ang):
   XX=           -112.1527   YY=            -95.0147   ZZ=            -93.0124
   XY=            -13.5064   XZ=             -3.2509   YZ=             -1.7358

 Normal termination of Gaussian 16 at Wed May  5 15:42:18 2021.
