 Gaussian 16, Revision A.03,
 Gaussian 16:  EM64L-G16RevA.03 25-Dec-2016

 -------------
 #p 6-31g* mp2
 -------------

 ------------------------------------------------------
 Input file generated by CHIRIPA (05-May-2021 14:55:21)
 ------------------------------------------------------
 Symbolic Z-matrix:
 Charge =  0 Multiplicity = 1

                         Standard orientation:
 ---------------------------------------------------------------------
 Center     Atomic      Atomic             Coordinates (Angstroms)
 Number     Number       Type             X           Y           Z
 ---------------------------------------------------------------------
      1          6           0        2.914705   -2.106328    1.456569
      2          6           0        3.777882   -1.950580    0.366986
      3          6           0        3.653017   -0.850033   -0.486097
      4          6           0        2.649320    0.079730   -0.218845
      5          6           0        1.773951   -0.047590    0.858564
      6          6           0        1.917253   -1.156011    1.698454
      7          1           0        3.018865   -2.964319    2.114140
      8          1           0        4.553433   -2.687031    0.176707
      9          1           0        4.307702   -0.704879   -1.336823
     10          1           0        1.010503    0.703169    1.022656
     11          1           0        1.245478   -1.274391    2.543882
     12          7           0        2.507371    1.248998   -1.114982
     13          8           0        1.614958    2.054081   -0.857929
     14          8           0        3.291214    1.338247   -2.057459
     15          6           0       -3.411362   -0.604353   -0.058546
     16          6           0       -4.589156   -1.066503   -0.917150
     17          6           0       -4.555773   -2.567212   -1.207930
     18          1           0       -2.472055   -0.859798   -0.567856
     19          1           0       -3.415445   -1.162369    0.888025
     20          1           0       -4.583657   -0.506795   -1.861244
     21          1           0       -5.525769   -0.809756   -0.405826
     22          1           0       -4.584808   -3.140936   -0.275944
     23          1           0       -3.637343   -2.836253   -1.739630
     24          1           0       -5.406742   -2.875985   -1.823048
     25          6           0       -3.430788    0.893582    0.240691
     26          6           0       -2.252993    1.355732    1.099295
     27          6           0       -2.286376    2.856440    1.390075
     28          1           0       -3.426703    1.451598   -0.705879
     29          1           0       -4.370094    1.149027    0.750001
     30          1           0       -1.316379    1.098985    0.587972
     31          1           0       -2.258491    0.796024    2.043389
     32          1           0       -3.204805    3.125481    1.921775
     33          1           0       -2.257341    3.430164    0.458089
     34          1           0       -1.435407    3.165213    2.005194
 ---------------------------------------------------------------------

 SCF Done:  E(RHF) =  -669.535767493     A.U. after   15 cycles
 E2 =    -0.2091440490D+01 EUMP2 =    -0.67162720798269D+03

 The electronic state is 1-A.
 Alpha  occ. eigenvalues --  -20.60811 -20.60804 -15.85855 -11.31190 -11.27763
 Alpha  occ. eigenvalues --  -11.27725 -11.27501 -11.26777 -11.26758 -11.21687
 Alpha  occ. eigenvalues --  -11.21613 -11.21435 -11.21344 -11.21119 -11.20907
 Alpha  occ. eigenvalues --   -1.59881  -1.39436  -1.19364  -1.08766  -1.08444
 Alpha  occ. eigenvalues --   -1.04761  -1.03530  -0.95954  -0.95604  -0.86969
 Alpha  occ. eigenvalues --   -0.86164  -0.82434  -0.79624  -0.78294  -0.77477
 Alpha  occ. eigenvalues --   -0.72075  -0.71201  -0.70479  -0.65089  -0.65014
 Alpha  occ. eigenvalues --   -0.64749  -0.62139  -0.60893  -0.59334  -0.57587
 Alpha  occ. eigenvalues --   -0.55284  -0.55203  -0.53096  -0.52867  -0.52645
 Alpha  occ. eigenvalues --   -0.52383  -0.49876  -0.48834  -0.48832  -0.47923
 Alpha  occ. eigenvalues --   -0.46631  -0.45813  -0.45726  -0.44837  -0.43784
 Alpha  occ. eigenvalues --   -0.37348  -0.36358
 Alpha virt. eigenvalues --    0.05015   0.11240   0.16541   0.20735   0.22966
 Alpha virt. eigenvalues --    0.23960   0.25986   0.26727   0.27677   0.27964
 Alpha virt. eigenvalues --    0.29172   0.30428   0.31523   0.31693   0.31981

 Mulliken charges:
               1
     1  C   -0.170628
     2  C   -0.218685
     3  C   -0.170609
     4  C    0.157174
     5  C   -0.176530
     6  C   -0.220580
     7  H    0.225650
     8  H    0.223439
     9  H    0.275493
    10  H    0.285654
    11  H    0.224248
    12  N    0.487808
    13  O   -0.462118
    14  O   -0.459974
    15  C   -0.298764
    16  C   -0.299821
    17  C   -0.475761
    18  H    0.150495
    19  H    0.145578
    20  H    0.154425
    21  H    0.151849
    22  H    0.153336
    23  H    0.155418
    24  H    0.160810
    25  C   -0.297512
    26  C   -0.308225
    27  C   -0.474269
    28  H    0.155127
    29  H    0.149506
    30  H    0.156633
    31  H    0.144209
    32  H    0.153444
    33  H    0.164053
    34  H    0.159128
 Sum of Mulliken charges =  -0.00000

 Dipole moment (field-independent basis, Debye):
    X=              0.4814    Y=             -4.0398    Z=              3.0639  Tot=              5.0930
 Quadrupole moment (field-independent basis, Debye-Ang):
   XX=            -89.1315   YY=            -96.3709   ZZ=            -94.6683
   XY=            -12.8352   XZ=              5.7001   YZ=              1.5439

 Normal termination of Gaussian 16 at Wed May  5 17:26:54 2021.
