 Gaussian 16, Revision A.03,
 Gaussian 16:  EM64L-G16RevA.03 25-Dec-2016

 -------------
 #p 6-31g* mp2
 -------------

 ------------------------------------------------------
 Input file generated by CHIRIPA (05-May-2021 14:53:15)
 ------------------------------------------------------
 Symbolic Z-matrix:
 Charge =  0 Multiplicity = 1

                         Standard orientation:
 ---------------------------------------------------------------------
 Center     Atomic      Atomic             Coordinates (Angstroms)
 Number     Number       Type             X           Y           Z
 ---------------------------------------------------------------------
      1          6           0        2.584115    0.112395   -0.016832
      2          6           0        3.052945   -0.779337   -1.167048
      3          6           0        3.582657   -2.131509   -0.688686
      4          1           0        3.418485    0.269675    0.680329
      5          1           0        1.799772   -0.410924    0.547383
      6          1           0        3.835199   -0.253929   -1.729758
      7          1           0        2.217415   -0.934355   -1.861653
      8          1           0        2.805893   -2.679166   -0.145260
      9          1           0        4.432869   -1.994874   -0.012615
     10          1           0        3.912375   -2.752923   -1.527130
     11          6           0        2.051807    1.467626   -0.479136
     12          6           0        1.582977    2.359358    0.671080
     13          6           0        1.053265    3.711530    0.192718
     14          1           0        2.836150    1.990945   -1.043351
     15          1           0        1.217437    1.310347   -1.176297
     16          1           0        2.418507    2.514376    1.365685
     17          1           0        0.800723    1.833950    1.233789
     18          1           0        0.203053    3.574895   -0.483353
     19          1           0        1.830029    4.259187   -0.350708
     20          1           0        0.723547    4.332944    1.031162
     21          6           0       -0.220835   -2.091674    1.483507
     22          6           0       -0.747631   -2.528917    0.263744
     23          6           0       -1.629515   -1.720317   -0.459440
     24          6           0       -1.964629   -0.474649    0.069047
     25          6           0       -1.456521   -0.010903    1.281506
     26          6           0       -0.576334   -0.836275    1.987608
     27          1           0        0.463575   -2.726328    2.038659
     28          1           0       -0.473309   -3.503403   -0.130174
     29          1           0       -2.052124   -2.034013   -1.406231
     30          1           0       -1.748571    0.965499    1.648609
     31          1           0       -0.168766   -0.494107    2.934631
     32          7           0       -2.897342    0.390258   -0.687512
     33          8           0       -3.176881    1.483484   -0.200324
     34          8           0       -3.331203   -0.041431   -1.753368
 ---------------------------------------------------------------------

 SCF Done:  E(RHF) =  -669.533717186     A.U. after   15 cycles
 E2 =    -0.2096627851D+01 EUMP2 =    -0.67163034503649D+03

 The electronic state is 1-A.
 Alpha  occ. eigenvalues --  -20.60932 -20.60926 -15.85986 -11.31407 -11.27976
 Alpha  occ. eigenvalues --  -11.27954 -11.27678 -11.26984 -11.26940 -11.21839
 Alpha  occ. eigenvalues --  -11.21677 -11.21569 -11.21437 -11.21362 -11.20950
 Alpha  occ. eigenvalues --   -1.60006  -1.39557  -1.19592  -1.08984  -1.08540
 Alpha  occ. eigenvalues --   -1.04993  -1.03694  -0.96131  -0.95792  -0.87152
 Alpha  occ. eigenvalues --   -0.86373  -0.82618  -0.79769  -0.78395  -0.77646
 Alpha  occ. eigenvalues --   -0.72199  -0.71334  -0.70674  -0.65266  -0.65209
 Alpha  occ. eigenvalues --   -0.64968  -0.62344  -0.61090  -0.59516  -0.57756
 Alpha  occ. eigenvalues --   -0.55478  -0.55452  -0.53378  -0.53057  -0.52816
 Alpha  occ. eigenvalues --   -0.52555  -0.50084  -0.48963  -0.48953  -0.48101
 Alpha  occ. eigenvalues --   -0.46826  -0.45888  -0.45840  -0.44946  -0.43909
 Alpha  occ. eigenvalues --   -0.37424  -0.36477
 Alpha virt. eigenvalues --    0.04804   0.10924   0.16167   0.20429   0.23083
 Alpha virt. eigenvalues --    0.23474   0.26585   0.26668   0.27264   0.27969
 Alpha virt. eigenvalues --    0.28571   0.30752   0.31423   0.31862   0.31961

 Mulliken charges:
               1
     1  C   -0.308703
     2  C   -0.298124
     3  C   -0.475140
     4  H    0.145177
     5  H    0.160392
     6  H    0.153177
     7  H    0.152425
     8  H    0.144814
     9  H    0.155453
    10  H    0.161121
    11  C   -0.296904
    12  C   -0.302411
    13  C   -0.477346
    14  H    0.150006
    15  H    0.151279
    16  H    0.149121
    17  H    0.146188
    18  H    0.163725
    19  H    0.155300
    20  H    0.159002
    21  C   -0.174049
    22  C   -0.215994
    23  C   -0.171868
    24  C    0.158163
    25  C   -0.168751
    26  C   -0.218295
    27  H    0.228191
    28  H    0.225361
    29  H    0.276688
    30  H    0.277333
    31  H    0.226233
    32  N    0.487790
    33  O   -0.459707
    34  O   -0.459647
 Sum of Mulliken charges =  -0.00000

 Dipole moment (field-independent basis, Debye):
    X=              3.0863    Y=             -3.0579    Z=              2.6427  Tot=              5.0852
 Quadrupole moment (field-independent basis, Debye-Ang):
   XX=           -108.1406   YY=            -90.6120   ZZ=            -92.1409
   XY=              5.5691   XZ=             -4.8623   YZ=              1.3380

 Normal termination of Gaussian 16 at Wed May  5 21:56:16 2021.
