 Gaussian 16, Revision A.03,
 Gaussian 16:  EM64L-G16RevA.03 25-Dec-2016

 -------------
 #p 6-31g* mp2
 -------------

 ------------------------------------------------------
 Input file generated by CHIRIPA (05-May-2021 14:55:25)
 ------------------------------------------------------
 Symbolic Z-matrix:
 Charge =  0 Multiplicity = 1

                         Standard orientation:
 ---------------------------------------------------------------------
 Center     Atomic      Atomic             Coordinates (Angstroms)
 Number     Number       Type             X           Y           Z
 ---------------------------------------------------------------------
      1          6           0        2.336208    2.611097   -0.043004
      2          6           0        3.541589    2.025709    0.358118
      3          6           0        3.750608    0.652268    0.201527
      4          6           0        2.728215   -0.109310   -0.362389
      5          6           0        1.516264    0.444582   -0.771864
      6          6           0        1.329168    1.820060   -0.605723
      7          1           0        2.182352    3.678810    0.082349
      8          1           0        4.325431    2.637583    0.795435
      9          1           0        4.674067    0.173187    0.503391
     10          1           0        0.753461   -0.191241   -1.204621
     11          1           0        0.392037    2.271967   -0.918149
     12          7           0        2.937889   -1.564388   -0.533219
     13          8           0        2.021482   -2.213493   -1.032717
     14          8           0        4.014670   -2.028222   -0.164385
     15          6           0       -3.799341   -0.004837   -0.230662
     16          6           0       -5.324542   -0.016956   -0.122957
     17          6           0       -6.013375    0.309383   -1.448402
     18          1           0       -3.470822    0.982558   -0.582900
     19          1           0       -3.486960   -0.729364   -0.995431
     20          1           0       -5.633875    0.706383    0.642359
     21          1           0       -5.649455   -1.004376    0.229249
     22          1           0       -5.733503   -0.417961   -2.217325
     23          1           0       -5.717835    1.302518   -1.801868
     24          1           0       -7.103194    0.295214   -1.348627
     25          6           0       -3.096424   -0.329255    1.086299
     26          6           0       -1.571222   -0.317137    0.978595
     27          6           0       -0.882388   -0.643476    2.304040
     28          1           0       -3.408804    0.395273    1.851069
     29          1           0       -3.424942   -1.316650    1.438538
     30          1           0       -1.246309    0.670283    0.626389
     31          1           0       -1.261889   -1.040476    0.213279
     32          1           0       -1.177929   -1.636611    2.657507
     33          1           0       -1.162261    0.083869    3.072964
     34          1           0        0.207430   -0.629307    2.204266
 ---------------------------------------------------------------------

 SCF Done:  E(RHF) =  -669.535078278     A.U. after   15 cycles
 E2 =    -0.2093117614D+01 EUMP2 =    -0.67162819589222D+03

 The electronic state is 1-A.
 Alpha  occ. eigenvalues --  -20.60787 -20.60782 -15.85839 -11.31188 -11.27769
 Alpha  occ. eigenvalues --  -11.27733 -11.27512 -11.26770 -11.26754 -11.21861
 Alpha  occ. eigenvalues --  -11.21823 -11.21685 -11.21583 -11.21274 -11.21140
 Alpha  occ. eigenvalues --   -1.59860  -1.39414  -1.19372  -1.08767  -1.08678
 Alpha  occ. eigenvalues --   -1.04778  -1.03731  -0.96168  -0.95600  -0.87183
 Alpha  occ. eigenvalues --   -0.86168  -0.82441  -0.79840  -0.78544  -0.77451
 Alpha  occ. eigenvalues --   -0.72056  -0.71185  -0.70474  -0.65329  -0.65015
 Alpha  occ. eigenvalues --   -0.64761  -0.62137  -0.61127  -0.59544  -0.57807
 Alpha  occ. eigenvalues --   -0.55448  -0.55271  -0.53154  -0.52867  -0.52790
 Alpha  occ. eigenvalues --   -0.52560  -0.50103  -0.48815  -0.48812  -0.48128
 Alpha  occ. eigenvalues --   -0.46851  -0.46055  -0.45963  -0.44817  -0.43997
 Alpha  occ. eigenvalues --   -0.37353  -0.36306
 Alpha virt. eigenvalues --    0.05036   0.11206   0.16434   0.20684   0.22808
 Alpha virt. eigenvalues --    0.24114   0.25498   0.25815   0.27668   0.28187
 Alpha virt. eigenvalues --    0.29226   0.29807   0.31439   0.31562   0.32097

 Mulliken charges:
               1
     1  C   -0.171228
     2  C   -0.218792
     3  C   -0.171037
     4  C    0.155594
     5  C   -0.165892
     6  C   -0.219578
     7  H    0.225591
     8  H    0.223429
     9  H    0.275646
    10  H    0.279128
    11  H    0.223549
    12  N    0.488226
    13  O   -0.461151
    14  O   -0.460260
    15  C   -0.298414
    16  C   -0.299686
    17  C   -0.475911
    18  H    0.143130
    19  H    0.151471
    20  H    0.151693
    21  H    0.154243
    22  H    0.156488
    23  H    0.153387
    24  H    0.161307
    25  C   -0.297949
    26  C   -0.306694
    27  C   -0.474832
    28  H    0.148899
    29  H    0.153323
    30  H    0.143905
    31  H    0.157971
    32  H    0.159543
    33  H    0.153072
    34  H    0.161825
 Sum of Mulliken charges =  -0.00000

 Dipole moment (field-independent basis, Debye):
    X=             -0.7546    Y=              5.0374    Z=              0.6278  Tot=              5.1322
 Quadrupole moment (field-independent basis, Debye-Ang):
   XX=            -94.9751   YY=            -95.4708   ZZ=            -95.8213
   XY=             15.1075   XZ=              3.4335   YZ=             -1.3785

 Normal termination of Gaussian 16 at Thu May  6 03:12:14 2021.
