 Gaussian 16, Revision A.03,
 Gaussian 16:  EM64L-G16RevA.03 25-Dec-2016

 -------------
 #p 6-31g* mp2
 -------------

 ------------------------------------------------------
 Input file generated by CHIRIPA (05-May-2021 14:57:25)
 ------------------------------------------------------
 Symbolic Z-matrix:
 Charge =  0 Multiplicity = 1

                         Standard orientation:
 ---------------------------------------------------------------------
 Center     Atomic      Atomic             Coordinates (Angstroms)
 Number     Number       Type             X           Y           Z
 ---------------------------------------------------------------------
      1          6           0       -5.927266    0.575749   -0.323271
      2          6           0       -5.036577    0.420547   -1.390560
      3          6           0       -3.731137   -0.026896   -1.166578
      4          6           0       -3.348137   -0.311212    0.143294
      5          6           0       -4.212292   -0.166633    1.227556
      6          6           0       -5.513011    0.282181    0.980083
      7          1           0       -6.939530    0.923866   -0.506390
      8          1           0       -5.355543    0.647780   -2.403808
      9          1           0       -3.021070   -0.155917   -1.974400
     10          1           0       -3.865354   -0.401115    2.226591
     11          1           0       -6.202581    0.401783    1.810886
     12          7           0       -1.968625   -0.785626    0.392849
     13          8           0       -1.655667   -1.029385    1.556152
     14          8           0       -1.226443   -0.904729   -0.579580
     15          6           0        2.835736    2.641951    0.023312
     16          6           0        4.044691    2.249622    0.607286
     17          6           0        4.464529    0.917606    0.543893
     18          6           0        3.647015    0.000137   -0.114295
     19          6           0        2.437203    0.360133   -0.705943
     20          6           0        2.037257    1.697619   -0.630286
     21          1           0        2.517323    3.678816    0.077320
     22          1           0        4.666832    2.980840    1.115526
     23          1           0        5.395784    0.586622    0.987322
     24          1           0        1.838433   -0.391578   -1.205768
     25          1           0        1.097877    1.999448   -1.084717
     26          7           0        4.080948   -1.412904   -0.187898
     27          8           0        3.342642   -2.201949   -0.773516
     28          8           0        5.151156   -1.704645    0.341424
 ---------------------------------------------------------------------

 SCF Done:  E(RHF) =  -868.338629112     A.U. after   16 cycles
 E2 =    -0.2598963308D+01 EUMP2 =    -0.87093759241914D+03

 The electronic state is 1-A.
 Alpha  occ. eigenvalues --  -20.61293 -20.61248 -20.59708 -20.59668 -15.86314
 Alpha  occ. eigenvalues --  -15.84743 -11.31602 -11.30064 -11.28174 -11.28140
 Alpha  occ. eigenvalues --  -11.27876 -11.27157 -11.27136 -11.26751 -11.26528
 Alpha  occ. eigenvalues --  -11.26518 -11.25782 -11.25661  -1.60331  -1.58767
 Alpha  occ. eigenvalues --   -1.39891  -1.38318  -1.19764  -1.18277  -1.09170
 Alpha  occ. eigenvalues --   -1.07707  -1.05154  -1.03668  -0.96018  -0.94528
 Alpha  occ. eigenvalues --   -0.86554  -0.85088  -0.82855  -0.81355  -0.77913
 Alpha  occ. eigenvalues --   -0.76378  -0.72536  -0.71650  -0.70970  -0.70866
 Alpha  occ. eigenvalues --   -0.70084  -0.69417  -0.65417  -0.65151  -0.63942
 Alpha  occ. eigenvalues --   -0.63703  -0.62501  -0.60995  -0.55649  -0.54254
 Alpha  occ. eigenvalues --   -0.53489  -0.53242  -0.52021  -0.51775  -0.49286
 Alpha  occ. eigenvalues --   -0.49261  -0.47740  -0.47706  -0.45312  -0.43732
 Alpha  occ. eigenvalues --   -0.37738  -0.36756  -0.36316  -0.35257
 Alpha virt. eigenvalues --    0.04604   0.06150   0.10899   0.12379   0.16109
 Alpha virt. eigenvalues --    0.17604   0.21048   0.22401   0.26973   0.27806
 Alpha virt. eigenvalues --    0.28383   0.29330   0.30666   0.31872   0.32196

 Mulliken charges:
               1
     1  C   -0.170527
     2  C   -0.218505
     3  C   -0.172011
     4  C    0.157779
     5  C   -0.170672
     6  C   -0.218526
     7  H    0.226889
     8  H    0.224300
     9  H    0.274091
    10  H    0.276937
    11  H    0.224872
    12  N    0.489793
    13  O   -0.454540
    14  O   -0.467733
    15  C   -0.171150
    16  C   -0.219754
    17  C   -0.171210
    18  C    0.156596
    19  C   -0.165216
    20  C   -0.220038
    21  H    0.220195
    22  H    0.218844
    23  H    0.272464
    24  H    0.290431
    25  H    0.220597
    26  N    0.488119
    27  O   -0.456254
    28  O   -0.465771
 Sum of Mulliken charges =  -0.00000

 Dipole moment (field-independent basis, Debye):
    X=             -6.7929    Y=              6.4626    Z=             -0.6123  Tot=              9.3960
 Quadrupole moment (field-independent basis, Debye-Ang):
   XX=            -81.2569   YY=           -107.5257   ZZ=            -99.5756
   XY=             14.7294   XZ=              4.4166   YZ=              0.2471

 Normal termination of Gaussian 16 at Fri May  7 08:06:08 2021.
