 Gaussian 16, Revision A.03,
 Gaussian 16:  EM64L-G16RevA.03 25-Dec-2016

 -------------
 #p 6-31g* mp2
 -------------

 ------------------------------------------------------
 Input file generated by CHIRIPA (05-May-2021 14:57:21)
 ------------------------------------------------------
 Symbolic Z-matrix:
 Charge =  0 Multiplicity = 1

                         Standard orientation:
 ---------------------------------------------------------------------
 Center     Atomic      Atomic             Coordinates (Angstroms)
 Number     Number       Type             X           Y           Z
 ---------------------------------------------------------------------
      1          6           0        5.768124    0.988109   -0.906127
      2          6           0        4.715699    1.799412   -0.469424
      3          6           0        3.602198    1.238597    0.163152
      4          6           0        3.573976   -0.143414    0.343538
      5          6           0        4.606747   -0.978270   -0.080359
      6          6           0        5.710391   -0.395704   -0.710545
      7          1           0        6.629289    1.432212   -1.396598
      8          1           0        4.757825    2.874402   -0.619976
      9          1           0        2.773517    1.843268    0.511116
     10          1           0        4.536200   -2.046673    0.083828
     11          1           0        6.526258   -1.028227   -1.048658
     12          7           0        2.400380   -0.748637    1.011953
     13          8           0        2.399622   -1.968893    1.158962
     14          8           0        1.503496    0.008705    1.376190
     15          6           0       -6.195010    0.490603    0.288999
     16          6           0       -5.822239   -0.702408   -0.338925
     17          6           0       -4.480116   -0.960643   -0.633151
     18          6           0       -3.532706    0.000457   -0.283876
     19          6           0       -3.872670    1.198570    0.342415
     20          6           0       -5.220753    1.435618    0.627069
     21          1           0       -7.239918    0.682976    0.513842
     22          1           0       -6.576708   -1.438128   -0.602625
     23          1           0       -4.163789   -1.875861   -1.118671
     24          1           0       -3.097903    1.912912    0.593154
     25          1           0       -5.507345    2.363004    1.114784
     26          7           0       -2.108706   -0.261710   -0.590293
     27          8           0       -1.293180    0.601113   -0.272341
     28          8           0       -1.835063   -1.325054   -1.142613
 ---------------------------------------------------------------------

 SCF Done:  E(RHF) =  -868.336154687     A.U. after   16 cycles
 E2 =    -0.2600210124D+01 EUMP2 =    -0.87093636481144D+03

 The electronic state is 1-A.
 Alpha  occ. eigenvalues --  -20.59878 -20.59808 -20.59526 -20.59405 -15.84899
 Alpha  occ. eigenvalues --  -15.84517 -11.30520 -11.30184 -11.27124 -11.27120
 Alpha  occ. eigenvalues --  -11.26930 -11.26816 -11.26775 -11.26637 -11.26209
 Alpha  occ. eigenvalues --  -11.26199 -11.25912 -11.25894  -1.58904  -1.58522
 Alpha  occ. eigenvalues --   -1.38456  -1.38069  -1.18720  -1.18395  -1.08071
 Alpha  occ. eigenvalues --   -1.07741  -1.04165  -1.03851  -0.94864  -0.94523
 Alpha  occ. eigenvalues --   -0.85552  -0.85236  -0.81701  -0.81356  -0.76701
 Alpha  occ. eigenvalues --   -0.76345  -0.71167  -0.70723  -0.70222  -0.69839
 Alpha  occ. eigenvalues --   -0.69812  -0.69520  -0.64373  -0.64180  -0.64049
 Alpha  occ. eigenvalues --   -0.63874  -0.61513  -0.61196  -0.54670  -0.54368
 Alpha  occ. eigenvalues --   -0.52477  -0.52267  -0.52157  -0.51958  -0.47920
 Alpha  occ. eigenvalues --   -0.47870  -0.47523  -0.47488  -0.43859  -0.43296
 Alpha  occ. eigenvalues --   -0.36717  -0.36398  -0.35780  -0.35465
 Alpha virt. eigenvalues --    0.05827   0.06246   0.11872   0.12187   0.17270
 Alpha virt. eigenvalues --    0.17660   0.21949   0.22227   0.27837   0.28110
 Alpha virt. eigenvalues --    0.28866   0.29163   0.31474   0.31739   0.33121

 Mulliken charges:
               1
     1  C   -0.171926
     2  C   -0.218948
     3  C   -0.168748
     4  C    0.160929
     5  C   -0.171026
     6  C   -0.218790
     7  H    0.221896
     8  H    0.220140
     9  H    0.277623
    10  H    0.274314
    11  H    0.220164
    12  N    0.489495
    13  O   -0.465374
    14  O   -0.449860
    15  C   -0.171702
    16  C   -0.218576
    17  C   -0.171000
    18  C    0.160119
    19  C   -0.170417
    20  C   -0.218603
    21  H    0.223218
    22  H    0.221474
    23  H    0.275280
    24  H    0.275436
    25  H    0.221186
    26  N    0.488906
    27  O   -0.453141
    28  O   -0.462067
 Sum of Mulliken charges =  -0.00000

 Dipole moment (field-independent basis, Debye):
    X=             -0.9761    Y=              3.0757    Z=             -1.2051  Tot=              3.4445
 Quadrupole moment (field-independent basis, Debye-Ang):
   XX=            -42.5109   YY=            -97.9638   ZZ=           -107.9747
   XY=              2.9723   XZ=             -9.2594   YZ=              3.4845

 Normal termination of Gaussian 16 at Thu May  6 01:42:30 2021.
