 Gaussian 16, Revision A.03,
 Gaussian 16:  EM64L-G16RevA.03 25-Dec-2016

 -------------
 #p 6-31g* mp2
 -------------

 ------------------------------------------------------
 Input file generated by CHIRIPA (05-May-2021 14:53:13)
 ------------------------------------------------------
 Symbolic Z-matrix:
 Charge =  0 Multiplicity = 1

                         Standard orientation:
 ---------------------------------------------------------------------
 Center     Atomic      Atomic             Coordinates (Angstroms)
 Number     Number       Type             X           Y           Z
 ---------------------------------------------------------------------
      1          6           0        3.960336    1.132286   -0.234870
      2          6           0        2.714264    1.811884    0.333844
      3          6           0        2.709880    3.323909    0.106783
      4          1           0        4.854191    1.576079    0.224495
      5          1           0        4.025055    1.342518   -1.311442
      6          1           0        2.651166    1.599283    1.408756
      7          1           0        1.823264    1.366290   -0.126787
      8          1           0        2.748425    3.552911   -0.963111
      9          1           0        3.581032    3.787229    0.581157
     10          1           0        1.810239    3.789500    0.521187
     11          6           0        3.979269   -0.379446   -0.015697
     12          6           0        5.225341   -1.059044   -0.584411
     13          6           0        5.229725   -2.571068   -0.357350
     14          1           0        3.914550   -0.589678    1.060875
     15          1           0        3.085414   -0.823238   -0.475062
     16          1           0        6.116341   -0.613450   -0.123780
     17          1           0        5.288439   -0.846443   -1.659323
     18          1           0        4.358573   -3.034388   -0.831724
     19          1           0        5.191180   -2.800071    0.712544
     20          1           0        6.129366   -3.036660   -0.771754
     21          6           0       -0.832380   -1.069818    0.882519
     22          6           0       -1.086232    0.295543    0.715571
     23          6           0       -2.339744    0.736766    0.281315
     24          6           0       -3.320769   -0.219083    0.022022
     25          6           0       -3.098519   -1.586309    0.178827
     26          6           0       -1.837562   -2.004738    0.614087
     27          1           0        0.144270   -1.403716    1.220250
     28          1           0       -0.307486    1.023867    0.923284
     29          1           0       -2.563327    1.787707    0.143661
     30          1           0       -3.894752   -2.288593   -0.036176
     31          1           0       -1.643254   -3.065730    0.742861
     32          7           0       -4.651747    0.235954   -0.438237
     33          8           0       -5.499197   -0.626195   -0.659969
     34          8           0       -4.822317    1.446146   -0.568542
 ---------------------------------------------------------------------

 SCF Done:  E(RHF) =  -669.535695137     A.U. after   15 cycles
 E2 =    -0.2091439390D+01 EUMP2 =    -0.67162713452723D+03

 The electronic state is 1-A.
 Alpha  occ. eigenvalues --  -20.60729 -20.60724 -15.85782 -11.31139 -11.27711
 Alpha  occ. eigenvalues --  -11.27695 -11.27430 -11.26719 -11.26654 -11.22700
 Alpha  occ. eigenvalues --  -11.22358 -11.22306 -11.22252 -11.21955 -11.21765
 Alpha  occ. eigenvalues --   -1.59805  -1.39359  -1.19307  -1.09336  -1.08700
 Alpha  occ. eigenvalues --   -1.04710  -1.04401  -0.96823  -0.95538  -0.87837
 Alpha  occ. eigenvalues --   -0.86107  -0.82371  -0.80500  -0.79177  -0.77417
 Alpha  occ. eigenvalues --   -0.72000  -0.71128  -0.70406  -0.65968  -0.64955
 Alpha  occ. eigenvalues --   -0.64716  -0.62113  -0.61745  -0.60196  -0.58453
 Alpha  occ. eigenvalues --   -0.56090  -0.55192  -0.53516  -0.53252  -0.53040
 Alpha  occ. eigenvalues --   -0.52804  -0.50749  -0.48848  -0.48756  -0.48691
 Alpha  occ. eigenvalues --   -0.47508  -0.46687  -0.46607  -0.44766  -0.44656
 Alpha  occ. eigenvalues --   -0.37282  -0.36308
 Alpha virt. eigenvalues --    0.05107   0.11237   0.16581   0.20099   0.22362
 Alpha virt. eigenvalues --    0.23301   0.25539   0.25824   0.25902   0.28285
 Alpha virt. eigenvalues --    0.29512   0.30283   0.30567   0.31197   0.32024

 Mulliken charges:
               1
     1  C   -0.297480
     2  C   -0.308621
     3  C   -0.476166
     4  H    0.153176
     5  H    0.153554
     6  H    0.149396
     7  H    0.149795
     8  H    0.159713
     9  H    0.159419
    10  H    0.158732
    11  C   -0.300382
    12  C   -0.300047
    13  C   -0.476416
    14  H    0.147105
    15  H    0.147176
    16  H    0.154268
    17  H    0.154656
    18  H    0.154324
    19  H    0.154549
    20  H    0.163452
    21  C   -0.173982
    22  C   -0.224153
    23  C   -0.172350
    24  C    0.158716
    25  C   -0.171144
    26  C   -0.218585
    27  H    0.227536
    28  H    0.232691
    29  H    0.275540
    30  H    0.275388
    31  H    0.223237
    32  N    0.488061
    33  O   -0.460625
    34  O   -0.460534
 Sum of Mulliken charges =  -0.00000

 Dipole moment (field-independent basis, Debye):
    X=              4.9296    Y=             -1.5537    Z=              1.5591  Tot=              5.3986
 Quadrupole moment (field-independent basis, Debye-Ang):
   XX=           -124.9387   YY=            -90.4508   ZZ=            -94.7520
   XY=              6.4455   XZ=             -5.0642   YZ=             -0.0126

 Normal termination of Gaussian 16 at Thu May  6 05:47:05 2021.
