 Gaussian 16, Revision A.03,
 Gaussian 16:  EM64L-G16RevA.03 25-Dec-2016

 -------------
 #p 6-31g* mp2
 -------------

 ------------------------------------------------------
 Input file generated by CHIRIPA (05-May-2021 14:53:13)
 ------------------------------------------------------
 Symbolic Z-matrix:
 Charge =  0 Multiplicity = 1

                         Standard orientation:
 ---------------------------------------------------------------------
 Center     Atomic      Atomic             Coordinates (Angstroms)
 Number     Number       Type             X           Y           Z
 ---------------------------------------------------------------------
      1          6           0       -3.075543   -0.208529    0.126186
      2          6           0       -4.321370   -1.090568    0.215108
      3          6           0       -3.993624   -2.543400    0.561019
      4          1           0       -2.394343   -0.622269   -0.629943
      5          1           0       -2.538975   -0.246210    1.084345
      6          1           0       -4.856170   -1.050140   -0.742477
      7          1           0       -4.999770   -0.674572    0.970977
      8          1           0       -3.480338   -2.603235    1.526191
      9          1           0       -3.335923   -2.980937   -0.196999
     10          1           0       -4.898603   -3.156144    0.619481
     11          6           0       -3.386932    1.246701   -0.218880
     12          6           0       -2.141105    2.128740   -0.307803
     13          6           0       -2.468851    3.581572   -0.653713
     14          1           0       -3.923501    1.284382   -1.177039
     15          1           0       -4.068132    1.660441    0.537249
     16          1           0       -1.462706    1.712744   -1.063672
     17          1           0       -1.606305    2.088312    0.649783
     18          1           0       -3.126553    4.019109    0.104305
     19          1           0       -2.982137    3.641406   -1.618886
     20          1           0       -1.563872    4.194316   -0.712176
     21          6           0        4.472820    1.145263    0.441944
     22          6           0        4.573620    0.130135   -0.515068
     23          6           0        3.500388   -0.734937   -0.748248
     24          6           0        2.336039   -0.555462   -0.003017
     25          6           0        2.204944    0.446410    0.957379
     26          6           0        3.290887    1.299889    1.173823
     27          1           0        5.311469    1.812769    0.616583
     28          1           0        5.490301    0.007699   -1.084938
     29          1           0        3.551366   -1.529223   -1.483046
     30          1           0        1.278248    0.543688    1.509818
     31          1           0        3.209768    2.087371    1.917689
     32          7           0        1.193128   -1.465137   -0.241015
     33          8           0        0.178228   -1.286106    0.428735
     34          8           0        1.333853   -2.339948   -1.092801
 ---------------------------------------------------------------------

 SCF Done:  E(RHF) =  -669.535600041     A.U. after   15 cycles
 E2 =    -0.2092042600D+01 EUMP2 =    -0.67162764264050D+03

 The electronic state is 1-A.
 Alpha  occ. eigenvalues --  -20.60917 -20.60889 -15.85930 -11.31264 -11.27831
 Alpha  occ. eigenvalues --  -11.27826 -11.27569 -11.26839 -11.26829 -11.21081
 Alpha  occ. eigenvalues --  -11.20734 -11.20533 -11.20442 -11.19920 -11.19778
 Alpha  occ. eigenvalues --   -1.59971  -1.39526  -1.19435  -1.08839  -1.07454
 Alpha  occ. eigenvalues --   -1.04832  -1.02646  -0.95682  -0.95068  -0.86234
 Alpha  occ. eigenvalues --   -0.86086  -0.82519  -0.78765  -0.77615  -0.77098
 Alpha  occ. eigenvalues --   -0.72143  -0.71284  -0.70544  -0.65089  -0.64837
 Alpha  occ. eigenvalues --   -0.64105  -0.62180  -0.60059  -0.58498  -0.56661
 Alpha  occ. eigenvalues --   -0.55338  -0.54356  -0.53163  -0.52925  -0.51847
 Alpha  occ. eigenvalues --   -0.51466  -0.49049  -0.48923  -0.48893  -0.47053
 Alpha  occ. eigenvalues --   -0.45824  -0.45227  -0.44617  -0.44301  -0.42848
 Alpha  occ. eigenvalues --   -0.37413  -0.36432
 Alpha virt. eigenvalues --    0.04947   0.11210   0.16434   0.21092   0.23517
 Alpha virt. eigenvalues --    0.25153   0.26082   0.27572   0.27938   0.28821
 Alpha virt. eigenvalues --    0.29174   0.31154   0.31891   0.32363   0.32523

 Mulliken charges:
               1
     1  C   -0.296260
     2  C   -0.300284
     3  C   -0.473750
     4  H    0.164520
     5  H    0.153555
     6  H    0.147193
     7  H    0.145309
     8  H    0.156169
     9  H    0.163553
    10  H    0.152963
    11  C   -0.298858
    12  C   -0.296010
    13  C   -0.474879
    14  H    0.146690
    15  H    0.144904
    16  H    0.152197
    17  H    0.145287
    18  H    0.153791
    19  H    0.155408
    20  H    0.154942
    21  C   -0.170602
    22  C   -0.218603
    23  C   -0.170800
    24  C    0.157574
    25  C   -0.170454
    26  C   -0.218641
    27  H    0.225893
    28  H    0.223672
    29  H    0.275667
    30  H    0.276240
    31  H    0.223782
    32  N    0.490571
    33  O   -0.460410
    34  O   -0.460329
 Sum of Mulliken charges =  -0.00000

 Dipole moment (field-independent basis, Debye):
    X=              4.2755    Y=              3.0152    Z=              0.8194  Tot=              5.2956
 Quadrupole moment (field-independent basis, Debye-Ang):
   XX=            -76.1826   YY=            -99.4217   ZZ=            -91.8815
   XY=              4.2827   XZ=             -0.1395   YZ=              2.1216

 Normal termination of Gaussian 16 at Wed May  5 15:33:28 2021.
