 Gaussian 16, Revision A.03,
 Gaussian 16:  EM64L-G16RevA.03 25-Dec-2016

 -------------
 #p 6-31g* mp2
 -------------

 ------------------------------------------------------
 Input file generated by CHIRIPA (05-May-2021 14:53:13)
 ------------------------------------------------------
 Symbolic Z-matrix:
 Charge =  0 Multiplicity = 1

                         Standard orientation:
 ---------------------------------------------------------------------
 Center     Atomic      Atomic             Coordinates (Angstroms)
 Number     Number       Type             X           Y           Z
 ---------------------------------------------------------------------
      1          6           0       -3.527768   -0.078877   -0.305527
      2          6           0       -2.945860   -1.466678   -0.576412
      3          6           0       -1.475241   -1.420196   -0.992240
      4          1           0       -3.419545    0.539484   -1.207116
      5          1           0       -2.938392    0.410869    0.481988
      6          1           0       -3.537005   -1.954204   -1.362212
      7          1           0       -3.055653   -2.081867    0.325865
      8          1           0       -0.867540   -0.957589   -0.207833
      9          1           0       -1.351626   -0.829200   -1.905501
     10          1           0       -1.079498   -2.423015   -1.180925
     11          6           0       -4.997177   -0.108875    0.111203
     12          6           0       -5.579085    1.278925    0.382087
     13          6           0       -7.049704    1.232443    0.797916
     14          1           0       -5.586553   -0.598621   -0.676312
     15          1           0       -5.105400   -0.727236    1.012792
     16          1           0       -5.469292    1.894115   -0.520189
     17          1           0       -4.987940    1.766451    1.167888
     18          1           0       -7.173318    0.641447    1.711176
     19          1           0       -7.657405    0.769836    0.013508
     20          1           0       -7.445447    2.235262    0.986601
     21          6           0        2.541592   -2.289100    0.479790
     22          6           0        2.135766   -1.602507   -0.669305
     23          6           0        2.566455   -0.293205   -0.903366
     24          6           0        3.406282    0.301733    0.036862
     25          6           0        3.827983   -0.356142    1.191270
     26          6           0        3.384918   -1.664827    1.404779
     27          1           0        2.202215   -3.305957    0.653631
     28          1           0        1.480866   -2.084824   -1.389387
     29          1           0        2.267604    0.261445   -1.784540
     30          1           0        4.481210    0.151009    1.890920
     31          1           0        3.701692   -2.195622    2.298063
     32          7           0        3.868785    1.687505   -0.200049
     33          8           0        4.608345    2.189397    0.643629
     34          8           0        3.482975    2.245542   -1.224931
 ---------------------------------------------------------------------

 SCF Done:  E(RHF) =  -669.535197927     A.U. after   15 cycles
 E2 =    -0.2091564452D+01 EUMP2 =    -0.67162676237984D+03

 The electronic state is 1-A.
 Alpha  occ. eigenvalues --  -20.60730 -20.60725 -15.85782 -11.31140 -11.27698
 Alpha  occ. eigenvalues --  -11.27678 -11.27430 -11.26730 -11.26663 -11.22130
 Alpha  occ. eigenvalues --  -11.21823 -11.21782 -11.21739 -11.21636 -11.21219
 Alpha  occ. eigenvalues --   -1.59805  -1.39359  -1.19308  -1.08780  -1.08702
 Alpha  occ. eigenvalues --   -1.04709  -1.03916  -0.96392  -0.95541  -0.87437
 Alpha  occ. eigenvalues --   -0.86092  -0.82371  -0.79997  -0.78559  -0.77412
 Alpha  occ. eigenvalues --   -0.72000  -0.71128  -0.70412  -0.65403  -0.64956
 Alpha  occ. eigenvalues --   -0.64716  -0.62068  -0.61308  -0.59775  -0.57983
 Alpha  occ. eigenvalues --   -0.55675  -0.55211  -0.53350  -0.53058  -0.52751
 Alpha  occ. eigenvalues --   -0.52589  -0.50308  -0.48757  -0.48756  -0.48302
 Alpha  occ. eigenvalues --   -0.46998  -0.46110  -0.46012  -0.44766  -0.44169
 Alpha  occ. eigenvalues --   -0.37282  -0.36267
 Alpha virt. eigenvalues --    0.05102   0.11325   0.16571   0.20833   0.22581
 Alpha virt. eigenvalues --    0.23953   0.26014   0.26413   0.27097   0.28155
 Alpha virt. eigenvalues --    0.28527   0.30135   0.31026   0.31484   0.32001

 Mulliken charges:
               1
     1  C   -0.299327
     2  C   -0.299737
     3  C   -0.480723
     4  H    0.151354
     5  H    0.151486
     6  H    0.152816
     7  H    0.151954
     8  H    0.162873
     9  H    0.155280
    10  H    0.149898
    11  C   -0.298625
    12  C   -0.300101
    13  C   -0.475926
    14  H    0.149699
    15  H    0.149428
    16  H    0.153098
    17  H    0.153057
    18  H    0.155012
    19  H    0.155193
    20  H    0.161483
    21  C   -0.173255
    22  C   -0.215120
    23  C   -0.173307
    24  C    0.158579
    25  C   -0.171603
    26  C   -0.218484
    27  H    0.225228
    28  H    0.228804
    29  H    0.275631
    30  H    0.275272
    31  H    0.223086
    32  N    0.488073
    33  O   -0.460664
    34  O   -0.460434
 Sum of Mulliken charges =  -0.00000

 Dipole moment (field-independent basis, Debye):
    X=             -1.7404    Y=             -4.8365    Z=              0.8561  Tot=              5.2109
 Quadrupole moment (field-independent basis, Debye-Ang):
   XX=           -105.9778   YY=            -98.5579   ZZ=            -90.4256
   XY=            -17.4078   XZ=              5.9098   YZ=             -0.2713

 Normal termination of Gaussian 16 at Thu May  6 18:43:14 2021.
