 Gaussian 16, Revision A.03,
 Gaussian 16:  EM64L-G16RevA.03 25-Dec-2016

 -------------
 #p 6-31g* mp2
 -------------

 ------------------------------------------------------
 Input file generated by CHIRIPA (05-May-2021 14:53:14)
 ------------------------------------------------------
 Symbolic Z-matrix:
 Charge =  0 Multiplicity = 1

                         Standard orientation:
 ---------------------------------------------------------------------
 Center     Atomic      Atomic             Coordinates (Angstroms)
 Number     Number       Type             X           Y           Z
 ---------------------------------------------------------------------
      1          6           0       -4.004928    0.959253   -0.331667
      2          6           0       -2.942221    2.001982    0.016693
      3          6           0       -3.308096    3.404410   -0.470263
      4          1           0       -4.151785    0.944242   -1.420314
      5          1           0       -4.964674    1.262656    0.109048
      6          1           0       -1.984453    1.695994   -0.423384
      7          1           0       -2.797739    2.014378    1.104621
      8          1           0       -4.250455    3.734472   -0.021242
      9          1           0       -3.432548    3.414279   -1.557928
     10          1           0       -2.534705    4.134016   -0.210648
     11          6           0       -3.653476   -0.447726    0.148561
     12          6           0       -4.716182   -1.490456   -0.199798
     13          6           0       -4.350307   -2.892884    0.287158
     14          1           0       -2.693730   -0.751130   -0.292153
     15          1           0       -3.506618   -0.432715    1.237209
     16          1           0       -4.860665   -1.502852   -1.287726
     17          1           0       -5.673950   -1.184468    0.240278
     18          1           0       -4.225855   -2.902753    1.374823
     19          1           0       -3.407948   -3.222946   -0.161863
     20          1           0       -5.123699   -3.622490    0.027543
     21          6           0        0.540028   -0.591859    0.521188
     22          6           0        1.326507    0.077287    1.464700
     23          6           0        2.685920    0.300066    1.226134
     24          6           0        3.228569   -0.161913    0.028053
     25          6           0        2.471157   -0.831796   -0.931569
     26          6           0        1.113851   -1.043469   -0.671831
     27          1           0       -0.515178   -0.760606    0.714735
     28          1           0        0.883556    0.429125    2.392088
     29          1           0        3.317884    0.815277    1.939294
     30          1           0        2.941039   -1.170803   -1.846830
     31          1           0        0.505483   -1.563432   -1.406386
     32          7           0        4.666604    0.068054   -0.235712
     33          8           0        5.120763   -0.348848   -1.298994
     34          8           0        5.312346    0.660850    0.625826
 ---------------------------------------------------------------------

 SCF Done:  E(RHF) =  -669.535647716     A.U. after   15 cycles
 E2 =    -0.2091741373D+01 EUMP2 =    -0.67162738908859D+03

 The electronic state is 1-A.
 Alpha  occ. eigenvalues --  -20.60723 -20.60718 -15.85778 -11.31131 -11.27708
 Alpha  occ. eigenvalues --  -11.27698 -11.27372 -11.26715 -11.26692 -11.22644
 Alpha  occ. eigenvalues --  -11.22555 -11.22465 -11.22304 -11.22000 -11.21724
 Alpha  occ. eigenvalues --   -1.59800  -1.39353  -1.19302  -1.09439  -1.08690
 Alpha  occ. eigenvalues --   -1.04707  -1.04420  -0.96879  -0.95529  -0.87886
 Alpha  occ. eigenvalues --   -0.86101  -0.82370  -0.80500  -0.79302  -0.77420
 Alpha  occ. eigenvalues --   -0.71995  -0.71123  -0.70399  -0.66062  -0.64950
 Alpha  occ. eigenvalues --   -0.64710  -0.62058  -0.61807  -0.60244  -0.58506
 Alpha  occ. eigenvalues --   -0.56182  -0.55200  -0.53515  -0.53288  -0.53031
 Alpha  occ. eigenvalues --   -0.52797  -0.50812  -0.48813  -0.48752  -0.48749
 Alpha  occ. eigenvalues --   -0.47539  -0.46773  -0.46724  -0.44762  -0.44713
 Alpha  occ. eigenvalues --   -0.37257  -0.36317
 Alpha virt. eigenvalues --    0.05095   0.11330   0.16511   0.19821   0.22552
 Alpha virt. eigenvalues --    0.23448   0.25106   0.25591   0.27096   0.27507
 Alpha virt. eigenvalues --    0.29889   0.30581   0.30764   0.31037   0.31610

 Mulliken charges:
               1
     1  C   -0.297869
     2  C   -0.303176
     3  C   -0.476041
     4  H    0.152486
     5  H    0.153282
     6  H    0.152722
     7  H    0.149065
     8  H    0.156783
     9  H    0.157294
    10  H    0.163098
    11  C   -0.303183
    12  C   -0.299555
    13  C   -0.476478
    14  H    0.141522
    15  H    0.148320
    16  H    0.154608
    17  H    0.156113
    18  H    0.155846
    19  H    0.151495
    20  H    0.164955
    21  C   -0.175952
    22  C   -0.220279
    23  C   -0.170785
    24  C    0.158175
    25  C   -0.170759
    26  C   -0.221844
    27  H    0.236831
    28  H    0.223715
    29  H    0.275307
    30  H    0.275304
    31  H    0.222191
    32  N    0.488066
    33  O   -0.460676
    34  O   -0.460579
 Sum of Mulliken charges =  -0.00000

 Dipole moment (field-independent basis, Debye):
    X=             -5.3236    Y=             -0.7496    Z=              0.9054  Tot=              5.4518
 Quadrupole moment (field-independent basis, Debye-Ang):
   XX=           -126.9188   YY=            -94.8207   ZZ=            -90.2582
   XY=             -1.5388   XZ=              3.0036   YZ=              2.6205

 Normal termination of Gaussian 16 at Wed May  5 17:05:50 2021.
