 Gaussian 16, Revision A.03,
 Gaussian 16:  EM64L-G16RevA.03 25-Dec-2016

 -------------
 #p 6-31g* mp2
 -------------

 ------------------------------------------------------
 Input file generated by CHIRIPA (05-May-2021 14:53:14)
 ------------------------------------------------------
 Symbolic Z-matrix:
 Charge =  0 Multiplicity = 1

                         Standard orientation:
 ---------------------------------------------------------------------
 Center     Atomic      Atomic             Coordinates (Angstroms)
 Number     Number       Type             X           Y           Z
 ---------------------------------------------------------------------
      1          6           0        5.264102   -0.116476   -0.311509
      2          6           0        6.177920   -0.980239    0.558453
      3          6           0        7.279659   -1.671076   -0.245730
      4          1           0        4.811978   -0.743315   -1.092279
      5          1           0        5.870132    0.639601   -0.829649
      6          1           0        5.570160   -1.733582    1.075868
      7          1           0        6.627773   -0.351310    1.337361
      8          1           0        7.910311   -0.931452   -0.749552
      9          1           0        6.846689   -2.321579   -1.012531
     10          1           0        7.921179   -2.283276    0.395770
     11          6           0        4.157681    0.580697    0.478117
     12          6           0        3.243862    1.444460   -0.391845
     13          6           0        2.142123    2.135296    0.412338
     14          1           0        3.551651   -0.175381    0.996257
     15          1           0        4.609805    1.207536    1.258887
     16          1           0        2.794010    0.815531   -1.170753
     17          1           0        3.851622    2.197803   -0.909259
     18          1           0        2.575093    2.785799    1.179139
     19          1           0        1.511472    1.395673    0.916160
     20          1           0        1.500603    2.747497   -0.229162
     21          6           0       -1.223556    0.286948   -0.397694
     22          6           0       -1.676262   -1.032021   -0.288613
     23          6           0       -3.035285   -1.303273   -0.104151
     24          6           0       -3.917901   -0.226608   -0.032925
     25          6           0       -3.497649    1.098390   -0.138086
     26          6           0       -2.134089    1.346077   -0.322215
     27          1           0       -0.166072    0.488511   -0.540859
     28          1           0       -0.971402   -1.856535   -0.346863
     29          1           0       -3.412924   -2.314778   -0.016599
     30          1           0       -4.224234    1.899424   -0.076145
     31          1           0       -1.785360    2.371412   -0.406603
     32          7           0       -5.359039   -0.501297    0.162179
     33          8           0       -6.116408    0.464877    0.221658
     34          8           0       -5.703947   -1.677572    0.251931
 ---------------------------------------------------------------------

 SCF Done:  E(RHF) =  -669.535308221     A.U. after   15 cycles
 E2 =    -0.2091286007D+01 EUMP2 =    -0.67162659422727D+03

 The electronic state is 1-A.
 Alpha  occ. eigenvalues --  -20.60721 -20.60716 -15.85775 -11.31130 -11.27702
 Alpha  occ. eigenvalues --  -11.27695 -11.27370 -11.26708 -11.26692 -11.22762
 Alpha  occ. eigenvalues --  -11.22399 -11.22314 -11.22231 -11.22126 -11.21595
 Alpha  occ. eigenvalues --   -1.59797  -1.39350  -1.19299  -1.09318  -1.08690
 Alpha  occ. eigenvalues --   -1.04703  -1.04441  -0.96899  -0.95526  -0.87913
 Alpha  occ. eigenvalues --   -0.86097  -0.82366  -0.80508  -0.79075  -0.77417
 Alpha  occ. eigenvalues --   -0.71992  -0.71120  -0.70434  -0.65953  -0.64948
 Alpha  occ. eigenvalues --   -0.64711  -0.62056  -0.61853  -0.60293  -0.58474
 Alpha  occ. eigenvalues --   -0.56343  -0.55027  -0.53589  -0.53305  -0.53023
 Alpha  occ. eigenvalues --   -0.52791  -0.50805  -0.48815  -0.48748  -0.48744
 Alpha  occ. eigenvalues --   -0.47544  -0.46624  -0.46528  -0.44759  -0.44675
 Alpha  occ. eigenvalues --   -0.37263  -0.36312
 Alpha virt. eigenvalues --    0.05099   0.11340   0.16526   0.19341   0.22489
 Alpha virt. eigenvalues --    0.23852   0.25563   0.26087   0.26616   0.27251
 Alpha virt. eigenvalues --    0.29427   0.29834   0.30774   0.31161   0.31787

 Mulliken charges:
               1
     1  C   -0.298785
     2  C   -0.300227
     3  C   -0.476140
     4  H    0.148989
     5  H    0.151538
     6  H    0.152018
     7  H    0.153474
     8  H    0.156250
     9  H    0.155395
    10  H    0.162228
    11  C   -0.298394
    12  C   -0.302890
    13  C   -0.484108
    14  H    0.148274
    15  H    0.153141
    16  H    0.147869
    17  H    0.157570
    18  H    0.164491
    19  H    0.153211
    20  H    0.156181
    21  C   -0.176472
    22  C   -0.220651
    23  C   -0.170665
    24  C    0.158274
    25  C   -0.170833
    26  C   -0.221456
    27  H    0.237652
    28  H    0.222867
    29  H    0.275253
    30  H    0.275405
    31  H    0.223712
    32  N    0.488051
    33  O   -0.460572
    34  O   -0.460652
 Sum of Mulliken charges =  -0.00000

 Dipole moment (field-independent basis, Debye):
    X=              5.3588    Y=              1.0111    Z=             -0.6451  Tot=              5.4913
 Quadrupole moment (field-independent basis, Debye-Ang):
   XX=           -134.2994   YY=            -89.8899   ZZ=            -95.7829
   XY=             -4.9412   XZ=              3.1525   YZ=             -0.0043

 Normal termination of Gaussian 16 at Wed May  5 23:27:09 2021.
