 Gaussian 16, Revision A.03,
 Gaussian 16:  EM64L-G16RevA.03 25-Dec-2016

 -------------
 #p 6-31g* mp2
 -------------

 ------------------------------------------------------
 Input file generated by CHIRIPA (05-May-2021 14:53:15)
 ------------------------------------------------------
 Symbolic Z-matrix:
 Charge =  0 Multiplicity = 1

                         Standard orientation:
 ---------------------------------------------------------------------
 Center     Atomic      Atomic             Coordinates (Angstroms)
 Number     Number       Type             X           Y           Z
 ---------------------------------------------------------------------
      1          6           0        3.844304   -1.015837    0.372932
      2          6           0        2.494964   -0.718311    1.027718
      3          6           0        1.740828   -1.986039    1.430134
      4          1           0        3.683915   -1.645559   -0.512885
      5          1           0        4.459285   -1.604476    1.067696
      6          1           0        1.883232   -0.129227    0.332461
      7          1           0        2.658565   -0.089065    1.911969
      8          1           0        2.328262   -2.573872    2.142857
      9          1           0        1.548524   -2.614262    0.554374
     10          1           0        0.779072   -1.750163    1.896233
     11          6           0        4.610110    0.241502   -0.034949
     12          6           0        5.959450   -0.056025   -0.689734
     13          6           0        6.713586    1.211704   -1.092151
     14          1           0        3.995129    0.830141   -0.729713
     15          1           0        4.770499    0.871223    0.850868
     16          1           0        5.795849   -0.685270   -1.573986
     17          1           0        6.571182   -0.645108    0.005522
     18          1           0        6.905890    1.839927   -0.216391
     19          1           0        6.126152    1.799537   -1.804874
     20          1           0        7.675341    0.975828   -1.558250
     21          6           0       -1.144172    1.476550    0.441618
     22          6           0       -1.134762    0.377952   -0.424127
     23          6           0       -2.324635   -0.280244   -0.748975
     24          6           0       -3.511165    0.188969   -0.187483
     25          6           0       -3.553121    1.280801    0.678216
     26          6           0       -2.351193    1.923681    0.989062
     27          1           0       -0.215167    1.981904    0.688529
     28          1           0       -0.198857    0.028511   -0.850765
     29          1           0       -2.346098   -1.133150   -1.416440
     30          1           0       -4.501723    1.606018    1.087856
     31          1           0       -2.361515    2.776614    1.661700
     32          7           0       -4.777211   -0.499726   -0.523973
     33          8           0       -5.809336   -0.066826   -0.016081
     34          8           0       -4.713441   -1.459385   -1.289234
 ---------------------------------------------------------------------

 SCF Done:  E(RHF) =  -669.535409561     A.U. after   15 cycles
 E2 =    -0.2091649286D+01 EUMP2 =    -0.67162705884688D+03

 The electronic state is 1-A.
 Alpha  occ. eigenvalues --  -20.60747 -20.60742 -15.85800 -11.31166 -11.27737
 Alpha  occ. eigenvalues --  -11.27731 -11.27468 -11.26748 -11.26728 -11.22635
 Alpha  occ. eigenvalues --  -11.22221 -11.22194 -11.22121 -11.21829 -11.21605
 Alpha  occ. eigenvalues --   -1.59823  -1.39376  -1.19339  -1.09223  -1.08732
 Alpha  occ. eigenvalues --   -1.04746  -1.04280  -0.96694  -0.95566  -0.87708
 Alpha  occ. eigenvalues --   -0.86146  -0.82398  -0.80372  -0.79037  -0.77449
 Alpha  occ. eigenvalues --   -0.72019  -0.71146  -0.70440  -0.65908  -0.64990
 Alpha  occ. eigenvalues --   -0.64750  -0.62180  -0.61594  -0.60061  -0.58308
 Alpha  occ. eigenvalues --   -0.55979  -0.55231  -0.53391  -0.53146  -0.53012
 Alpha  occ. eigenvalues --   -0.52837  -0.50642  -0.48793  -0.48774  -0.48652
 Alpha  occ. eigenvalues --   -0.47413  -0.46563  -0.46490  -0.44782  -0.44527
 Alpha  occ. eigenvalues --   -0.37310  -0.36339
 Alpha virt. eigenvalues --    0.05086   0.11228   0.16571   0.19604   0.22554
 Alpha virt. eigenvalues --    0.23797   0.25350   0.26192   0.27233   0.27874
 Alpha virt. eigenvalues --    0.28758   0.30178   0.30975   0.31485   0.31860

 Mulliken charges:
               1
     1  C   -0.298270
     2  C   -0.302881
     3  C   -0.477548
     4  H    0.150552
     5  H    0.153504
     6  H    0.140041
     7  H    0.153488
     8  H    0.159514
     9  H    0.154916
    10  H    0.164691
    11  C   -0.298279
    12  C   -0.300148
    13  C   -0.476121
    14  H    0.145744
    15  H    0.150092
    16  H    0.153075
    17  H    0.153817
    18  H    0.155571
    19  H    0.154932
    20  H    0.162512
    21  C   -0.171995
    22  C   -0.219672
    23  C   -0.171618
    24  C    0.158502
    25  C   -0.171062
    26  C   -0.218844
    27  H    0.226896
    28  H    0.226929
    29  H    0.275635
    30  H    0.275541
    31  H    0.223376
    32  N    0.488032
    33  O   -0.460487
    34  O   -0.460437
 Sum of Mulliken charges =  -0.00000

 Dipole moment (field-independent basis, Debye):
    X=              4.6202    Y=              2.3597    Z=              1.2467  Tot=              5.3356
 Quadrupole moment (field-independent basis, Debye-Ang):
   XX=           -124.8698   YY=            -92.7693   ZZ=            -93.2049
   XY=            -10.3036   XZ=             -5.9954   YZ=              2.1813

 Normal termination of Gaussian 16 at Thu May  6 20:26:01 2021.
