 Gaussian 16, Revision A.03,
 Gaussian 16:  EM64L-G16RevA.03 25-Dec-2016

 -------------
 #p 6-31g* mp2
 -------------

 ------------------------------------------------------
 Input file generated by CHIRIPA (05-May-2021 14:53:16)
 ------------------------------------------------------
 Symbolic Z-matrix:
 Charge =  0 Multiplicity = 1

                         Standard orientation:
 ---------------------------------------------------------------------
 Center     Atomic      Atomic             Coordinates (Angstroms)
 Number     Number       Type             X           Y           Z
 ---------------------------------------------------------------------
      1          6           0        2.544020    1.331410    0.579477
      2          6           0        1.340652    2.081870    0.007900
      3          6           0        0.953815    3.302476    0.843526
      4          1           0        2.317488    1.016947    1.607457
      5          1           0        3.398989    2.018616    0.644058
      6          1           0        0.488596    1.393088   -0.056876
      7          1           0        1.570004    2.394416   -1.018905
      8          1           0        1.786248    4.011471    0.898135
      9          1           0        0.698696    3.004455    1.865631
     10          1           0        0.091359    3.824071    0.416949
     11          6           0        2.942823    0.108679   -0.244910
     12          6           0        4.146190   -0.641781    0.326668
     13          6           0        4.533028   -1.862387   -0.508958
     14          1           0        2.087854   -0.578527   -0.309490
     15          1           0        3.169355    0.423142   -1.272889
     16          1           0        3.916839   -0.954327    1.353473
     17          1           0        4.998247    0.047000    0.391443
     18          1           0        4.788147   -1.564366   -1.531063
     19          1           0        3.700595   -2.571382   -0.563568
     20          1           0        5.395484   -2.383982   -0.082382
     21          6           0       -1.277730   -2.881384    0.358858
     22          6           0       -0.616750   -2.068691   -0.568050
     23          6           0       -1.087420   -0.782173   -0.847140
     24          6           0       -2.226978   -0.338357   -0.178019
     25          6           0       -2.907522   -1.124237    0.750713
     26          6           0       -2.418995   -2.407399    1.014126
     27          1           0       -0.905168   -3.879478    0.569572
     28          1           0        0.269799   -2.434164   -1.078443
     29          1           0       -0.595117   -0.131991   -1.560105
     30          1           0       -3.788854   -0.732211    1.243651
     31          1           0       -2.934355   -3.036342    1.734458
     32          7           0       -2.734707    1.021845   -0.465180
     33          8           0       -3.740707    1.389458    0.137698
     34          8           0       -2.117051    1.694603   -1.287697
 ---------------------------------------------------------------------

 SCF Done:  E(RHF) =  -669.534665194     A.U. after   15 cycles
 E2 =    -0.2094913594D+01 EUMP2 =    -0.67162957878753D+03

 The electronic state is 1-A.
 Alpha  occ. eigenvalues --  -20.60916 -20.60892 -15.85931 -11.31283 -11.27866
 Alpha  occ. eigenvalues --  -11.27831 -11.27602 -11.26864 -11.26847 -11.21939
 Alpha  occ. eigenvalues --  -11.21664 -11.21581 -11.21324 -11.21185 -11.20491
 Alpha  occ. eigenvalues --   -1.59965  -1.39520  -1.19474  -1.08863  -1.08518
 Alpha  occ. eigenvalues --   -1.04873  -1.03520  -0.95989  -0.95699  -0.87013
 Alpha  occ. eigenvalues --   -0.86269  -0.82532  -0.79645  -0.78387  -0.77506
 Alpha  occ. eigenvalues --   -0.72155  -0.71289  -0.70577  -0.65188  -0.65115
 Alpha  occ. eigenvalues --   -0.64876  -0.62210  -0.60924  -0.59391  -0.57557
 Alpha  occ. eigenvalues --   -0.55374  -0.55313  -0.53227  -0.52973  -0.52621
 Alpha  occ. eigenvalues --   -0.52402  -0.49968  -0.48952  -0.48911  -0.47918
 Alpha  occ. eigenvalues --   -0.46720  -0.45900  -0.45761  -0.44749  -0.43767
 Alpha  occ. eigenvalues --   -0.37435  -0.36387
 Alpha virt. eigenvalues --    0.04911   0.11041   0.16235   0.20382   0.22971
 Alpha virt. eigenvalues --    0.24019   0.25645   0.26586   0.27584   0.28385
 Alpha virt. eigenvalues --    0.29718   0.29904   0.31560   0.31921   0.32284

 Mulliken charges:
               1
     1  C   -0.297160
     2  C   -0.303173
     3  C   -0.478804
     4  H    0.148681
     5  H    0.149948
     6  H    0.154456
     7  H    0.152453
     8  H    0.152028
     9  H    0.151677
    10  H    0.174652
    11  C   -0.303336
    12  C   -0.299133
    13  C   -0.474743
    14  H    0.143403
    15  H    0.149432
    16  H    0.152141
    17  H    0.154832
    18  H    0.156524
    19  H    0.146461
    20  H    0.162143
    21  C   -0.171609
    22  C   -0.220279
    23  C   -0.173334
    24  C    0.159928
    25  C   -0.170597
    26  C   -0.218628
    27  H    0.226287
    28  H    0.225745
    29  H    0.279789
    30  H    0.275985
    31  H    0.223914
    32  N    0.488573
    33  O   -0.459235
    34  O   -0.459018
 Sum of Mulliken charges =  -0.00000

 Dipole moment (field-independent basis, Debye):
    X=              1.6346    Y=             -4.6886    Z=              1.0002  Tot=              5.0651
 Quadrupole moment (field-independent basis, Debye-Ang):
   XX=           -100.0434   YY=            -92.2035   ZZ=            -93.4586
   XY=             11.5030   XZ=             -5.5656   YZ=             -0.9950

 Normal termination of Gaussian 16 at Thu May  6 12:16:28 2021.
