 Gaussian 16, Revision A.03,
 Gaussian 16:  EM64L-G16RevA.03 25-Dec-2016

 -------------
 #p 6-31g* mp2
 -------------

 ------------------------------------------------------
 Input file generated by CHIRIPA (05-May-2021 14:57:24)
 ------------------------------------------------------
 Symbolic Z-matrix:
 Charge =  0 Multiplicity = 1

                         Standard orientation:
 ---------------------------------------------------------------------
 Center     Atomic      Atomic             Coordinates (Angstroms)
 Number     Number       Type             X           Y           Z
 ---------------------------------------------------------------------
      1          6           0        5.459462   -0.417664   -0.756612
      2          6           0        5.166790    0.740693   -0.029239
      3          6           0        3.917941    0.900954    0.578412
      4          6           0        2.981113   -0.121717    0.437746
      5          6           0        3.242706   -1.287496   -0.280460
      6          6           0        4.498180   -1.426284   -0.879684
      7          1           0        6.432171   -0.533819   -1.225377
      8          1           0        5.911399    1.525643    0.068009
      9          1           0        3.664890    1.787412    1.147250
     10          1           0        2.480055   -2.052665   -0.359814
     11          1           0        4.722698   -2.326960   -1.443971
     12          7           0        1.655505    0.036578    1.076579
     13          8           0        0.847372   -0.879009    0.937803
     14          8           0        1.449728    1.073239    1.703976
     15          6           0       -1.490968    1.798532   -1.181954
     16          6           0       -2.630601    2.253661   -0.510673
     17          6           0       -3.583917    1.348067   -0.035664
     18          6           0       -3.364772   -0.011780   -0.250333
     19          6           0       -2.239538   -0.496239   -0.915493
     20          6           0       -1.299413    0.427452   -1.381869
     21          1           0       -0.755533    2.509049   -1.547599
     22          1           0       -2.781982    3.317887   -0.353984
     23          1           0       -4.475190    1.673056    0.487242
     24          1           0       -2.116207   -1.563149   -1.056593
     25          1           0       -0.415304    0.071125   -1.902857
     26          7           0       -4.367024   -0.980071    0.247968
     27          8           0       -4.150678   -2.173002    0.046102
     28          8           0       -5.349955   -0.527754    0.830969
 ---------------------------------------------------------------------

 SCF Done:  E(RHF) =  -868.337635911     A.U. after   16 cycles
 E2 =    -0.2600721696D+01 EUMP2 =    -0.87093835760630D+03

 The electronic state is 1-A.
 Alpha  occ. eigenvalues --  -20.61403 -20.61388 -20.59807 -20.59801 -15.86419
 Alpha  occ. eigenvalues --  -15.84856 -11.31815 -11.30056 -11.28377 -11.28362
 Alpha  occ. eigenvalues --  -11.28078 -11.27369 -11.27359 -11.26655 -11.26628
 Alpha  occ. eigenvalues --  -11.26433 -11.25678 -11.25668  -1.60456  -1.58881
 Alpha  occ. eigenvalues --   -1.40016  -1.38441  -1.19977  -1.18231  -1.09361
 Alpha  occ. eigenvalues --   -1.07684  -1.05373  -1.03632  -0.96195  -0.94541
 Alpha  occ. eigenvalues --   -0.86768  -0.85074  -0.83027  -0.81390  -0.78082
 Alpha  occ. eigenvalues --   -0.76444  -0.72647  -0.71801  -0.71093  -0.71062
 Alpha  occ. eigenvalues --   -0.70188  -0.69418  -0.65620  -0.65358  -0.63925
 Alpha  occ. eigenvalues --   -0.63710  -0.62716  -0.61022  -0.55850  -0.54222
 Alpha  occ. eigenvalues --   -0.53716  -0.53453  -0.51937  -0.51791  -0.49409
 Alpha  occ. eigenvalues --   -0.49379  -0.47846  -0.47834  -0.45412  -0.43883
 Alpha  occ. eigenvalues --   -0.37958  -0.36984  -0.36212  -0.35113
 Alpha virt. eigenvalues --    0.04417   0.06141   0.10653   0.12443   0.15916
 Alpha virt. eigenvalues --    0.17660   0.20849   0.22273   0.26734   0.27554
 Alpha virt. eigenvalues --    0.28230   0.29224   0.30499   0.31539   0.32269

 Mulliken charges:
               1
     1  C   -0.170812
     2  C   -0.218348
     3  C   -0.172245
     4  C    0.156570
     5  C   -0.174185
     6  C   -0.218240
     7  H    0.227630
     8  H    0.225056
     9  H    0.275860
    10  H    0.275138
    11  H    0.225467
    12  N    0.487236
    13  O   -0.458670
    14  O   -0.458617
    15  C   -0.167657
    16  C   -0.216038
    17  C   -0.170506
    18  C    0.157796
    19  C   -0.156387
    20  C   -0.209576
    21  H    0.219539
    22  H    0.219465
    23  H    0.272368
    24  H    0.272788
    25  H    0.213824
    26  N    0.488573
    27  O   -0.462363
    28  O   -0.463665
 Sum of Mulliken charges =  -0.00000

 Dipole moment (field-independent basis, Debye):
    X=              8.4674    Y=              2.7815    Z=             -3.8932  Tot=              9.7257
 Quadrupole moment (field-independent basis, Debye-Ang):
   XX=           -100.0502   YY=            -98.4981   ZZ=           -106.2741
   XY=            -14.7151   XZ=             -0.5299   YZ=              2.7720

 Normal termination of Gaussian 16 at Fri May  7 09:34:15 2021.
