 Gaussian 16, Revision A.03,
 Gaussian 16:  EM64L-G16RevA.03 25-Dec-2016

 -------------
 #p 6-31g* mp2
 -------------

 ------------------------------------------------------
 Input file generated by CHIRIPA (05-May-2021 14:55:25)
 ------------------------------------------------------
 Symbolic Z-matrix:
 Charge =  0 Multiplicity = 1

                         Standard orientation:
 ---------------------------------------------------------------------
 Center     Atomic      Atomic             Coordinates (Angstroms)
 Number     Number       Type             X           Y           Z
 ---------------------------------------------------------------------
      1          6           0        4.336872    2.478491    0.287687
      2          6           0        2.958958    2.247485    0.354837
      3          6           0        2.444891    0.960695    0.169217
      4          6           0        3.341488   -0.076543   -0.082857
      5          6           0        4.719410    0.121722   -0.155753
      6          6           0        5.211159    1.416744    0.033055
      7          1           0        4.727544    3.481298    0.433119
      8          1           0        2.277615    3.070146    0.552437
      9          1           0        1.382631    0.753717    0.215915
     10          1           0        5.373732   -0.718430   -0.354311
     11          1           0        6.281735    1.593197   -0.019648
     12          7           0        2.809082   -1.443167   -0.281052
     13          8           0        3.619986   -2.340019   -0.501796
     14          8           0        1.590959   -1.591598   -0.211901
     15          6           0       -3.693830   -0.460340   -0.099089
     16          6           0       -3.306889   -1.682761    0.733947
     17          6           0       -1.912633   -2.211370    0.395691
     18          1           0       -3.647865   -0.721590   -1.165194
     19          1           0       -2.951031    0.333495    0.060507
     20          1           0       -4.050953   -2.473564    0.573897
     21          1           0       -3.353967   -1.418626    1.798198
     22          1           0       -1.155123   -1.441070    0.572941
     23          1           0       -1.856069   -2.502002   -0.658318
     24          1           0       -1.656396   -3.085230    1.002792
     25          6           0       -5.085012    0.079685    0.227581
     26          6           0       -5.471954    1.302106   -0.605455
     27          6           0       -6.866210    1.830715   -0.267199
     28          1           0       -5.827812   -0.714151    0.067986
     29          1           0       -5.130978    0.340934    1.293687
     30          1           0       -5.424876    1.037970   -1.669706
     31          1           0       -4.727890    2.092908   -0.445404
     32          1           0       -6.922774    2.121347    0.786810
     33          1           0       -7.623720    1.060414   -0.444448
     34          1           0       -7.122446    2.704574   -0.874300
 ---------------------------------------------------------------------

 SCF Done:  E(RHF) =  -669.535556222     A.U. after   15 cycles
 E2 =    -0.2090904634D+01 EUMP2 =    -0.67162646085571D+03

 The electronic state is 1-A.
 Alpha  occ. eigenvalues --  -20.60826 -20.60819 -15.85869 -11.31240 -11.27816
 Alpha  occ. eigenvalues --  -11.27805 -11.27554 -11.26829 -11.26818 -11.21411
 Alpha  occ. eigenvalues --  -11.21070 -11.20935 -11.20931 -11.20845 -11.19839
 Alpha  occ. eigenvalues --   -1.59896  -1.39450  -1.19414  -1.08808  -1.08005
 Alpha  occ. eigenvalues --   -1.04818  -1.03003  -0.95650  -0.95408  -0.86420
 Alpha  occ. eigenvalues --   -0.86216  -0.82476  -0.79083  -0.77805  -0.77509
 Alpha  occ. eigenvalues --   -0.72090  -0.71215  -0.70523  -0.65070  -0.64822
 Alpha  occ. eigenvalues --   -0.64647  -0.62168  -0.60406  -0.58851  -0.57026
 Alpha  occ. eigenvalues --   -0.55319  -0.54703  -0.53147  -0.52912  -0.52081
 Alpha  occ. eigenvalues --   -0.51822  -0.49382  -0.48846  -0.48828  -0.47361
 Alpha  occ. eigenvalues --   -0.46142  -0.45314  -0.45264  -0.44843  -0.43265
 Alpha  occ. eigenvalues --   -0.37395  -0.36422
 Alpha virt. eigenvalues --    0.05011   0.11232   0.16501   0.21060   0.23159
 Alpha virt. eigenvalues --    0.24453   0.26295   0.27322   0.27619   0.28037
 Alpha virt. eigenvalues --    0.29068   0.30478   0.31631   0.32143   0.32551

 Mulliken charges:
               1
     1  C   -0.170703
     2  C   -0.218710
     3  C   -0.170700
     4  C    0.157903
     5  C   -0.170879
     6  C   -0.218547
     7  H    0.225787
     8  H    0.223623
     9  H    0.275626
    10  H    0.275790
    11  H    0.223643
    12  N    0.493616
    13  O   -0.459996
    14  O   -0.464365
    15  C   -0.295853
    16  C   -0.301871
    17  C   -0.471987
    18  H    0.150341
    19  H    0.143366
    20  H    0.149498
    21  H    0.147667
    22  H    0.163118
    23  H    0.157006
    24  H    0.160633
    25  C   -0.297633
    26  C   -0.298834
    27  C   -0.475373
    28  H    0.149825
    29  H    0.148108
    30  H    0.152114
    31  H    0.148905
    32  H    0.154362
    33  H    0.155609
    34  H    0.158911
 Sum of Mulliken charges =  -0.00000

 Dipole moment (field-independent basis, Debye):
    X=              2.0881    Y=              4.7312    Z=              0.6650  Tot=              5.2141
 Quadrupole moment (field-independent basis, Debye-Ang):
   XX=            -79.4861   YY=            -95.2373   ZZ=            -95.2860
   XY=             15.2274   XZ=              2.0448   YZ=              0.3036

 Normal termination of Gaussian 16 at Thu May  6 07:59:51 2021.
