 Gaussian 16, Revision A.03,
 Gaussian 16:  EM64L-G16RevA.03 25-Dec-2016

 -------------
 #p 6-31g* mp2
 -------------

 ------------------------------------------------------
 Input file generated by CHIRIPA (05-May-2021 14:53:13)
 ------------------------------------------------------
 Symbolic Z-matrix:
 Charge =  0 Multiplicity = 1

                         Standard orientation:
 ---------------------------------------------------------------------
 Center     Atomic      Atomic             Coordinates (Angstroms)
 Number     Number       Type             X           Y           Z
 ---------------------------------------------------------------------
      1          6           0        5.703299   -0.174501   -0.151053
      2          6           0        6.784766    0.905211   -0.099725
      3          6           0        8.129223    0.421616   -0.644118
      4          1           0        6.039662   -1.048967    0.422632
      5          1           0        5.579760   -0.510805   -1.189818
      6          1           0        6.905255    1.240362    0.938434
      7          1           0        6.445708    1.777282   -0.673439
      8          1           0        8.031098    0.105627   -1.687729
      9          1           0        8.493255   -0.434345   -0.066698
     10          1           0        8.887762    1.209241   -0.598017
     11          6           0        4.353521    0.293831    0.389773
     12          6           0        3.272054   -0.785881    0.338444
     13          6           0        1.927597   -0.302285    0.882837
     14          1           0        4.477060    0.630136    1.428538
     15          1           0        4.017158    1.168297   -0.183912
     16          1           0        3.611112   -1.657952    0.912159
     17          1           0        3.151565   -1.121032   -0.699714
     18          1           0        1.563565    0.553675    0.305417
     19          1           0        2.025722    0.013704    1.926448
     20          1           0        1.169058   -1.089910    0.836737
     21          6           0       -5.731881    1.717107   -0.040039
     22          6           0       -6.078089    0.364030   -0.116500
     23          6           0       -5.087220   -0.621780   -0.146594
     24          6           0       -3.754096   -0.217124   -0.098394
     25          6           0       -3.377342    1.122842   -0.021977
     26          6           0       -4.384988    2.091534    0.006895
     27          1           0       -6.508128    2.476259   -0.017137
     28          1           0       -7.123289    0.070323   -0.153083
     29          1           0       -5.327166   -1.676467   -0.205575
     30          1           0       -2.326840    1.384823    0.013090
     31          1           0       -4.113176    3.141598    0.066297
     32          7           0       -2.696228   -1.251695   -0.129606
     33          8           0       -1.528999   -0.869188   -0.085959
     34          8           0       -3.054328   -2.425511   -0.197126
 ---------------------------------------------------------------------

 SCF Done:  E(RHF) =  -669.535897343     A.U. after   15 cycles
 E2 =    -0.2090671079D+01 EUMP2 =    -0.67162656842268D+03

 The electronic state is 1-A.
 Alpha  occ. eigenvalues --  -20.60878 -20.60868 -15.85913 -11.31250 -11.27817
 Alpha  occ. eigenvalues --  -11.27810 -11.27559 -11.26828 -11.26818 -11.21154
 Alpha  occ. eigenvalues --  -11.20800 -11.20695 -11.20658 -11.20574 -11.19677
 Alpha  occ. eigenvalues --   -1.59943  -1.39498  -1.19421  -1.08824  -1.07742
 Alpha  occ. eigenvalues --   -1.04820  -1.02757  -0.95667  -0.95183  -0.86227
 Alpha  occ. eigenvalues --   -0.86195  -0.82495  -0.78851  -0.77568  -0.77511
 Alpha  occ. eigenvalues --   -0.72140  -0.71259  -0.70530  -0.65077  -0.64823
 Alpha  occ. eigenvalues --   -0.64384  -0.62166  -0.60167  -0.58580  -0.56774
 Alpha  occ. eigenvalues --   -0.55325  -0.54497  -0.53152  -0.52912  -0.51812
 Alpha  occ. eigenvalues --   -0.51625  -0.49175  -0.48892  -0.48874  -0.47143
 Alpha  occ. eigenvalues --   -0.45916  -0.45075  -0.45002  -0.44909  -0.42967
 Alpha  occ. eigenvalues --   -0.37402  -0.36422
 Alpha virt. eigenvalues --    0.04981   0.11233   0.16472   0.21322   0.23496
 Alpha virt. eigenvalues --    0.25082   0.27078   0.27347   0.27909   0.28185
 Alpha virt. eigenvalues --    0.29029   0.30850   0.31882   0.32351   0.32781

 Mulliken charges:
               1
     1  C   -0.297627
     2  C   -0.298945
     3  C   -0.475307
     4  H    0.149100
     5  H    0.149169
     6  H    0.150801
     7  H    0.150536
     8  H    0.154833
     9  H    0.154892
    10  H    0.158504
    11  C   -0.297180
    12  C   -0.299968
    13  C   -0.479129
    14  H    0.147001
    15  H    0.146820
    16  H    0.149675
    17  H    0.152684
    18  H    0.149306
    19  H    0.145884
    20  H    0.186193
    21  C   -0.170655
    22  C   -0.218626
    23  C   -0.170634
    24  C    0.157752
    25  C   -0.170885
    26  C   -0.218595
    27  H    0.225820
    28  H    0.223629
    29  H    0.275727
    30  H    0.276283
    31  H    0.223739
    32  N    0.492016
    33  O   -0.462910
    34  O   -0.459902
 Sum of Mulliken charges =  -0.00000

 Dipole moment (field-independent basis, Debye):
    X=             -4.0226    Y=              3.5542    Z=              0.0853  Tot=              5.3685
 Quadrupole moment (field-independent basis, Debye-Ang):
   XX=            -66.7727   YY=            -94.0113   ZZ=            -95.0822
   XY=            -10.3646   XZ=              0.6805   YZ=             -0.5966

 Normal termination of Gaussian 16 at Thu May  6 12:03:21 2021.
