 Gaussian 16, Revision A.03,
 Gaussian 16:  EM64L-G16RevA.03 25-Dec-2016

 -------------
 #p 6-31g* mp2
 -------------

 ------------------------------------------------------
 Input file generated by CHIRIPA (05-May-2021 14:57:21)
 ------------------------------------------------------
 Symbolic Z-matrix:
 Charge =  0 Multiplicity = 1

                         Standard orientation:
 ---------------------------------------------------------------------
 Center     Atomic      Atomic             Coordinates (Angstroms)
 Number     Number       Type             X           Y           Z
 ---------------------------------------------------------------------
      1          6           0        2.075673   -0.680598    2.119782
      2          6           0        3.253806   -1.389295    1.862351
      3          6           0        4.077072   -1.032592    0.790183
      4          6           0        3.690030    0.042898   -0.007820
      5          6           0        2.522356    0.768538    0.222992
      6          6           0        1.714345    0.394162    1.300725
      7          1           0        1.442065   -0.964557    2.954830
      8          1           0        3.536919   -2.224401    2.496772
      9          1           0        4.994551   -1.563995    0.568235
     10          1           0        2.266489    1.596451   -0.427016
     11          1           0        0.799958    0.946354    1.498275
     12          7           0        4.553510    0.429878   -1.145822
     13          8           0        4.190276    1.381238   -1.834018
     14          8           0        5.577190   -0.225494   -1.328045
     15          6           0       -3.330480    2.438297    0.509343
     16          6           0       -4.596941    1.860305    0.373241
     17          6           0       -4.729262    0.521770   -0.008021
     18          6           0       -3.568720   -0.212826   -0.246354
     19          6           0       -2.292976    0.334545   -0.119264
     20          6           0       -2.184560    1.674918    0.263090
     21          1           0       -3.236974    3.478817    0.805941
     22          1           0       -5.488619    2.450753    0.563836
     23          1           0       -5.697416    0.049164   -0.120897
     24          1           0       -1.422461   -0.279359   -0.316095
     25          1           0       -1.199721    2.121159    0.368001
     26          7           0       -3.696149   -1.630846   -0.650557
     27          8           0       -2.658214   -2.256652   -0.854756
     28          8           0       -4.831549   -2.089635   -0.755520
 ---------------------------------------------------------------------

 SCF Done:  E(RHF) =  -868.337052387     A.U. after   16 cycles
 E2 =    -0.2599953775D+01 EUMP2 =    -0.87093700616117D+03

 The electronic state is 1-A.
 Alpha  occ. eigenvalues --  -20.61214 -20.61208 -20.61048 -20.61035 -15.86274
 Alpha  occ. eigenvalues --  -15.86105 -11.31746 -11.31561 -11.28379 -11.28325
 Alpha  occ. eigenvalues --  -11.28252 -11.28124 -11.28117 -11.27911 -11.27485
 Alpha  occ. eigenvalues --  -11.27328 -11.27304 -11.27102  -1.60289  -1.60118
 Alpha  occ. eigenvalues --   -1.39839  -1.39670  -1.19951  -1.19758  -1.09320
 Alpha  occ. eigenvalues --   -1.09123  -1.05395  -1.05194  -0.96130  -0.95941
 Alpha  occ. eigenvalues --   -0.86775  -0.86582  -0.82992  -0.82779  -0.78037
 Alpha  occ. eigenvalues --   -0.77798  -0.72488  -0.72322  -0.71617  -0.71441
 Alpha  occ. eigenvalues --   -0.71039  -0.70846  -0.65624  -0.65492  -0.65413
 Alpha  occ. eigenvalues --   -0.65158  -0.62859  -0.62411  -0.55865  -0.55650
 Alpha  occ. eigenvalues --   -0.53706  -0.53560  -0.53466  -0.53225  -0.49258
 Alpha  occ. eigenvalues --   -0.49236  -0.49088  -0.49070  -0.45221  -0.45056
 Alpha  occ. eigenvalues --   -0.37925  -0.37711  -0.36999  -0.36797
 Alpha virt. eigenvalues --    0.04540   0.04738   0.10623   0.10823   0.15882
 Alpha virt. eigenvalues --    0.16147   0.18651   0.21993   0.24726   0.27652
 Alpha virt. eigenvalues --    0.27991   0.28628   0.29879   0.31697   0.32127

 Mulliken charges:
               1
     1  C   -0.168744
     2  C   -0.217584
     3  C   -0.168667
     4  C    0.159473
     5  C   -0.171501
     6  C   -0.225487
     7  H    0.229010
     8  H    0.226601
     9  H    0.277995
    10  H    0.272143
    11  H    0.217818
    12  N    0.488324
    13  O   -0.460970
    14  O   -0.458193
    15  C   -0.169835
    16  C   -0.218675
    17  C   -0.169375
    18  C    0.158671
    19  C   -0.173034
    20  C   -0.223239
    21  H    0.227568
    22  H    0.225818
    23  H    0.277699
    24  H    0.277647
    25  H    0.216763
    26  N    0.487930
    27  O   -0.459355
    28  O   -0.458800
 Sum of Mulliken charges =  -0.00000

 Dipole moment (field-independent basis, Debye):
    X=             -2.5988    Y=              3.4629    Z=              5.4462  Tot=              6.9575
 Quadrupole moment (field-independent basis, Debye-Ang):
   XX=           -122.1855   YY=           -105.1593   ZZ=           -106.6787
   XY=            -26.9401   XZ=             10.4582   YZ=             -2.5277

 Normal termination of Gaussian 16 at Thu May  6 21:03:47 2021.
