 Gaussian 16, Revision A.03,
 Gaussian 16:  EM64L-G16RevA.03 25-Dec-2016

 -------------
 #p 6-31g* mp2
 -------------

 ------------------------------------------------------
 Input file generated by CHIRIPA (05-May-2021 14:53:12)
 ------------------------------------------------------
 Symbolic Z-matrix:
 Charge =  0 Multiplicity = 1

                         Standard orientation:
 ---------------------------------------------------------------------
 Center     Atomic      Atomic             Coordinates (Angstroms)
 Number     Number       Type             X           Y           Z
 ---------------------------------------------------------------------
      1          6           0       -3.613835    0.654288    0.243455
      2          6           0       -3.454317    1.935696   -0.575406
      3          6           0       -3.109150    3.149667    0.287687
      4          1           0       -4.397942    0.804240    0.998198
      5          1           0       -2.682806    0.461041    0.794123
      6          1           0       -4.384889    2.125720   -1.125443
      7          1           0       -2.670631    1.782612   -1.328412
      8          1           0       -2.169734    2.985468    0.825401
      9          1           0       -3.893732    3.330525    1.029524
     10          1           0       -2.999703    4.054737   -0.317895
     11          6           0       -3.958986   -0.568053   -0.605356
     12          6           0       -4.118505   -1.849460    0.213505
     13          6           0       -4.463671   -3.063431   -0.649588
     14          1           0       -4.890015   -0.374805   -1.156024
     15          1           0       -3.174879   -0.718004   -1.360099
     16          1           0       -4.902190   -1.696377    0.966511
     17          1           0       -3.187932   -2.039484    0.763542
     18          1           0       -3.679089   -3.244289   -1.391425
     19          1           0       -5.403087   -2.899233   -1.187303
     20          1           0       -4.573119   -3.968501   -0.044007
     21          6           0        0.635814    0.423648    1.015211
     22          6           0        1.259965    1.346733    0.169711
     23          6           0        2.546528    1.103735   -0.320448
     24          6           0        3.182647   -0.077899    0.056887
     25          6           0        2.587228   -1.017008    0.897627
     26          6           0        1.300266   -0.753202    1.375835
     27          1           0       -0.363774    0.620496    1.391336
     28          1           0        0.746337    2.261533   -0.112023
     29          1           0        3.053054    1.801226   -0.976465
     30          1           0        3.124472   -1.920047    1.160893
     31          1           0        0.817988   -1.471878    2.032308
     32          7           0        4.544884   -0.346164   -0.455695
     33          8           0        5.084002   -1.394682   -0.108421
     34          8           0        5.047695    0.497167   -1.195028
 ---------------------------------------------------------------------

 SCF Done:  E(RHF) =  -669.535442727     A.U. after   15 cycles
 E2 =    -0.2091722111D+01 EUMP2 =    -0.67162716483772D+03

 The electronic state is 1-A.
 Alpha  occ. eigenvalues --  -20.60768 -20.60762 -15.85821 -11.31194 -11.27762
 Alpha  occ. eigenvalues --  -11.27758 -11.27487 -11.26781 -11.26769 -11.22620
 Alpha  occ. eigenvalues --  -11.22476 -11.22371 -11.22204 -11.22195 -11.21663
 Alpha  occ. eigenvalues --   -1.59843  -1.39396  -1.19366  -1.09368  -1.08759
 Alpha  occ. eigenvalues --   -1.04770  -1.04422  -0.96874  -0.95596  -0.87884
 Alpha  occ. eigenvalues --   -0.86166  -0.82429  -0.80489  -0.79175  -0.77471
 Alpha  occ. eigenvalues --   -0.72039  -0.71166  -0.70507  -0.66010  -0.65017
 Alpha  occ. eigenvalues --   -0.64763  -0.62131  -0.61804  -0.60246  -0.58477
 Alpha  occ. eigenvalues --   -0.56210  -0.55271  -0.53541  -0.53289  -0.53096
 Alpha  occ. eigenvalues --   -0.52858  -0.50817  -0.48809  -0.48795  -0.48786
 Alpha  occ. eigenvalues --   -0.47531  -0.46703  -0.46614  -0.44800  -0.44681
 Alpha  occ. eigenvalues --   -0.37342  -0.36375
 Alpha virt. eigenvalues --    0.05045   0.11264   0.16445   0.18164   0.22766
 Alpha virt. eigenvalues --    0.23472   0.24951   0.25904   0.26514   0.27947
 Alpha virt. eigenvalues --    0.29554   0.29991   0.30897   0.31219   0.31454

 Mulliken charges:
               1
     1  C   -0.301043
     2  C   -0.301799
     3  C   -0.476636
     4  H    0.153244
     5  H    0.140038
     6  H    0.157422
     7  H    0.152488
     8  H    0.145012
     9  H    0.160007
    10  H    0.164444
    11  C   -0.299077
    12  C   -0.299057
    13  C   -0.476443
    14  H    0.152987
    15  H    0.152510
    16  H    0.153227
    17  H    0.147025
    18  H    0.157156
    19  H    0.157109
    20  H    0.161828
    21  C   -0.176220
    22  C   -0.222214
    23  C   -0.170806
    24  C    0.158602
    25  C   -0.170797
    26  C   -0.220466
    27  H    0.234043
    28  H    0.225214
    29  H    0.275696
    30  H    0.275635
    31  H    0.223647
    32  N    0.487979
    33  O   -0.460384
    34  O   -0.460373
 Sum of Mulliken charges =  -0.00000

 Dipole moment (field-independent basis, Debye):
    X=             -5.0249    Y=              0.9301    Z=              1.7067  Tot=              5.3878
 Quadrupole moment (field-independent basis, Debye-Ang):
   XX=           -124.0435   YY=            -91.9130   ZZ=            -94.1579
   XY=              2.7804   XZ=              5.5835   YZ=             -3.1021

 Normal termination of Gaussian 16 at Thu May  6 07:18:18 2021.
