 Gaussian 16, Revision A.03,
 Gaussian 16:  EM64L-G16RevA.03 25-Dec-2016

 -------------
 #p 6-31g* mp2
 -------------

 ------------------------------------------------------
 Input file generated by CHIRIPA (05-May-2021 14:55:24)
 ------------------------------------------------------
 Symbolic Z-matrix:
 Charge =  0 Multiplicity = 1

                         Standard orientation:
 ---------------------------------------------------------------------
 Center     Atomic      Atomic             Coordinates (Angstroms)
 Number     Number       Type             X           Y           Z
 ---------------------------------------------------------------------
      1          6           0       -0.547947   -0.929228    2.130486
      2          6           0       -0.853315   -1.764470    1.050837
      3          6           0       -1.711751   -1.329041    0.036915
      4          6           0       -2.249464   -0.046644    0.134948
      5          6           0       -1.964399    0.808974    1.197937
      6          6           0       -1.103484    0.352568    2.200467
      7          1           0        0.119870   -1.275627    2.913701
      8          1           0       -0.423337   -2.760421    0.993870
      9          1           0       -1.965080   -1.954969   -0.810114
     10          1           0       -2.408402    1.796611    1.227134
     11          1           0       -0.868105    1.003396    3.037764
     12          7           0       -3.159564    0.425429   -0.932416
     13          8           0       -3.620305    1.559593   -0.822754
     14          8           0       -3.394926   -0.347664   -1.858466
     15          6           0        2.992943    0.786462   -0.086962
     16          6           0        2.352213    2.083133   -0.583046
     17          6           0        2.974342    3.329097    0.048081
     18          1           0        2.897040    0.732363    1.006117
     19          1           0        4.069542    0.810664   -0.305459
     20          1           0        1.276903    2.055896   -0.364920
     21          1           0        2.449482    2.134059   -1.675090
     22          1           0        4.043619    3.383733   -0.180528
     23          1           0        2.864377    3.305125    1.137087
     24          1           0        2.501380    4.244656   -0.320591
     25          6           0        2.381699   -0.467877   -0.708847
     26          6           0        3.022426   -1.764547   -0.212763
     27          6           0        2.400298   -3.010513   -0.843890
     28          1           0        1.305098   -0.492080   -0.490351
     29          1           0        2.477599   -0.413778   -1.801926
     30          1           0        2.925158   -1.815474    0.879281
     31          1           0        4.097739   -1.737311   -0.430889
     32          1           0        2.510263   -2.986541   -1.932896
     33          1           0        1.331021   -3.065148   -0.615282
     34          1           0        2.873260   -3.926072   -0.475219
 ---------------------------------------------------------------------

 SCF Done:  E(RHF) =  -669.534782452     A.U. after   15 cycles
 E2 =    -0.2094641766D+01 EUMP2 =    -0.67162942421819D+03

 The electronic state is 1-A.
 Alpha  occ. eigenvalues --  -20.60867 -20.60862 -15.85923 -11.31357 -11.27929
 Alpha  occ. eigenvalues --  -11.27905 -11.27656 -11.26956 -11.26911 -11.22132
 Alpha  occ. eigenvalues --  -11.21766 -11.21733 -11.21654 -11.21532 -11.21280
 Alpha  occ. eigenvalues --   -1.59941  -1.39492  -1.19537  -1.08928  -1.08721
 Alpha  occ. eigenvalues --   -1.04949  -1.03899  -0.96350  -0.95732  -0.87375
 Alpha  occ. eigenvalues --   -0.86329  -0.82567  -0.79962  -0.78530  -0.77604
 Alpha  occ. eigenvalues --   -0.72138  -0.71265  -0.70616  -0.65469  -0.65178
 Alpha  occ. eigenvalues --   -0.64905  -0.62338  -0.61272  -0.59717  -0.57948
 Alpha  occ. eigenvalues --   -0.55712  -0.55391  -0.53321  -0.53070  -0.53042
 Alpha  occ. eigenvalues --   -0.52713  -0.50299  -0.48902  -0.48890  -0.48276
 Alpha  occ. eigenvalues --   -0.47001  -0.46076  -0.45927  -0.44883  -0.44113
 Alpha  occ. eigenvalues --   -0.37487  -0.36470
 Alpha virt. eigenvalues --    0.04899   0.11031   0.16281   0.20120   0.22889
 Alpha virt. eigenvalues --    0.23932   0.25805   0.26191   0.27113   0.28269
 Alpha virt. eigenvalues --    0.28640   0.30305   0.31226   0.31569   0.32145

 Mulliken charges:
               1
     1  C   -0.171106
     2  C   -0.219108
     3  C   -0.172249
     4  C    0.159887
     5  C   -0.171441
     6  C   -0.218226
     7  H    0.226792
     8  H    0.227381
     9  H    0.276845
    10  H    0.276589
    11  H    0.224519
    12  N    0.488150
    13  O   -0.459936
    14  O   -0.459600
    15  C   -0.296319
    16  C   -0.300962
    17  C   -0.475622
    18  H    0.143711
    19  H    0.149461
    20  H    0.152948
    21  H    0.154595
    22  H    0.155702
    23  H    0.151318
    24  H    0.162388
    25  C   -0.306301
    26  C   -0.298142
    27  C   -0.477444
    28  H    0.160261
    29  H    0.151142
    30  H    0.143591
    31  H    0.154629
    32  H    0.160717
    33  H    0.145625
    34  H    0.160204
 Sum of Mulliken charges =  -0.00000

 Dipole moment (field-independent basis, Debye):
    X=              3.0993    Y=             -1.6166    Z=              3.7119  Tot=              5.0988
 Quadrupole moment (field-independent basis, Debye-Ang):
   XX=           -109.6862   YY=            -92.0830   ZZ=            -92.5524
   XY=              2.8353   XZ=             -9.2612   YZ=              1.5495

 Normal termination of Gaussian 16 at Thu May  6 15:59:24 2021.
