 Gaussian 16, Revision A.03,
 Gaussian 16:  EM64L-G16RevA.03 25-Dec-2016

 -------------
 #p 6-31g* mp2
 -------------

 ------------------------------------------------------
 Input file generated by CHIRIPA (05-May-2021 14:51:11)
 ------------------------------------------------------
 Symbolic Z-matrix:
 Charge =  0 Multiplicity = 1

                         Standard orientation:
 ---------------------------------------------------------------------
 Center     Atomic      Atomic             Coordinates (Angstroms)
 Number     Number       Type             X           Y           Z
 ---------------------------------------------------------------------
      1          6           0        2.923939   -0.973323    0.227593
      2          6           0        1.500450   -1.122317    0.765613
      3          6           0        1.057515   -2.582047    0.869501
      4          1           0        2.987074   -1.448389   -0.760977
      5          1           0        3.615259   -1.521513    0.882543
      6          1           0        0.812195   -0.572860    0.110618
      7          1           0        1.440647   -0.646673    1.752934
      8          1           0        1.720757   -3.139158    1.539081
      9          1           0        1.088733   -3.064926   -0.112566
     10          1           0        0.037053   -2.665389    1.256247
     11          6           0        3.381108    0.480193    0.117979
     12          6           0        4.804597    0.629188   -0.420040
     13          6           0        5.247533    2.088917   -0.523928
     14          1           0        2.689789    1.028383   -0.536971
     15          1           0        3.317973    0.955259    1.106549
     16          1           0        4.864400    0.153544   -1.407361
     17          1           0        5.492853    0.079730    0.234954
     18          1           0        5.216314    2.571796    0.458138
     19          1           0        4.584291    2.646029   -1.193508
     20          1           0        6.267994    2.172259   -0.910674
     21          6           0       -2.947540    0.979096   -0.242155
     22          6           0       -3.913923    1.946575    0.442005
     23          6           0       -3.490345    3.408290    0.294464
     24          1           0       -1.942329    1.115409    0.179646
     25          1           0       -2.876544    1.235417   -1.308293
     26          1           0       -3.984136    1.687640    1.506260
     27          1           0       -4.916988    1.807810    0.018662
     28          1           0       -3.438596    3.689591   -0.762320
     29          1           0       -2.500444    3.568738    0.733730
     30          1           0       -4.195145    4.082578    0.790904
     31          6           0       -3.357507   -0.485966   -0.103419
     32          6           0       -2.391125   -1.453446   -0.787577
     33          6           0       -2.814703   -2.915160   -0.640037
     34          1           0       -3.428504   -0.742287    0.962721
     35          1           0       -4.362718   -0.622279   -0.525218
     36          1           0       -1.388060   -1.314680   -0.364235
     37          1           0       -2.320911   -1.194510   -1.851832
     38          1           0       -3.804603   -3.075608   -1.079302
     39          1           0       -2.866451   -3.196460    0.416747
     40          1           0       -2.109903   -3.589448   -1.136477
 ---------------------------------------------------------------------

 SCF Done:  E(RHF) =  -470.732772878     A.U. after   11 cycles
 E2 =    -0.1583735400D+01 EUMP2 =    -0.47231650827800D+03

 The electronic state is 1-A.
 Alpha  occ. eigenvalues --  -11.21651 -11.21618 -11.21590 -11.21504 -11.21435
 Alpha  occ. eigenvalues --  -11.21383 -11.21375 -11.21321 -11.21102 -11.21082
 Alpha  occ. eigenvalues --  -11.21061 -11.21033  -1.08476  -1.08394  -1.03606
 Alpha  occ. eigenvalues --   -1.03465  -0.96041  -0.95927  -0.87029  -0.86966
 Alpha  occ. eigenvalues --   -0.79658  -0.79547  -0.78325  -0.78177  -0.65212
 Alpha  occ. eigenvalues --   -0.64958  -0.61195  -0.60774  -0.59438  -0.59217
 Alpha  occ. eigenvalues --   -0.57663  -0.57511  -0.55356  -0.55172  -0.52709
 Alpha  occ. eigenvalues --   -0.52622  -0.52444  -0.52367  -0.49955  -0.49892
 Alpha  occ. eigenvalues --   -0.47968  -0.47883  -0.46815  -0.46499  -0.45968
 Alpha  occ. eigenvalues --   -0.45789  -0.45722  -0.45387  -0.43815  -0.43753
 Alpha virt. eigenvalues --    0.20870   0.23107   0.23557   0.24615   0.25717
 Alpha virt. eigenvalues --    0.26651   0.26873   0.27430   0.28491   0.29216
 Alpha virt. eigenvalues --    0.29871   0.31233   0.31717   0.31985   0.32465

 Mulliken charges:
               1
     1  C   -0.297545
     2  C   -0.306479
     3  C   -0.478688
     4  H    0.149935
     5  H    0.149720
     6  H    0.156255
     7  H    0.151799
     8  H    0.156094
     9  H    0.156008
    10  H    0.162613
    11  C   -0.298577
    12  C   -0.299684
    13  C   -0.475755
    14  H    0.149906
    15  H    0.149534
    16  H    0.152047
    17  H    0.151954
    18  H    0.155164
    19  H    0.155319
    20  H    0.160324
    21  C   -0.299617
    22  C   -0.299559
    23  C   -0.475758
    24  H    0.150492
    25  H    0.149204
    26  H    0.151938
    27  H    0.151995
    28  H    0.155052
    29  H    0.155318
    30  H    0.160210
    31  C   -0.297299
    32  C   -0.312154
    33  C   -0.474798
    34  H    0.148878
    35  H    0.149500
    36  H    0.165926
    37  H    0.150881
    38  H    0.154807
    39  H    0.154335
    40  H    0.160702
 Sum of Mulliken charges =  -0.00000

 Dipole moment (field-independent basis, Debye):
    X=              0.0382    Y=             -0.0087    Z=              0.0040  Tot=              0.0394
 Quadrupole moment (field-independent basis, Debye-Ang):
   XX=            -84.7089   YY=            -87.0032   ZZ=            -83.1397
   XY=             -0.7433   XZ=              0.8544   YZ=              0.0467

 Normal termination of Gaussian 16 at Wed May  5 16:45:23 2021.
