 Gaussian 16, Revision A.03,
 Gaussian 16:  EM64L-G16RevA.03 25-Dec-2016

 -------------
 #p 6-31g* mp2
 -------------

 ------------------------------------------------------
 Input file generated by CHIRIPA (05-May-2021 14:57:23)
 ------------------------------------------------------
 Symbolic Z-matrix:
 Charge =  0 Multiplicity = 1

                         Standard orientation:
 ---------------------------------------------------------------------
 Center     Atomic      Atomic             Coordinates (Angstroms)
 Number     Number       Type             X           Y           Z
 ---------------------------------------------------------------------
      1          6           0       -1.446882   -1.811068   -0.369143
      2          6           0       -2.693036   -2.318048    0.013730
      3          6           0       -3.792964   -1.466714    0.154929
      4          6           0       -3.610214   -0.107665   -0.095827
      5          6           0       -2.381371    0.427693   -0.478747
      6          6           0       -1.295293   -0.442229   -0.613728
      7          1           0       -0.597811   -2.479625   -0.476415
      8          1           0       -2.813695   -3.380666    0.204332
      9          1           0       -4.768929   -1.832516    0.450053
     10          1           0       -2.292004    1.491602   -0.661858
     11          1           0       -0.328691   -0.045705   -0.911207
     12          7           0       -4.767326    0.803443    0.050362
     13          8           0       -4.580225    1.996851   -0.176371
     14          8           0       -5.839463    0.306910    0.388911
     15          6           0        4.248371   -2.123842    0.038915
     16          6           0        2.956854   -1.847416    0.499449
     17          6           0        2.487073   -0.531577    0.548674
     18          6           0        3.339376    0.488077    0.127753
     19          6           0        4.631229    0.244722   -0.336127
     20          6           0        5.079971   -1.078734   -0.376670
     21          1           0        4.605136   -3.148976    0.004049
     22          1           0        2.308825   -2.657062    0.822833
     23          1           0        1.491707   -0.289292    0.900758
     24          1           0        5.254061    1.072881   -0.651803
     25          1           0        6.083450   -1.290445   -0.734792
     26          7           0        2.853177    1.885129    0.175269
     27          8           0        3.623606    2.765663   -0.201210
     28          8           0        1.710871    2.073151    0.588093
 ---------------------------------------------------------------------

 SCF Done:  E(RHF) =  -868.337690721     A.U. after   16 cycles
 E2 =    -0.2600827642D+01 EUMP2 =    -0.87093851836297D+03

 The electronic state is 1-A.
 Alpha  occ. eigenvalues --  -20.61626 -20.61586 -20.60621 -20.60601 -15.86652
 Alpha  occ. eigenvalues --  -15.85668 -11.32074 -11.31131 -11.28665 -11.28598
 Alpha  occ. eigenvalues --  -11.28370 -11.27751 -11.27729 -11.27631 -11.27607
 Alpha  occ. eigenvalues --  -11.27606 -11.26837 -11.26707  -1.60675  -1.59687
 Alpha  occ. eigenvalues --   -1.40229  -1.39236  -1.20250  -1.19332  -1.09625
 Alpha  occ. eigenvalues --   -1.08744  -1.05665  -1.04724  -0.96451  -0.95549
 Alpha  occ. eigenvalues --   -0.87060  -0.86144  -0.83284  -0.82352  -0.78342
 Alpha  occ. eigenvalues --   -0.77353  -0.72860  -0.72003  -0.71888  -0.71341
 Alpha  occ. eigenvalues --   -0.71009  -0.70499  -0.65896  -0.65689  -0.64988
 Alpha  occ. eigenvalues --   -0.64745  -0.63003  -0.62012  -0.56130  -0.55344
 Alpha  occ. eigenvalues --   -0.53987  -0.53762  -0.53063  -0.52784  -0.49624
 Alpha  occ. eigenvalues --   -0.49616  -0.48658  -0.48630  -0.45614  -0.44618
 Alpha  occ. eigenvalues --   -0.38215  -0.37421  -0.37243  -0.36308
 Alpha virt. eigenvalues --    0.04159   0.05143   0.10249   0.11188   0.15616
 Alpha virt. eigenvalues --    0.16568   0.19579   0.21952   0.25419   0.26896
 Alpha virt. eigenvalues --    0.27737   0.29032   0.29822   0.31387   0.32538

 Mulliken charges:
               1
     1  C   -0.176565
     2  C   -0.217929
     3  C   -0.170799
     4  C    0.158430
     5  C   -0.168645
     6  C   -0.224227
     7  H    0.217582
     8  H    0.221273
     9  H    0.275609
    10  H    0.284071
    11  H    0.230613
    12  N    0.487881
    13  O   -0.456716
    14  O   -0.461549
    15  C   -0.169907
    16  C   -0.222212
    17  C   -0.181469
    18  C    0.158718
    19  C   -0.169530
    20  C   -0.217820
    21  H    0.228016
    22  H    0.221085
    23  H    0.278762
    24  H    0.278548
    25  H    0.226907
    26  N    0.488075
    27  O   -0.454970
    28  O   -0.463232
 Sum of Mulliken charges =  -0.00000

 Dipole moment (field-independent basis, Debye):
    X=              5.9796    Y=             -7.8762    Z=             -0.7213  Tot=              9.9152
 Quadrupole moment (field-independent basis, Debye-Ang):
   XX=           -116.2309   YY=           -106.2247   ZZ=           -105.3454
   XY=             -0.7178   XZ=             -1.5988   YZ=             -2.2405

 Normal termination of Gaussian 16 at Thu May  6 19:34:08 2021.
