 Gaussian 16, Revision A.03,
 Gaussian 16:  EM64L-G16RevA.03 25-Dec-2016

 -------------
 #p 6-31g* mp2
 -------------

 ------------------------------------------------------
 Input file generated by CHIRIPA (05-May-2021 14:55:20)
 ------------------------------------------------------
 Symbolic Z-matrix:
 Charge =  0 Multiplicity = 1

                         Standard orientation:
 ---------------------------------------------------------------------
 Center     Atomic      Atomic             Coordinates (Angstroms)
 Number     Number       Type             X           Y           Z
 ---------------------------------------------------------------------
      1          6           0        1.779734    1.650295   -0.799383
      2          6           0        1.615040    0.279767   -1.025330
      3          6           0        2.630877   -0.621639   -0.693533
      4          6           0        3.803606   -0.115703   -0.134943
      5          6           0        3.997680    1.244193    0.102353
      6          6           0        2.968433    2.127292   -0.237254
      7          1           0        0.985399    2.343418   -1.060165
      8          1           0        0.692954   -0.093514   -1.461751
      9          1           0        2.529834   -1.687592   -0.857707
     10          1           0        4.928167    1.586387    0.538835
     11          1           0        3.099109    3.191144   -0.060654
     12          7           0        4.886126   -1.060291    0.220450
     13          8           0        5.909758   -0.589307    0.711356
     14          8           0        4.690475   -2.253758    0.001372
     15          6           0       -3.894602   -0.104698    0.090925
     16          6           0       -3.006108    0.584229    1.127238
     17          6           0       -1.517091    0.468487    0.799782
     18          1           0       -3.613903   -1.164686    0.023276
     19          1           0       -3.700486    0.333762   -0.897745
     20          1           0       -3.202845    0.145549    2.113885
     21          1           0       -3.289084    1.642658    1.192565
     22          1           0       -1.299893    0.923305   -0.172105
     23          1           0       -1.213164   -0.582310    0.754448
     24          1           0       -0.900287    0.967840    1.553479
     25          6           0       -5.385894    0.002357    0.404475
     26          6           0       -6.274389   -0.686569   -0.631837
     27          6           0       -7.763406   -0.570828   -0.304382
     28          1           0       -5.580012   -0.436102    1.393145
     29          1           0       -5.666594    1.062346    0.472125
     30          1           0       -5.991414   -1.744999   -0.697165
     31          1           0       -6.077653   -0.247890   -1.618484
     32          1           0       -8.067333    0.479969   -0.259048
     33          1           0       -7.980604   -1.025646    0.667506
     34          1           0       -8.380211   -1.070181   -1.058078
 ---------------------------------------------------------------------

 SCF Done:  E(RHF) =  -669.534993182     A.U. after   15 cycles
 E2 =    -0.2091741814D+01 EUMP2 =    -0.67162673499625D+03

 The electronic state is 1-A.
 Alpha  occ. eigenvalues --  -20.60714 -20.60708 -15.85766 -11.31117 -11.27682
 Alpha  occ. eigenvalues --  -11.27664 -11.27413 -11.26703 -11.26655 -11.22275
 Alpha  occ. eigenvalues --  -11.22039 -11.22024 -11.21964 -11.21872 -11.21429
 Alpha  occ. eigenvalues --   -1.59789  -1.39343  -1.19286  -1.09012  -1.08684
 Alpha  occ. eigenvalues --   -1.04690  -1.04117  -0.96589  -0.95521  -0.87619
 Alpha  occ. eigenvalues --   -0.86078  -0.82354  -0.80195  -0.78812  -0.77401
 Alpha  occ. eigenvalues --   -0.71986  -0.71112  -0.70402  -0.65644  -0.64940
 Alpha  occ. eigenvalues --   -0.64705  -0.62055  -0.61511  -0.59945  -0.58179
 Alpha  occ. eigenvalues --   -0.55897  -0.55182  -0.53426  -0.53125  -0.52873
 Alpha  occ. eigenvalues --   -0.52643  -0.50537  -0.48754  -0.48741  -0.48483
 Alpha  occ. eigenvalues --   -0.47221  -0.46355  -0.46268  -0.44753  -0.44361
 Alpha  occ. eigenvalues --   -0.37232  -0.36268
 Alpha virt. eigenvalues --    0.05120   0.11313   0.16599   0.20349   0.22478
 Alpha virt. eigenvalues --    0.23910   0.25753   0.26239   0.27118   0.27755
 Alpha virt. eigenvalues --    0.28832   0.30643   0.31076   0.31518   0.31673

 Mulliken charges:
               1
     1  C   -0.169772
     2  C   -0.213700
     3  C   -0.173239
     4  C    0.158450
     5  C   -0.171318
     6  C   -0.219371
     7  H    0.225033
     8  H    0.225036
     9  H    0.275099
    10  H    0.275236
    11  H    0.222981
    12  N    0.488090
    13  O   -0.460684
    14  O   -0.460666
    15  C   -0.298617
    16  C   -0.301207
    17  C   -0.473969
    18  H    0.150340
    19  H    0.146411
    20  H    0.155715
    21  H    0.152033
    22  H    0.142142
    23  H    0.156603
    24  H    0.165452
    25  C   -0.298520
    26  C   -0.300002
    27  C   -0.476008
    28  H    0.151357
    29  H    0.150011
    30  H    0.152699
    31  H    0.151354
    32  H    0.155428
    33  H    0.156197
    34  H    0.161407
 Sum of Mulliken charges =  -0.00000

 Dipole moment (field-independent basis, Debye):
    X=             -3.9578    Y=              3.3097    Z=             -1.1795  Tot=              5.2924
 Quadrupole moment (field-independent basis, Debye-Ang):
   XX=           -123.6363   YY=            -92.1588   ZZ=            -94.3201
   XY=             15.7132   XZ=             -3.2422   YZ=              0.6744

 Normal termination of Gaussian 16 at Thu May  6 07:43:59 2021.
