 Gaussian 16, Revision A.03,
 Gaussian 16:  EM64L-G16RevA.03 25-Dec-2016

 -------------
 #p 6-31g* mp2
 -------------

 ------------------------------------------------------
 Input file generated by CHIRIPA (05-May-2021 14:53:16)
 ------------------------------------------------------
 Symbolic Z-matrix:
 Charge =  0 Multiplicity = 1

                         Standard orientation:
 ---------------------------------------------------------------------
 Center     Atomic      Atomic             Coordinates (Angstroms)
 Number     Number       Type             X           Y           Z
 ---------------------------------------------------------------------
      1          6           0        4.351659    0.207136   -0.141341
      2          6           0        5.560385   -0.559266   -0.679481
      3          6           0        6.595196    0.354690   -1.336476
      4          1           0        3.881991    0.763131   -0.964279
      5          1           0        4.695119    0.955923    0.585810
      6          1           0        5.214610   -1.307322   -1.404373
      7          1           0        6.027117   -1.113653    0.144796
      8          1           0        6.968197    1.092651   -0.618921
      9          1           0        6.151074    0.897882   -2.176892
     10          1           0        7.450762   -0.213859   -1.714126
     11          6           0        3.308351   -0.692876    0.518367
     12          6           0        2.099626    0.073527    1.056507
     13          6           0        1.064815   -0.840430    1.713502
     14          1           0        2.964892   -1.441663   -0.208784
     15          1           0        3.778020   -1.248870    1.341305
     16          1           0        1.632894    0.627914    0.232230
     17          1           0        2.445401    0.821583    1.781399
     18          1           0        1.508937   -1.383621    2.553918
     19          1           0        0.691813   -1.578390    0.995947
     20          1           0        0.209249   -0.271881    2.091151
     21          6           0       -2.098313    2.486028    0.394919
     22          6           0       -2.820036    2.276387   -0.784779
     23          6           0       -3.320015    1.008284   -1.095400
     24          6           0       -3.078608   -0.032254   -0.199693
     25          6           0       -2.363174    0.144938    0.983543
     26          6           0       -1.872584    1.421512    1.273765
     27          1           0       -1.713565    3.474411    0.628293
     28          1           0       -2.996868    3.101249   -1.469161
     29          1           0       -3.881957    0.818035   -2.001736
     30          1           0       -2.202986   -0.696881    1.646188
     31          1           0       -1.312421    1.581392    2.190663
     32          7           0       -3.602944   -1.379222   -0.517737
     33          8           0       -3.376683   -2.279428    0.287914
     34          8           0       -4.230250   -1.509264   -1.566646
 ---------------------------------------------------------------------

 SCF Done:  E(RHF) =  -669.533823479     A.U. after   15 cycles
 E2 =    -0.2092855474D+01 EUMP2 =    -0.67162667895257D+03

 The electronic state is 1-A.
 Alpha  occ. eigenvalues --  -20.60764 -20.60758 -15.85817 -11.31174 -11.27757
 Alpha  occ. eigenvalues --  -11.27735 -11.27509 -11.26767 -11.26757 -11.22015
 Alpha  occ. eigenvalues --  -11.21787 -11.21674 -11.21611 -11.21501 -11.21247
 Alpha  occ. eigenvalues --   -1.59839  -1.39392  -1.19366  -1.08762  -1.08710
 Alpha  occ. eigenvalues --   -1.04796  -1.03826  -0.96297  -0.95588  -0.87323
 Alpha  occ. eigenvalues --   -0.86167  -0.82439  -0.79907  -0.78516  -0.77480
 Alpha  occ. eigenvalues --   -0.72036  -0.71164  -0.70477  -0.65338  -0.65035
 Alpha  occ. eigenvalues --   -0.64791  -0.62253  -0.61216  -0.59636  -0.57901
 Alpha  occ. eigenvalues --   -0.55565  -0.55268  -0.53340  -0.52934  -0.52795
 Alpha  occ. eigenvalues --   -0.52562  -0.50199  -0.48795  -0.48789  -0.48216
 Alpha  occ. eigenvalues --   -0.46915  -0.46060  -0.45973  -0.44799  -0.44105
 Alpha  occ. eigenvalues --   -0.37348  -0.36292
 Alpha virt. eigenvalues --    0.05059   0.11232   0.16442   0.20783   0.22709
 Alpha virt. eigenvalues --    0.24161   0.26227   0.26373   0.27140   0.28112
 Alpha virt. eigenvalues --    0.28705   0.29945   0.31191   0.31567   0.32358

 Mulliken charges:
               1
     1  C   -0.298373
     2  C   -0.300035
     3  C   -0.475826
     4  H    0.149265
     5  H    0.148400
     6  H    0.153501
     7  H    0.152553
     8  H    0.154675
     9  H    0.155022
    10  H    0.161285
    11  C   -0.299026
    12  C   -0.300652
    13  C   -0.476265
    14  H    0.152897
    15  H    0.150742
    16  H    0.153154
    17  H    0.148212
    18  H    0.156957
    19  H    0.163367
    20  H    0.147624
    21  C   -0.171853
    22  C   -0.219128
    23  C   -0.171205
    24  C    0.155728
    25  C   -0.166466
    26  C   -0.218307
    27  H    0.225829
    28  H    0.223347
    29  H    0.275501
    30  H    0.277829
    31  H    0.223985
    32  N    0.488247
    33  O   -0.460389
    34  O   -0.460598
 Sum of Mulliken charges =  -0.00000

 Dipole moment (field-independent basis, Debye):
    X=              1.9023    Y=              4.6904    Z=              1.0596  Tot=              5.1712
 Quadrupole moment (field-independent basis, Debye-Ang):
   XX=           -106.4466   YY=            -95.1953   ZZ=            -91.4506
   XY=            -16.1235   XZ=             -1.1732   YZ=             -2.3755

 Normal termination of Gaussian 16 at Thu May  6 01:08:51 2021.
