 Gaussian 16, Revision A.03,
 Gaussian 16:  EM64L-G16RevA.03 25-Dec-2016

 -------------
 #p 6-31g* mp2
 -------------

 ------------------------------------------------------
 Input file generated by CHIRIPA (05-May-2021 14:55:23)
 ------------------------------------------------------
 Symbolic Z-matrix:
 Charge =  0 Multiplicity = 1

                         Standard orientation:
 ---------------------------------------------------------------------
 Center     Atomic      Atomic             Coordinates (Angstroms)
 Number     Number       Type             X           Y           Z
 ---------------------------------------------------------------------
      1          6           0       -0.455479   -0.404541    0.281199
      2          6           0       -1.011577   -0.127510   -0.972009
      3          6           0       -2.398596   -0.061590   -1.134434
      4          6           0       -3.203473   -0.278878   -0.017184
      5          6           0       -2.679540   -0.556932    1.244351
      6          6           0       -1.289765   -0.617991    1.383436
      7          1           0        0.623061   -0.453861    0.398309
      8          1           0       -0.366096    0.038686   -1.829785
      9          1           0       -2.855686    0.151078   -2.093214
     10          1           0       -3.348660   -0.718099    2.080845
     11          1           0       -0.860678   -0.833326    2.357890
     12          7           0       -4.673306   -0.211665   -0.176781
     13          8           0       -5.360729   -0.406900    0.823204
     14          8           0       -5.110107    0.034979   -1.298837
     15          6           0        3.444060    0.903535    0.412663
     16          6           0        2.686393    1.941280   -0.416199
     17          6           0        1.998888    2.999695    0.446870
     18          1           0        2.745036    0.415939    1.105887
     19          1           0        4.193011    1.415501    1.032630
     20          1           0        1.940033    1.427374   -1.035444
     21          1           0        3.387263    2.426328   -1.107664
     22          1           0        2.733611    3.538390    1.053986
     23          1           0        1.278158    2.533759    1.126617
     24          1           0        1.463237    3.731414   -0.165931
     25          6           0        4.136679   -0.161248   -0.436009
     26          6           0        4.894346   -1.198992    0.392853
     27          6           0        5.581851   -2.257407   -0.470216
     28          1           0        3.387728   -0.673214   -1.055977
     29          1           0        4.835703    0.326349   -1.129233
     30          1           0        4.193476   -1.684040    1.084318
     31          1           0        5.640706   -0.685086    1.012098
     32          1           0        6.302581   -1.791472   -1.149963
     33          1           0        4.847128   -2.796102   -1.077333
     34          1           0        6.117502   -2.989126    0.142585
 ---------------------------------------------------------------------

 SCF Done:  E(RHF) =  -669.535158361     A.U. after   15 cycles
 E2 =    -0.2092732493D+01 EUMP2 =    -0.67162789085349D+03

 The electronic state is 1-A.
 Alpha  occ. eigenvalues --  -20.60763 -20.60758 -15.85818 -11.31192 -11.27763
 Alpha  occ. eigenvalues --  -11.27759 -11.27474 -11.26781 -11.26770 -11.22717
 Alpha  occ. eigenvalues --  -11.22596 -11.22533 -11.22455 -11.21903 -11.21825
 Alpha  occ. eigenvalues --   -1.59839  -1.39392  -1.19366  -1.09528  -1.08755
 Alpha  occ. eigenvalues --   -1.04771  -1.04487  -0.96918  -0.95593  -0.87927
 Alpha  occ. eigenvalues --   -0.86170  -0.82427  -0.80558  -0.79338  -0.77471
 Alpha  occ. eigenvalues --   -0.72036  -0.71162  -0.70553  -0.66184  -0.65017
 Alpha  occ. eigenvalues --   -0.64756  -0.62142  -0.61861  -0.60282  -0.58529
 Alpha  occ. eigenvalues --   -0.56258  -0.55218  -0.53562  -0.53328  -0.53080
 Alpha  occ. eigenvalues --   -0.52864  -0.50854  -0.48855  -0.48797  -0.48789
 Alpha  occ. eigenvalues --   -0.47620  -0.46842  -0.46826  -0.44796  -0.44774
 Alpha  occ. eigenvalues --   -0.37328  -0.36372
 Alpha virt. eigenvalues --    0.05039   0.11211   0.16433   0.18293   0.22779
 Alpha virt. eigenvalues --    0.23871   0.24431   0.25375   0.26868   0.28007
 Alpha virt. eigenvalues --    0.29573   0.30550   0.30999   0.31426   0.31833

 Mulliken charges:
               1
     1  C   -0.175421
     2  C   -0.221878
     3  C   -0.170769
     4  C    0.158426
     5  C   -0.170462
     6  C   -0.221846
     7  H    0.236756
     8  H    0.224326
     9  H    0.275695
    10  H    0.275684
    11  H    0.223477
    12  N    0.487999
    13  O   -0.460373
    14  O   -0.460360
    15  C   -0.302940
    16  C   -0.302489
    17  C   -0.476088
    18  H    0.140233
    19  H    0.157154
    20  H    0.143882
    21  H    0.157567
    22  H    0.158039
    23  H    0.155397
    24  H    0.164528
    25  C   -0.299500
    26  C   -0.299506
    27  C   -0.476280
    28  H    0.143917
    29  H    0.154793
    30  H    0.149048
    31  H    0.155123
    32  H    0.157319
    33  H    0.155402
    34  H    0.163146
 Sum of Mulliken charges =  -0.00000

 Dipole moment (field-independent basis, Debye):
    X=              5.3879    Y=             -0.1529    Z=              0.5618  Tot=              5.4193
 Quadrupole moment (field-independent basis, Debye-Ang):
   XX=           -126.9741   YY=            -95.1556   ZZ=            -90.3234
   XY=              0.5556   XZ=             -2.3424   YZ=             -1.7189

 Normal termination of Gaussian 16 at Wed May  5 23:56:20 2021.
