 Gaussian 16, Revision A.03,
 Gaussian 16:  EM64L-G16RevA.03 25-Dec-2016

 -------------
 #p 6-31g* mp2
 -------------

 ------------------------------------------------------
 Input file generated by CHIRIPA (05-May-2021 14:57:25)
 ------------------------------------------------------
 Symbolic Z-matrix:
 Charge =  0 Multiplicity = 1

                         Standard orientation:
 ---------------------------------------------------------------------
 Center     Atomic      Atomic             Coordinates (Angstroms)
 Number     Number       Type             X           Y           Z
 ---------------------------------------------------------------------
      1          6           0        2.514777   -2.388436    0.214040
      2          6           0        2.548963   -1.799703   -1.054323
      3          6           0        2.763192   -0.425196   -1.193549
      4          6           0        2.940233    0.334026   -0.037898
      5          6           0        2.911542   -0.223216    1.239579
      6          6           0        2.695856   -1.599704    1.354932
      7          1           0        2.347793   -3.456956    0.312922
      8          1           0        2.408646   -2.409781   -1.942107
      9          1           0        2.794395    0.056461   -2.163318
     10          1           0        3.054704    0.410875    2.106096
     11          1           0        2.669804   -2.054210    2.341233
     12          7           0        3.167799    1.790204   -0.172654
     13          8           0        3.320996    2.437184    0.861070
     14          8           0        3.188659    2.257004   -1.309448
     15          6           0       -4.901054    1.445341    0.070002
     16          6           0       -5.077329    0.077402   -0.162794
     17          6           0       -3.977326   -0.784863   -0.195045
     18          6           0       -2.709537   -0.242851    0.010438
     19          6           0       -2.501469    1.115496    0.244723
     20          6           0       -3.615953    1.959116    0.272660
     21          1           0       -5.761187    2.107927    0.093379
     22          1           0       -6.074191   -0.324389   -0.320510
     23          1           0       -4.085167   -1.847901   -0.373197
     24          1           0       -1.495479    1.486663    0.398465
     25          1           0       -3.476055    3.021053    0.453669
     26          7           0       -1.537348   -1.145824   -0.021421
     27          8           0       -0.430782   -0.643524    0.162546
     28          8           0       -1.747347   -2.338775   -0.229756
 ---------------------------------------------------------------------

 SCF Done:  E(RHF) =  -868.338209504     A.U. after   16 cycles
 E2 =    -0.2601177152D+01 EUMP2 =    -0.87093938665517D+03

 The electronic state is 1-A.
 Alpha  occ. eigenvalues --  -20.61152 -20.61107 -20.59811 -20.59804 -15.86156
 Alpha  occ. eigenvalues --  -15.84844 -11.31357 -11.29704 -11.27930 -11.27869
 Alpha  occ. eigenvalues --  -11.27618 -11.26904 -11.26845 -11.26294 -11.26262
 Alpha  occ. eigenvalues --  -11.25883 -11.25187 -11.25139  -1.60211  -1.58898
 Alpha  occ. eigenvalues --   -1.39769  -1.38466  -1.19517  -1.17815  -1.08947
 Alpha  occ. eigenvalues --   -1.07315  -1.04887  -1.03206  -0.95811  -0.94252
 Alpha  occ. eigenvalues --   -0.86296  -0.84660  -0.82649  -0.81146  -0.77715
 Alpha  occ. eigenvalues --   -0.76247  -0.72429  -0.71529  -0.71092  -0.70622
 Alpha  occ. eigenvalues --   -0.70201  -0.69018  -0.65172  -0.64887  -0.63535
 Alpha  occ. eigenvalues --   -0.63295  -0.62232  -0.60640  -0.55405  -0.53754
 Alpha  occ. eigenvalues --   -0.53235  -0.52979  -0.51610  -0.51381  -0.49170
 Alpha  occ. eigenvalues --   -0.48894  -0.47863  -0.47797  -0.45234  -0.43987
 Alpha  occ. eigenvalues --   -0.37500  -0.36485  -0.35648  -0.34700
 Alpha virt. eigenvalues --    0.04798   0.06295   0.11170   0.12899   0.16327
 Alpha virt. eigenvalues --    0.17934   0.21342   0.22777   0.27275   0.28200
 Alpha virt. eigenvalues --    0.28597   0.29648   0.30901   0.32230   0.32461

 Mulliken charges:
               1
     1  C   -0.154210
     2  C   -0.208046
     3  C   -0.167542
     4  C    0.161909
     5  C   -0.168716
     6  C   -0.211545
     7  H    0.222677
     8  H    0.218055
     9  H    0.268161
    10  H    0.267759
    11  H    0.216446
    12  N    0.486745
    13  O   -0.467254
    14  O   -0.466233
    15  C   -0.170377
    16  C   -0.218686
    17  C   -0.171320
    18  C    0.156907
    19  C   -0.170753
    20  C   -0.218689
    21  H    0.226718
    22  H    0.223484
    23  H    0.274103
    24  H    0.278569
    25  H    0.226964
    26  N    0.490385
    27  O   -0.459286
    28  O   -0.466225
 Sum of Mulliken charges =  -0.00000

 Dipole moment (field-independent basis, Debye):
    X=             -5.2460    Y=             -2.1038    Z=              0.5993  Tot=              5.6838
 Quadrupole moment (field-independent basis, Debye-Ang):
   XX=            -87.5145   YY=           -107.7633   ZZ=           -100.9595
   XY=            -21.4687   XZ=              2.0072   YZ=              1.6831

 Normal termination of Gaussian 16 at Fri May  7 11:09:23 2021.
