 Gaussian 16, Revision A.03,
 Gaussian 16:  EM64L-G16RevA.03 25-Dec-2016

 -------------
 #p 6-31g* mp2
 -------------

 ------------------------------------------------------
 Input file generated by CHIRIPA (05-May-2021 14:55:25)
 ------------------------------------------------------
 Symbolic Z-matrix:
 Charge =  0 Multiplicity = 1

                         Standard orientation:
 ---------------------------------------------------------------------
 Center     Atomic      Atomic             Coordinates (Angstroms)
 Number     Number       Type             X           Y           Z
 ---------------------------------------------------------------------
      1          6           0       -1.884364    2.164953    0.591570
      2          6           0       -1.799643    1.670135   -0.713995
      3          6           0       -2.309157    0.406914   -1.028981
      4          6           0       -2.899521   -0.337999   -0.009243
      5          6           0       -2.998999    0.127405    1.301021
      6          6           0       -2.482717    1.393369    1.593145
      7          1           0       -1.485932    3.147319    0.827378
      8          1           0       -1.335490    2.267153   -1.493852
      9          1           0       -2.256866   -0.000506   -2.031324
     10          1           0       -3.467333   -0.490960    2.057134
     11          1           0       -2.549906    1.775099    2.607942
     12          7           0       -3.442503   -1.676767   -0.330603
     13          8           0       -3.957851   -2.313425    0.585760
     14          8           0       -3.342464   -2.064084   -1.492762
     15          6           0        3.829404   -0.444327    0.363403
     16          6           0        5.044764   -1.162397   -0.224184
     17          6           0        5.498149   -2.349551    0.626052
     18          1           0        4.070454   -0.099506    1.378261
     19          1           0        3.002555   -1.160858    0.464890
     20          1           0        5.868640   -0.444404   -0.325823
     21          1           0        4.800857   -1.505382   -1.237835
     22          1           0        4.694368   -3.087241    0.717430
     23          1           0        5.768218   -2.020235    1.634623
     24          1           0        6.368160   -2.848314    0.187675
     25          6           0        3.364276    0.744754   -0.475328
     26          6           0        2.148915    1.462825    0.112258
     27          6           0        1.695529    2.649978   -0.737978
     28          1           0        4.191124    1.461285   -0.576816
     29          1           0        3.123225    0.399934   -1.490187
     30          1           0        2.392822    1.805809    1.125908
     31          1           0        1.325039    0.744832    0.213897
     32          1           0        1.425461    2.320662   -1.746550
     33          1           0        2.499311    3.387667   -0.829355
     34          1           0        0.825518    3.148742   -0.299600
 ---------------------------------------------------------------------

 SCF Done:  E(RHF) =  -669.534698609     A.U. after   15 cycles
 E2 =    -0.2092756230D+01 EUMP2 =    -0.67162745483870D+03

 The electronic state is 1-A.
 Alpha  occ. eigenvalues --  -20.60785 -20.60780 -15.85838 -11.31206 -11.27763
 Alpha  occ. eigenvalues --  -11.27756 -11.27507 -11.26790 -11.26746 -11.22147
 Alpha  occ. eigenvalues --  -11.21986 -11.21802 -11.21791 -11.21641 -11.21190
 Alpha  occ. eigenvalues --   -1.59861  -1.39414  -1.19378  -1.08840  -1.08747
 Alpha  occ. eigenvalues --   -1.04782  -1.03953  -0.96445  -0.95605  -0.87474
 Alpha  occ. eigenvalues --   -0.86163  -0.82438  -0.80023  -0.78584  -0.77482
 Alpha  occ. eigenvalues --   -0.72057  -0.71184  -0.70509  -0.65454  -0.65035
 Alpha  occ. eigenvalues --   -0.64793  -0.62163  -0.61325  -0.59839  -0.58036
 Alpha  occ. eigenvalues --   -0.55743  -0.55278  -0.53290  -0.53044  -0.52821
 Alpha  occ. eigenvalues --   -0.52771  -0.50350  -0.48813  -0.48810  -0.48337
 Alpha  occ. eigenvalues --   -0.47023  -0.46139  -0.46029  -0.44819  -0.44208
 Alpha  occ. eigenvalues --   -0.37322  -0.36360
 Alpha virt. eigenvalues --    0.05022   0.11221   0.16455   0.20336   0.22738
 Alpha virt. eigenvalues --    0.24197   0.25955   0.26354   0.26622   0.27554
 Alpha virt. eigenvalues --    0.28808   0.29994   0.31197   0.31644   0.32429

 Mulliken charges:
               1
     1  C   -0.171095
     2  C   -0.215063
     3  C   -0.173853
     4  C    0.158532
     5  C   -0.171300
     6  C   -0.218804
     7  H    0.225733
     8  H    0.226986
     9  H    0.275376
    10  H    0.275614
    11  H    0.223611
    12  N    0.488057
    13  O   -0.460338
    14  O   -0.460515
    15  C   -0.298977
    16  C   -0.300027
    17  C   -0.476135
    18  H    0.149359
    19  H    0.152040
    20  H    0.151596
    21  H    0.153018
    22  H    0.157016
    23  H    0.154886
    24  H    0.161127
    25  C   -0.298829
    26  C   -0.301864
    27  C   -0.475518
    28  H    0.149641
    29  H    0.150425
    30  H    0.151198
    31  H    0.158563
    32  H    0.152697
    33  H    0.158416
    34  H    0.148425
 Sum of Mulliken charges =  -0.00000

 Dipole moment (field-independent basis, Debye):
    X=              1.9831    Y=              4.6417    Z=              1.1519  Tot=              5.1773
 Quadrupole moment (field-independent basis, Debye-Ang):
   XX=           -105.8422   YY=            -99.1869   ZZ=            -90.2808
   XY=            -13.6628   XZ=             -4.7914   YZ=             -0.2199

 Normal termination of Gaussian 16 at Thu May  6 17:44:20 2021.
