 Gaussian 16, Revision A.03,
 Gaussian 16:  EM64L-G16RevA.03 25-Dec-2016

 -------------
 #p 6-31g* mp2
 -------------

 ------------------------------------------------------
 Input file generated by CHIRIPA (05-May-2021 14:55:24)
 ------------------------------------------------------
 Symbolic Z-matrix:
 Charge =  0 Multiplicity = 1

                         Standard orientation:
 ---------------------------------------------------------------------
 Center     Atomic      Atomic             Coordinates (Angstroms)
 Number     Number       Type             X           Y           Z
 ---------------------------------------------------------------------
      1          6           0       -3.536274    2.593437    0.199559
      2          6           0       -4.678789    1.874230   -0.166397
      3          6           0       -4.618572    0.489066   -0.345960
      4          6           0       -3.393976   -0.147652   -0.150402
      5          6           0       -2.238189    0.541100    0.214383
      6          6           0       -2.321762    1.925753    0.388448
      7          1           0       -3.592124    3.669267    0.336913
      8          1           0       -5.623341    2.390125   -0.313772
      9          1           0       -5.487652   -0.092259   -0.629118
     10          1           0       -1.310790   -0.000956    0.354117
     11          1           0       -1.432854    2.481726    0.672671
     12          7           0       -3.317863   -1.613793   -0.337587
     13          8           0       -2.227023   -2.151284   -0.159240
     14          8           0       -4.350488   -2.197701   -0.659105
     15          6           0        3.599927   -0.122243    0.080967
     16          6           0        2.884013   -0.836892    1.227584
     17          6           0        1.363262   -0.832393    1.069193
     18          1           0        3.239167    0.913704    0.020881
     19          1           0        3.327824   -0.603553   -0.868611
     20          1           0        3.158471   -0.355250    2.174848
     21          1           0        3.246660   -1.871204    1.285068
     22          1           0        1.071317   -1.331052    0.139297
     23          1           0        0.982627    0.193515    1.034133
     24          1           0        0.871594   -1.348473    1.899727
     25          6           0        5.120763   -0.118359    0.225084
     26          6           0        5.836677    0.596289   -0.921534
     27          6           0        7.357429    0.591791   -0.763143
     28          1           0        5.392866    0.362949    1.174661
     29          1           0        5.481524   -1.154307    0.285169
     30          1           0        5.474031    1.630600   -0.979018
     31          1           0        5.562220    0.114647   -1.868798
     32          1           0        7.738064   -0.434118   -0.728082
     33          1           0        7.649374    1.090448    0.166755
     34          1           0        7.849096    1.107870   -1.593676
 ---------------------------------------------------------------------

 SCF Done:  E(RHF) =  -669.535484269     A.U. after   15 cycles
 E2 =    -0.2091498996D+01 EUMP2 =    -0.67162698326499D+03

 The electronic state is 1-A.
 Alpha  occ. eigenvalues --  -20.60707 -20.60702 -15.85755 -11.31077 -11.27676
 Alpha  occ. eigenvalues --  -11.27576 -11.27426 -11.26687 -11.26666 -11.21741
 Alpha  occ. eigenvalues --  -11.21696 -11.21534 -11.21460 -11.21299 -11.21143
 Alpha  occ. eigenvalues --   -1.59780  -1.39334  -1.19264  -1.08672  -1.08555
 Alpha  occ. eigenvalues --   -1.04666  -1.03663  -0.96133  -0.95504  -0.87164
 Alpha  occ. eigenvalues --   -0.86060  -0.82342  -0.79752  -0.78374  -0.77373
 Alpha  occ. eigenvalues --   -0.71976  -0.71102  -0.70383  -0.65185  -0.64919
 Alpha  occ. eigenvalues --   -0.64679  -0.62044  -0.61047  -0.59469  -0.57725
 Alpha  occ. eigenvalues --   -0.55434  -0.55172  -0.53006  -0.52995  -0.52711
 Alpha  occ. eigenvalues --   -0.52381  -0.50075  -0.48733  -0.48722  -0.48035
 Alpha  occ. eigenvalues --   -0.46751  -0.45913  -0.45823  -0.44748  -0.43902
 Alpha  occ. eigenvalues --   -0.37259  -0.36267
 Alpha virt. eigenvalues --    0.05139   0.11381   0.16629   0.20750   0.22769
 Alpha virt. eigenvalues --    0.24084   0.25641   0.26503   0.27482   0.27870
 Alpha virt. eigenvalues --    0.29226   0.29909   0.31650   0.31695   0.32316

 Mulliken charges:
               1
     1  C   -0.170243
     2  C   -0.219602
     3  C   -0.169623
     4  C    0.155870
     5  C   -0.182365
     6  C   -0.224696
     7  H    0.225126
     8  H    0.223008
     9  H    0.275219
    10  H    0.299760
    11  H    0.222837
    12  N    0.487043
    13  O   -0.461704
    14  O   -0.460682
    15  C   -0.298509
    16  C   -0.299890
    17  C   -0.484231
    18  H    0.145388
    19  H    0.152238
    20  H    0.150879
    21  H    0.156671
    22  H    0.169813
    23  H    0.137605
    24  H    0.168825
    25  C   -0.298484
    26  C   -0.299648
    27  C   -0.475791
    28  H    0.148985
    29  H    0.151421
    30  H    0.150465
    31  H    0.152991
    32  H    0.156109
    33  H    0.154853
    34  H    0.160361
 Sum of Mulliken charges =  -0.00000

 Dipole moment (field-independent basis, Debye):
    X=             -0.1530    Y=              5.0109    Z=              0.6538  Tot=              5.0557
 Quadrupole moment (field-independent basis, Debye-Ang):
   XX=            -89.4343   YY=            -96.0391   ZZ=            -95.3022
   XY=            -17.9955   XZ=             -0.9491   YZ=             -0.4717

 Normal termination of Gaussian 16 at Thu May  6 12:39:56 2021.
