 Gaussian 16, Revision A.03,
 Gaussian 16:  EM64L-G16RevA.03 25-Dec-2016

 -------------
 #p 6-31g* mp2
 -------------

 ------------------------------------------------------
 Input file generated by CHIRIPA (05-May-2021 14:55:19)
 ------------------------------------------------------
 Symbolic Z-matrix:
 Charge =  0 Multiplicity = 1

                         Standard orientation:
 ---------------------------------------------------------------------
 Center     Atomic      Atomic             Coordinates (Angstroms)
 Number     Number       Type             X           Y           Z
 ---------------------------------------------------------------------
      1          6           0       -1.865446    1.996974    0.990807
      2          6           0       -1.200065    1.102172    0.146343
      3          6           0       -1.860844   -0.020817   -0.360428
      4          6           0       -3.192933   -0.219154   -0.000579
      5          6           0       -3.883107    0.654131    0.838660
      6          6           0       -3.202486    1.770497    1.333666
      7          1           0       -1.344430    2.866766    1.379909
      8          1           0       -0.161705    1.275531   -0.121614
      9          1           0       -1.369763   -0.729626   -1.016055
     10          1           0       -4.918232    0.454705    1.087987
     11          1           0       -3.721749    2.463725    1.989291
     12          7           0       -3.902973   -1.404506   -0.530847
     13          8           0       -5.076514   -1.556773   -0.198804
     14          8           0       -3.272516   -2.158873   -1.268473
     15          6           0        4.390109   -0.377242    0.349371
     16          6           0        4.262192   -1.887060    0.144263
     17          6           0        5.174548   -2.689169    1.072713
     18          1           0        5.434821   -0.078752    0.186814
     19          1           0        4.154930   -0.135068    1.395047
     20          1           0        4.496196   -2.126153   -0.901056
     21          1           0        3.217624   -2.181961    0.307141
     22          1           0        4.937630   -2.479749    2.120860
     23          1           0        6.223466   -2.423624    0.905799
     24          1           0        5.067039   -3.766000    0.909200
     25          6           0        3.484219    0.438154   -0.571619
     26          6           0        3.612136    1.947972   -0.366510
     27          6           0        2.699780    2.750081   -1.294960
     28          1           0        3.719399    0.195979   -1.617295
     29          1           0        2.439508    0.139663   -0.409061
     30          1           0        4.656704    2.242873   -0.529388
     31          1           0        3.378132    2.187065    0.678808
     32          1           0        1.650863    2.484536   -1.128046
     33          1           0        2.936699    2.540661   -2.343108
     34          1           0        2.807290    3.826912   -1.131448
 ---------------------------------------------------------------------

 SCF Done:  E(RHF) =  -669.535415634     A.U. after   15 cycles
 E2 =    -0.2091259925D+01 EUMP2 =    -0.67162667555934D+03

 The electronic state is 1-A.
 Alpha  occ. eigenvalues --  -20.60752 -20.60747 -15.85805 -11.31174 -11.27749
 Alpha  occ. eigenvalues --  -11.27743 -11.27491 -11.26762 -11.26743 -11.22469
 Alpha  occ. eigenvalues --  -11.22205 -11.22101 -11.22027 -11.21944 -11.21383
 Alpha  occ. eigenvalues --   -1.59827  -1.39381  -1.19350  -1.09122  -1.08744
 Alpha  occ. eigenvalues --   -1.04756  -1.04195  -0.96654  -0.95577  -0.87668
 Alpha  occ. eigenvalues --   -0.86156  -0.82412  -0.80267  -0.78904  -0.77458
 Alpha  occ. eigenvalues --   -0.72024  -0.71151  -0.70457  -0.65802  -0.65002
 Alpha  occ. eigenvalues --   -0.64760  -0.62167  -0.61535  -0.60031  -0.58245
 Alpha  occ. eigenvalues --   -0.55972  -0.55251  -0.53328  -0.53126  -0.53067
 Alpha  occ. eigenvalues --   -0.52821  -0.50603  -0.48795  -0.48778  -0.48557
 Alpha  occ. eigenvalues --   -0.47300  -0.46443  -0.46346  -0.44785  -0.44444
 Alpha  occ. eigenvalues --   -0.37331  -0.36357
 Alpha virt. eigenvalues --    0.05079   0.11261   0.16549   0.18655   0.22752
 Alpha virt. eigenvalues --    0.23658   0.25166   0.26560   0.26959   0.28400
 Alpha virt. eigenvalues --    0.28933   0.30151   0.31059   0.31494   0.31822

 Mulliken charges:
               1
     1  C   -0.173112
     2  C   -0.228772
     3  C   -0.173231
     4  C    0.158911
     5  C   -0.171051
     6  C   -0.218504
     7  H    0.225981
     8  H    0.237155
     9  H    0.276066
    10  H    0.275602
    11  H    0.223384
    12  N    0.488027
    13  O   -0.460567
    14  O   -0.460329
    15  C   -0.298534
    16  C   -0.300427
    17  C   -0.476193
    18  H    0.151817
    19  H    0.149725
    20  H    0.153545
    21  H    0.152610
    22  H    0.155510
    23  H    0.155673
    24  H    0.162902
    25  C   -0.299570
    26  C   -0.300849
    27  C   -0.479237
    28  H    0.153376
    29  H    0.142334
    30  H    0.156755
    31  H    0.150404
    32  H    0.145923
    33  H    0.161120
    34  H    0.163556
 Sum of Mulliken charges =  -0.00000

 Dipole moment (field-independent basis, Debye):
    X=              2.7084    Y=              4.1529    Z=              1.8520  Tot=              5.2926
 Quadrupole moment (field-independent basis, Debye-Ang):
   XX=           -106.3576   YY=            -97.1493   ZZ=            -93.9700
   XY=            -14.8565   XZ=             -9.4412   YZ=              0.7706

 Normal termination of Gaussian 16 at Wed May  5 15:49:50 2021.
