 Gaussian 16, Revision A.03,
 Gaussian 16:  EM64L-G16RevA.03 25-Dec-2016

 -------------
 #p 6-31g* mp2
 -------------

 ------------------------------------------------------
 Input file generated by CHIRIPA (05-May-2021 14:53:12)
 ------------------------------------------------------
 Symbolic Z-matrix:
 Charge =  0 Multiplicity = 1

                         Standard orientation:
 ---------------------------------------------------------------------
 Center     Atomic      Atomic             Coordinates (Angstroms)
 Number     Number       Type             X           Y           Z
 ---------------------------------------------------------------------
      1          6           0       -3.406085    1.020413    0.336082
      2          6           0       -2.938938    1.928421   -0.802022
      3          6           0       -2.165877    3.150064   -0.304267
      4          1           0       -4.036944    1.600127    1.023754
      5          1           0       -2.532361    0.691476    0.915566
      6          1           0       -3.813152    2.254433   -1.380021
      7          1           0       -2.309274    1.346429   -1.487167
      8          1           0       -1.276536    2.841650    0.254798
      9          1           0       -2.788958    3.754813    0.362553
     10          1           0       -1.841414    3.785398   -1.134288
     11          6           0       -4.180396   -0.205191   -0.145649
     12          6           0       -4.647543   -1.113200    0.992454
     13          6           0       -5.420603   -2.334843    0.494699
     14          1           0       -5.054120    0.123745   -0.725134
     15          1           0       -3.549536   -0.784906   -0.833321
     16          1           0       -5.277207   -0.531208    1.677599
     17          1           0       -3.773329   -1.439212    1.570453
     18          1           0       -4.797522   -2.939592   -0.172121
     19          1           0       -6.309945   -2.026428   -0.064366
     20          1           0       -5.745066   -2.970177    1.324720
     21          6           0        0.696266   -1.062173   -0.894498
     22          6           0        0.865116    0.225818   -0.375761
     23          6           0        2.116779    0.648625    0.081535
     24          6           0        3.182654   -0.246545    0.004898
     25          6           0        3.046219   -1.536117   -0.506649
     26          6           0        1.785436   -1.937487   -0.958174
     27          1           0       -0.279599   -1.382293   -1.247496
     28          1           0        0.021037    0.907733   -0.325089
     29          1           0        2.275554    1.640173    0.487786
     30          1           0        3.906443   -2.193397   -0.544301
     31          1           0        1.657246   -2.938342   -1.360543
     32          7           0        4.512562    0.189714    0.485963
     33          8           0        5.435723   -0.617915    0.407587
     34          8           0        4.606599    1.331024    0.932287
 ---------------------------------------------------------------------

 SCF Done:  E(RHF) =  -669.535243618     A.U. after   15 cycles
 E2 =    -0.2092152208D+01 EUMP2 =    -0.67162739582631D+03

 The electronic state is 1-A.
 Alpha  occ. eigenvalues --  -20.60744 -20.60739 -15.85796 -11.31165 -11.27736
 Alpha  occ. eigenvalues --  -11.27724 -11.27481 -11.26754 -11.26700 -11.22775
 Alpha  occ. eigenvalues --  -11.22456 -11.22410 -11.22350 -11.22211 -11.21778
 Alpha  occ. eigenvalues --   -1.59819  -1.39372  -1.19336  -1.09459  -1.08731
 Alpha  occ. eigenvalues --   -1.04749  -1.04506  -0.96951  -0.95567  -0.87961
 Alpha  occ. eigenvalues --   -0.86142  -0.82401  -0.80568  -0.79240  -0.77451
 Alpha  occ. eigenvalues --   -0.72016  -0.71142  -0.70453  -0.66239  -0.64988
 Alpha  occ. eigenvalues --   -0.64709  -0.62337  -0.61630  -0.60309  -0.58540
 Alpha  occ. eigenvalues --   -0.56287  -0.55224  -0.53616  -0.53363  -0.53069
 Alpha  occ. eigenvalues --   -0.52795  -0.50917  -0.48881  -0.48770  -0.48752
 Alpha  occ. eigenvalues --   -0.47637  -0.46775  -0.46710  -0.44777  -0.44757
 Alpha  occ. eigenvalues --   -0.37320  -0.36339
 Alpha virt. eigenvalues --    0.05088   0.11254   0.16573   0.17938   0.22383
 Alpha virt. eigenvalues --    0.23498   0.24691   0.25616   0.26839   0.28474
 Alpha virt. eigenvalues --    0.29861   0.30529   0.30772   0.30954   0.31918

 Mulliken charges:
               1
     1  C   -0.301194
     2  C   -0.305135
     3  C   -0.478762
     4  H    0.155404
     5  H    0.146917
     6  H    0.159435
     7  H    0.144698
     8  H    0.147661
     9  H    0.162668
    10  H    0.165923
    11  C   -0.297489
    12  C   -0.300725
    13  C   -0.475814
    14  H    0.153353
    15  H    0.142447
    16  H    0.155093
    17  H    0.152563
    18  H    0.153157
    19  H    0.156978
    20  H    0.163273
    21  C   -0.174637
    22  C   -0.228890
    23  C   -0.173592
    24  C    0.158957
    25  C   -0.171195
    26  C   -0.218426
    27  H    0.226140
    28  H    0.239535
    29  H    0.275681
    30  H    0.275540
    31  H    0.223296
    32  N    0.488040
    33  O   -0.460595
    34  O   -0.460307
 Sum of Mulliken charges =  -0.00000

 Dipole moment (field-independent basis, Debye):
    X=             -4.9523    Y=             -1.4477    Z=             -1.6490  Tot=              5.4166
 Quadrupole moment (field-independent basis, Debye-Ang):
   XX=           -122.8255   YY=            -90.2090   ZZ=            -95.3284
   XY=             -7.0631   XZ=             -6.3289   YZ=              1.4557

 Normal termination of Gaussian 16 at Wed May  5 16:58:27 2021.
