 Gaussian 16, Revision A.03,
 Gaussian 16:  EM64L-G16RevA.03 25-Dec-2016

 -------------
 #p 6-31g* mp2
 -------------

 ------------------------------------------------------
 Input file generated by CHIRIPA (05-May-2021 14:53:11)
 ------------------------------------------------------
 Symbolic Z-matrix:
 Charge =  0 Multiplicity = 1

                         Standard orientation:
 ---------------------------------------------------------------------
 Center     Atomic      Atomic             Coordinates (Angstroms)
 Number     Number       Type             X           Y           Z
 ---------------------------------------------------------------------
      1          6           0       -3.592232    0.927399    0.305978
      2          6           0       -2.242717    1.614445    0.094409
      3          6           0       -2.220334    3.048927    0.623138
      4          1           0       -4.377228    1.514718   -0.189787
      5          1           0       -3.831835    0.927683    1.378352
      6          1           0       -2.005083    1.611634   -0.977103
      7          1           0       -1.460816    1.025319    0.590573
      8          1           0       -2.432320    3.067013    1.697072
      9          1           0       -2.979680    3.656659    0.120489
     10          1           0       -1.246302    3.521183    0.461597
     11          6           0       -3.630277   -0.507301   -0.217394
     12          6           0       -4.979792   -1.194346   -0.005825
     13          6           0       -5.002175   -2.628829   -0.534554
     14          1           0       -3.390674   -0.507585   -1.289768
     15          1           0       -2.845281   -1.094620    0.278371
     16          1           0       -5.761693   -0.605221   -0.501989
     17          1           0       -5.217426   -1.191536    1.065687
     18          1           0       -4.242829   -3.236561   -0.031905
     19          1           0       -4.790189   -2.646915   -1.608488
     20          1           0       -5.976207   -3.101085   -0.373013
     21          6           0        3.483829   -2.562149    0.385320
     22          6           0        4.462327   -1.606741    0.091617
     23          6           0        4.106742   -0.275144   -0.142813
     24          6           0        2.757241    0.067733   -0.075200
     25          6           0        1.759087   -0.861084    0.215100
     26          6           0        2.137705   -2.186932    0.446018
     27          1           0        3.769004   -3.594332    0.566067
     28          1           0        5.508514   -1.895276    0.043818
     29          1           0        4.843743    0.484864   -0.372238
     30          1           0        0.724307   -0.543287    0.255792
     31          1           0        1.375641   -2.926780    0.673896
     32          7           0        2.368607    1.474393   -0.321520
     33          8           0        1.172845    1.750995   -0.256080
     34          8           0        3.267116    2.273694   -0.575362
 ---------------------------------------------------------------------

 SCF Done:  E(RHF) =  -669.535731842     A.U. after   15 cycles
 E2 =    -0.2092087041D+01 EUMP2 =    -0.67162781888301D+03

 The electronic state is 1-A.
 Alpha  occ. eigenvalues --  -20.60890 -20.60884 -15.85927 -11.31252 -11.27819
 Alpha  occ. eigenvalues --  -11.27807 -11.27558 -11.26827 -11.26816 -11.21507
 Alpha  occ. eigenvalues --  -11.21227 -11.21101 -11.20848 -11.20651 -11.19904
 Alpha  occ. eigenvalues --   -1.59959  -1.39514  -1.19423  -1.08828  -1.08035
 Alpha  occ. eigenvalues --   -1.04819  -1.03001  -0.95684  -0.95461  -0.86504
 Alpha  occ. eigenvalues --   -0.86220  -0.82508  -0.79145  -0.77880  -0.77446
 Alpha  occ. eigenvalues --   -0.72155  -0.71273  -0.70533  -0.65082  -0.64839
 Alpha  occ. eigenvalues --   -0.64671  -0.62172  -0.60413  -0.58885  -0.56998
 Alpha  occ. eigenvalues --   -0.55326  -0.54808  -0.53152  -0.52917  -0.52115
 Alpha  occ. eigenvalues --   -0.51898  -0.49478  -0.48959  -0.48897  -0.47387
 Alpha  occ. eigenvalues --   -0.46218  -0.45302  -0.45247  -0.44878  -0.43262
 Alpha  occ. eigenvalues --   -0.37404  -0.36421
 Alpha virt. eigenvalues --    0.04966   0.11231   0.16461   0.20512   0.23053
 Alpha virt. eigenvalues --    0.24358   0.25424   0.27336   0.27629   0.28486
 Alpha virt. eigenvalues --    0.29396   0.30513   0.31543   0.31990   0.32826

 Mulliken charges:
               1
     1  C   -0.299002
     2  C   -0.296164
     3  C   -0.480597
     4  H    0.148951
     5  H    0.146649
     6  H    0.155239
     7  H    0.153037
     8  H    0.148054
     9  H    0.149352
    10  H    0.181193
    11  C   -0.295870
    12  C   -0.298974
    13  C   -0.475056
    14  H    0.149874
    15  H    0.139306
    16  H    0.153392
    17  H    0.151481
    18  H    0.151096
    19  H    0.155162
    20  H    0.160201
    21  C   -0.170250
    22  C   -0.218942
    23  C   -0.170075
    24  C    0.155459
    25  C   -0.172762
    26  C   -0.220740
    27  H    0.225886
    28  H    0.223644
    29  H    0.275710
    30  H    0.282706
    31  H    0.224179
    32  N    0.494108
    33  O   -0.466546
    34  O   -0.459699
 Sum of Mulliken charges =  -0.00000

 Dipole moment (field-independent basis, Debye):
    X=              1.5838    Y=             -4.8076    Z=              0.8031  Tot=              5.1251
 Quadrupole moment (field-independent basis, Debye-Ang):
   XX=            -83.1389   YY=            -96.5381   ZZ=            -95.0529
   XY=            -12.8449   XZ=              1.9486   YZ=             -0.5878

 Normal termination of Gaussian 16 at Wed May  5 23:19:18 2021.
