 Gaussian 16, Revision A.03,
 Gaussian 16:  EM64L-G16RevA.03 25-Dec-2016

 -------------
 #p 6-31g* mp2
 -------------

 ------------------------------------------------------
 Input file generated by CHIRIPA (05-May-2021 14:57:22)
 ------------------------------------------------------
 Symbolic Z-matrix:
 Charge =  0 Multiplicity = 1

                         Standard orientation:
 ---------------------------------------------------------------------
 Center     Atomic      Atomic             Coordinates (Angstroms)
 Number     Number       Type             X           Y           Z
 ---------------------------------------------------------------------
      1          6           0       -2.512747   -2.314874    0.848009
      2          6           0       -1.504194   -2.066782   -0.088896
      3          6           0       -1.410434   -0.821979   -0.718358
      4          6           0       -2.346128    0.156306   -0.385603
      5          6           0       -3.362391   -0.060363    0.543673
      6          6           0       -3.436998   -1.312639    1.160752
      7          1           0       -2.578143   -3.284769    1.332180
      8          1           0       -0.785036   -2.843256   -0.333734
      9          1           0       -0.639719   -0.602994   -1.447372
     10          1           0       -4.064821    0.733416    0.767116
     11          1           0       -4.221310   -1.502488    1.887978
     12          7           0       -2.257007    1.478079   -1.045431
     13          8           0       -3.093564    2.323275   -0.734862
     14          8           0       -1.352285    1.643861   -1.860680
     15          6           0        1.832865    1.958947    1.853888
     16          6           0        1.429340    0.656512    2.165901
     17          6           0        1.716420   -0.402504    1.299518
     18          6           0        2.411856   -0.121897    0.124394
     19          6           0        2.827317    1.164916   -0.214424
     20          6           0        2.529337    2.208552    0.666814
     21          1           0        1.605621    2.775642    2.532684
     22          1           0        0.888310    0.459713    3.087097
     23          1           0        1.415866   -1.420366    1.516406
     24          1           0        3.365159    1.329986   -1.140111
     25          1           0        2.843962    3.219038    0.421914
     26          7           0        2.721544   -1.234888   -0.800670
     27          8           0        3.335478   -0.961410   -1.829714
     28          8           0        2.344481   -2.359655   -0.479174
 ---------------------------------------------------------------------

 SCF Done:  E(RHF) =  -868.339470477     A.U. after   16 cycles
 E2 =    -0.2601803615D+01 EUMP2 =    -0.87094127409231D+03

 The electronic state is 1-A.
 Alpha  occ. eigenvalues --  -20.61272 -20.61201 -20.60847 -20.60831 -15.86258
 Alpha  occ. eigenvalues --  -15.85889 -11.31286 -11.31180 -11.27891 -11.27787
 Alpha  occ. eigenvalues --  -11.27773 -11.27672 -11.27506 -11.27443 -11.26796
 Alpha  occ. eigenvalues --  -11.26784 -11.26697 -11.26556  -1.60310  -1.59919
 Alpha  occ. eigenvalues --   -1.39871  -1.39473  -1.19451  -1.19335  -1.08899
 Alpha  occ. eigenvalues --   -1.08748  -1.04811  -1.04689  -0.95785  -0.95599
 Alpha  occ. eigenvalues --   -0.86211  -0.86108  -0.82631  -0.82409  -0.77731
 Alpha  occ. eigenvalues --   -0.77458  -0.72482  -0.72113  -0.71649  -0.71239
 Alpha  occ. eigenvalues --   -0.70550  -0.70438  -0.65100  -0.64977  -0.64804
 Alpha  occ. eigenvalues --   -0.64650  -0.62172  -0.62007  -0.55306  -0.55220
 Alpha  occ. eigenvalues --   -0.53418  -0.52946  -0.52787  -0.52705  -0.49259
 Alpha  occ. eigenvalues --   -0.49200  -0.48870  -0.48859  -0.45334  -0.44894
 Alpha  occ. eigenvalues --   -0.37477  -0.37351  -0.36709  -0.35853
 Alpha virt. eigenvalues --    0.04679   0.05082   0.11197   0.11351   0.16281
 Alpha virt. eigenvalues --    0.16566   0.21205   0.21715   0.26887   0.27464
 Alpha virt. eigenvalues --    0.28172   0.28521   0.30776   0.31467   0.32062

 Mulliken charges:
               1
     1  C   -0.174434
     2  C   -0.228262
     3  C   -0.171863
     4  C    0.158541
     5  C   -0.173501
     6  C   -0.219671
     7  H    0.226261
     8  H    0.242479
     9  H    0.277387
    10  H    0.273892
    11  H    0.222084
    12  N    0.487994
    13  O   -0.463007
    14  O   -0.459716
    15  C   -0.169009
    16  C   -0.219183
    17  C   -0.168577
    18  C    0.152023
    19  C   -0.165369
    20  C   -0.215103
    21  H    0.227796
    22  H    0.222388
    23  H    0.269879
    24  H    0.277777
    25  H    0.227192
    26  N    0.487210
    27  O   -0.454172
    28  O   -0.471036
 Sum of Mulliken charges =  -0.00000

 Dipole moment (field-independent basis, Debye):
    X=             -1.2142    Y=             -0.5670    Z=              5.4964  Tot=              5.6574
 Quadrupole moment (field-independent basis, Debye-Ang):
   XX=           -105.4535   YY=           -105.3068   ZZ=           -103.4944
   XY=             21.5762   XZ=             -1.6769   YZ=              1.1398

 Normal termination of Gaussian 16 at Fri May  7 07:55:23 2021.
