 Gaussian 16, Revision A.03,
 Gaussian 16:  EM64L-G16RevA.03 25-Dec-2016

 -------------
 #p 6-31g* mp2
 -------------

 ------------------------------------------------------
 Input file generated by CHIRIPA (05-May-2021 14:53:14)
 ------------------------------------------------------
 Symbolic Z-matrix:
 Charge =  0 Multiplicity = 1

                         Standard orientation:
 ---------------------------------------------------------------------
 Center     Atomic      Atomic             Coordinates (Angstroms)
 Number     Number       Type             X           Y           Z
 ---------------------------------------------------------------------
      1          6           0        3.391503   -0.187162   -0.609549
      2          6           0        3.420462   -1.685958   -0.308291
      3          6           0        3.986841   -2.510521   -1.464623
      4          1           0        2.792553   -0.012906   -1.513893
      5          1           0        4.410669    0.153348   -0.839221
      6          1           0        2.401755   -2.023263   -0.077901
      7          1           0        4.019254   -1.856648    0.595550
      8          1           0        5.012518   -2.202135   -1.691531
      9          1           0        3.385829   -2.369697   -2.368809
     10          1           0        3.998346   -3.579021   -1.227903
     11          6           0        2.827872    0.650436    0.536958
     12          6           0        2.798913    2.149232    0.235700
     13          6           0        2.232533    2.973795    1.392032
     14          1           0        1.808706    0.309925    0.766630
     15          1           0        3.426822    0.476179    1.441302
     16          1           0        2.200121    2.319921   -0.668141
     17          1           0        3.817619    2.486537    0.005311
     18          1           0        2.833546    2.832971    2.296219
     19          1           0        1.206857    2.665409    1.618941
     20          1           0        2.221029    4.042294    1.155312
     21          6           0       -1.965044   -2.293167    1.327920
     22          6           0       -3.171748   -2.148315    0.635528
     23          6           0       -3.439745   -0.982348   -0.087829
     24          6           0       -2.474340    0.023234   -0.097281
     25          6           0       -1.262661   -0.091295    0.582432
     26          6           0       -1.016026   -1.266004    1.299212
     27          1           0       -1.765155   -3.202313    1.887287
     28          1           0       -3.910606   -2.944375    0.656052
     29          1           0       -4.365632   -0.843923   -0.632798
     30          1           0       -0.545500    0.719610    0.543310
     31          1           0       -0.078014   -1.375742    1.835996
     32          7           0       -2.746749    1.262218   -0.859587
     33          8           0       -1.879874    2.133487   -0.852157
     34          8           0       -3.821982    1.338606   -1.450076
 ---------------------------------------------------------------------

 SCF Done:  E(RHF) =  -669.535370352     A.U. after   15 cycles
 E2 =    -0.2092659974D+01 EUMP2 =    -0.67162803032624D+03

 The electronic state is 1-A.
 Alpha  occ. eigenvalues --  -20.60802 -20.60797 -15.85853 -11.31208 -11.27783
 Alpha  occ. eigenvalues --  -11.27764 -11.27521 -11.26795 -11.26775 -11.22071
 Alpha  occ. eigenvalues --  -11.21949 -11.21760 -11.21743 -11.21418 -11.21205
 Alpha  occ. eigenvalues --   -1.59876  -1.39430  -1.19385  -1.08831  -1.08778
 Alpha  occ. eigenvalues --   -1.04790  -1.03841  -0.96293  -0.95617  -0.87308
 Alpha  occ. eigenvalues --   -0.86184  -0.82455  -0.79906  -0.78691  -0.77487
 Alpha  occ. eigenvalues --   -0.72073  -0.71198  -0.70508  -0.65513  -0.65025
 Alpha  occ. eigenvalues --   -0.64786  -0.62161  -0.61187  -0.59662  -0.57905
 Alpha  occ. eigenvalues --   -0.55589  -0.55285  -0.53116  -0.52949  -0.52874
 Alpha  occ. eigenvalues --   -0.52721  -0.50245  -0.48829  -0.48828  -0.48218
 Alpha  occ. eigenvalues --   -0.46931  -0.46201  -0.46098  -0.44837  -0.44122
 Alpha  occ. eigenvalues --   -0.37362  -0.36380
 Alpha virt. eigenvalues --    0.05012   0.11224   0.16421   0.19155   0.22877
 Alpha virt. eigenvalues --    0.23291   0.24870   0.26448   0.27383   0.28202
 Alpha virt. eigenvalues --    0.29537   0.31076   0.31383   0.31613   0.31845

 Mulliken charges:
               1
     1  C   -0.298408
     2  C   -0.300791
     3  C   -0.475865
     4  H    0.154440
     5  H    0.152551
     6  H    0.147104
     7  H    0.151013
     8  H    0.156998
     9  H    0.157705
    10  H    0.159571
    11  C   -0.302186
    12  C   -0.303426
    13  C   -0.476240
    14  H    0.137920
    15  H    0.150107
    16  H    0.162252
    17  H    0.153951
    18  H    0.153140
    19  H    0.153088
    20  H    0.166769
    21  C   -0.170671
    22  C   -0.218864
    23  C   -0.170243
    24  C    0.159116
    25  C   -0.179178
    26  C   -0.222466
    27  H    0.225977
    28  H    0.223650
    29  H    0.275670
    30  H    0.283996
    31  H    0.226668
    32  N    0.487982
    33  O   -0.461235
    34  O   -0.460093
 Sum of Mulliken charges =  -0.00000

 Dipole moment (field-independent basis, Debye):
    X=              1.0426    Y=             -4.2619    Z=              2.5740  Tot=              5.0869
 Quadrupole moment (field-independent basis, Debye-Ang):
   XX=            -94.5102   YY=            -94.9440   ZZ=            -96.0456
   XY=             13.5331   XZ=             -5.0510   YZ=              0.4449

 Normal termination of Gaussian 16 at Wed May  5 23:28:42 2021.
