 Gaussian 16, Revision A.03,
 Gaussian 16:  EM64L-G16RevA.03 25-Dec-2016

 -------------
 #p 6-31g* mp2
 -------------

 ------------------------------------------------------
 Input file generated by CHIRIPA (05-May-2021 14:53:14)
 ------------------------------------------------------
 Symbolic Z-matrix:
 Charge =  0 Multiplicity = 1

                         Standard orientation:
 ---------------------------------------------------------------------
 Center     Atomic      Atomic             Coordinates (Angstroms)
 Number     Number       Type             X           Y           Z
 ---------------------------------------------------------------------
      1          6           0        3.612184    0.041671   -0.584596
      2          6           0        5.024006    0.609668   -0.435851
      3          6           0        5.444617    1.468073   -1.629174
      4          1           0        3.559380   -0.556095   -1.504832
      5          1           0        2.902121    0.870912   -0.709354
      6          1           0        5.731024   -0.220338   -0.310025
      7          1           0        5.073508    1.205994    0.484236
      8          1           0        4.762249    2.315062   -1.754013
      9          1           0        5.423501    0.880626   -2.552788
     10          1           0        6.457025    1.863937   -1.501960
     11          6           0        3.177353   -0.818698    0.600484
     12          6           0        1.765532   -1.386696    0.451738
     13          6           0        1.344920   -2.245101    1.645062
     14          1           0        3.887417   -1.647939    0.725242
     15          1           0        3.230158   -0.220933    1.520719
     16          1           0        1.716030   -1.983022   -0.468349
     17          1           0        1.058514   -0.556690    0.325912
     18          1           0        1.366037   -1.657654    2.568675
     19          1           0        2.027289   -3.092089    1.769901
     20          1           0        0.332513   -2.640964    1.517848
     21          6           0       -1.632309    1.812506    1.739875
     22          6           0       -1.249296    0.469267    1.665508
     23          6           0       -1.807783   -0.375998    0.702094
     24          6           0       -2.750759    0.157644   -0.175010
     25          6           0       -3.152902    1.491505   -0.126160
     26          6           0       -2.581217    2.318447    0.845380
     27          1           0       -1.193337    2.462012    2.491435
     28          1           0       -0.512588    0.073614    2.358880
     29          1           0       -1.529389   -1.419808    0.622248
     30          1           0       -3.889671    1.857102   -0.831092
     31          1           0       -2.880569    3.361212    0.900800
     32          7           0       -3.348990   -0.727501   -1.199236
     33          8           0       -4.177742   -0.233039   -1.960363
     34          8           0       -2.977804   -1.898980   -1.221502
 ---------------------------------------------------------------------

 SCF Done:  E(RHF) =  -669.533789999     A.U. after   15 cycles
 E2 =    -0.2093981812D+01 EUMP2 =    -0.67162777181124D+03

 The electronic state is 1-A.
 Alpha  occ. eigenvalues --  -20.60763 -20.60758 -15.85815 -11.31174 -11.27749
 Alpha  occ. eigenvalues --  -11.27713 -11.27491 -11.26769 -11.26708 -11.22081
 Alpha  occ. eigenvalues --  -11.21985 -11.21907 -11.21867 -11.21710 -11.21310
 Alpha  occ. eigenvalues --   -1.59837  -1.39391  -1.19361  -1.08886  -1.08747
 Alpha  occ. eigenvalues --   -1.04801  -1.04004  -0.96513  -0.95584  -0.87516
 Alpha  occ. eigenvalues --   -0.86158  -0.82427  -0.80080  -0.78663  -0.77470
 Alpha  occ. eigenvalues --   -0.72036  -0.71160  -0.70483  -0.65602  -0.65002
 Alpha  occ. eigenvalues --   -0.64756  -0.62366  -0.61258  -0.59810  -0.58073
 Alpha  occ. eigenvalues --   -0.55817  -0.55232  -0.53232  -0.53130  -0.53021
 Alpha  occ. eigenvalues --   -0.52661  -0.50425  -0.48792  -0.48787  -0.48389
 Alpha  occ. eigenvalues --   -0.47105  -0.46204  -0.46117  -0.44795  -0.44262
 Alpha  occ. eigenvalues --   -0.37348  -0.36266
 Alpha virt. eigenvalues --    0.05047   0.11243   0.16432   0.19838   0.22792
 Alpha virt. eigenvalues --    0.23917   0.25507   0.26277   0.26856   0.27790
 Alpha virt. eigenvalues --    0.28950   0.30533   0.31451   0.31751   0.32433

 Mulliken charges:
               1
     1  C   -0.298897
     2  C   -0.299855
     3  C   -0.475914
     4  H    0.152967
     5  H    0.149785
     6  H    0.152905
     7  H    0.150342
     8  H    0.154954
     9  H    0.156942
    10  H    0.160804
    11  C   -0.297024
    12  C   -0.311200
    13  C   -0.484671
    14  H    0.151515
    15  H    0.145229
    16  H    0.160100
    17  H    0.157619
    18  H    0.148122
    19  H    0.164699
    20  H    0.158620
    21  C   -0.172627
    22  C   -0.223006
    23  C   -0.175472
    24  C    0.159214
    25  C   -0.170918
    26  C   -0.218820
    27  H    0.225621
    28  H    0.230585
    29  H    0.282228
    30  H    0.275575
    31  H    0.223364
    32  N    0.488106
    33  O   -0.460468
    34  O   -0.460424
 Sum of Mulliken charges =  -0.00000

 Dipole moment (field-independent basis, Debye):
    X=              2.2029    Y=              3.0776    Z=              3.5154  Tot=              5.1655
 Quadrupole moment (field-independent basis, Debye-Ang):
   XX=           -105.2327   YY=            -90.6613   ZZ=            -96.6314
   XY=            -11.5424   XZ=             -9.3106   YZ=             -0.4522

 Normal termination of Gaussian 16 at Thu May  6 01:03:54 2021.
