 Gaussian 16, Revision A.03,
 Gaussian 16:  EM64L-G16RevA.03 25-Dec-2016

 -------------
 #p 6-31g* mp2
 -------------

 ------------------------------------------------------
 Input file generated by CHIRIPA (05-May-2021 14:53:12)
 ------------------------------------------------------
 Symbolic Z-matrix:
 Charge =  0 Multiplicity = 1

                         Standard orientation:
 ---------------------------------------------------------------------
 Center     Atomic      Atomic             Coordinates (Angstroms)
 Number     Number       Type             X           Y           Z
 ---------------------------------------------------------------------
      1          6           0       -2.124286    0.981671    0.170122
      2          6           0       -2.675271    2.376581   -0.127581
      3          6           0       -1.907785    3.482481    0.597499
      4          1           0       -2.159051    0.804229    1.253751
      5          1           0       -1.064833    0.944149   -0.118923
      6          1           0       -3.733736    2.411041    0.160658
      7          1           0       -2.639369    2.550648   -1.210645
      8          1           0       -0.853502    3.476884    0.302445
      9          1           0       -1.954087    3.336484    1.681539
     10          1           0       -2.318362    4.471299    0.370506
     11          6           0       -2.881146   -0.134516   -0.547525
     12          6           0       -2.330160   -1.529426   -0.249821
     13          6           0       -3.097647   -2.635327   -0.974902
     14          1           0       -3.940599   -0.096995   -0.258480
     15          1           0       -2.846381    0.042925   -1.631153
     16          1           0       -2.366063   -1.703493    0.833242
     17          1           0       -1.271696   -1.563886   -0.538060
     18          1           0       -3.051345   -2.489329   -2.058941
     19          1           0       -4.151930   -2.629729   -0.679847
     20          1           0       -2.687070   -3.624145   -0.747909
     21          6           0        0.843175   -2.242346    1.362194
     22          6           0        0.958388   -0.992730    1.980021
     23          6           0        1.572655    0.073490    1.316396
     24          6           0        2.062758   -0.146130    0.029983
     25          6           0        1.963123   -1.379388   -0.612230
     26          6           0        1.345025   -2.431352    0.070318
     27          1           0        0.364508   -3.065074    1.885064
     28          1           0        0.569560   -0.843049    2.983243
     29          1           0        1.675223    1.051280    1.771174
     30          1           0        2.360378   -1.498086   -1.612989
     31          1           0        1.256950   -3.400732   -0.411959
     32          7           0        2.715083    0.975084   -0.682584
     33          8           0        3.138716    0.755839   -1.815326
     34          8           0        2.790392    2.051906   -0.094859
 ---------------------------------------------------------------------

 SCF Done:  E(RHF) =  -669.533870821     A.U. after   15 cycles
 E2 =    -0.2095673076D+01 EUMP2 =    -0.67162954389659D+03

 The electronic state is 1-A.
 Alpha  occ. eigenvalues --  -20.60870 -20.60865 -15.85923 -11.31286 -11.27867
 Alpha  occ. eigenvalues --  -11.27856 -11.27557 -11.26822 -11.26812 -11.21728
 Alpha  occ. eigenvalues --  -11.21540 -11.21500 -11.21443 -11.21401 -11.20918
 Alpha  occ. eigenvalues --   -1.59946  -1.39499  -1.19472  -1.08865  -1.08510
 Alpha  occ. eigenvalues --   -1.04865  -1.03625  -0.96086  -0.95684  -0.87096
 Alpha  occ. eigenvalues --   -0.86257  -0.82514  -0.79704  -0.78354  -0.77564
 Alpha  occ. eigenvalues --   -0.72136  -0.71275  -0.70555  -0.65170  -0.65106
 Alpha  occ. eigenvalues --   -0.64849  -0.62203  -0.61032  -0.59502  -0.57704
 Alpha  occ. eigenvalues --   -0.55379  -0.55335  -0.53410  -0.52941  -0.52701
 Alpha  occ. eigenvalues --   -0.52520  -0.50025  -0.48897  -0.48893  -0.48022
 Alpha  occ. eigenvalues --   -0.46737  -0.45876  -0.45650  -0.44895  -0.43874
 Alpha  occ. eigenvalues --   -0.37317  -0.36398
 Alpha virt. eigenvalues --    0.04943   0.11074   0.16393   0.20918   0.22935
 Alpha virt. eigenvalues --    0.23931   0.26216   0.26926   0.27657   0.27784
 Alpha virt. eigenvalues --    0.28320   0.30491   0.31470   0.31714   0.32040

 Mulliken charges:
               1
     1  C   -0.299238
     2  C   -0.299640
     3  C   -0.478438
     4  H    0.142844
     5  H    0.153071
     6  H    0.150324
     7  H    0.154254
     8  H    0.163552
     9  H    0.150183
    10  H    0.161609
    11  C   -0.297914
    12  C   -0.304926
    13  C   -0.475038
    14  H    0.148397
    15  H    0.151078
    16  H    0.142912
    17  H    0.162432
    18  H    0.156773
    19  H    0.156078
    20  H    0.152547
    21  C   -0.164040
    22  C   -0.215094
    23  C   -0.169906
    24  C    0.158428
    25  C   -0.171697
    26  C   -0.222413
    27  H    0.226270
    28  H    0.223719
    29  H    0.276518
    30  H    0.276055
    31  H    0.224263
    32  N    0.487720
    33  O   -0.460178
    34  O   -0.460502
 Sum of Mulliken charges =  -0.00000

 Dipole moment (field-independent basis, Debye):
    X=             -2.1397    Y=             -3.9045    Z=              2.5008  Tot=              5.1066
 Quadrupole moment (field-independent basis, Debye-Ang):
   XX=           -105.2102   YY=            -93.1028   ZZ=            -91.3087
   XY=             -8.9878   XZ=              3.8806   YZ=              1.5162

 Normal termination of Gaussian 16 at Wed May  5 15:29:31 2021.
