 Gaussian 16, Revision A.03,
 Gaussian 16:  EM64L-G16RevA.03 25-Dec-2016

 -------------
 #p 6-31g* mp2
 -------------

 ------------------------------------------------------
 Input file generated by CHIRIPA (05-May-2021 14:57:26)
 ------------------------------------------------------
 Symbolic Z-matrix:
 Charge =  0 Multiplicity = 1

                         Standard orientation:
 ---------------------------------------------------------------------
 Center     Atomic      Atomic             Coordinates (Angstroms)
 Number     Number       Type             X           Y           Z
 ---------------------------------------------------------------------
      1          6           0       -4.196108    1.431041    0.817735
      2          6           0       -2.859531    1.425778    1.230114
      3          6           0       -1.953171    0.509077    0.689079
      4          6           0       -2.419589   -0.392289   -0.266580
      5          6           0       -3.745053   -0.411972   -0.697912
      6          6           0       -4.633831    0.513767   -0.143268
      7          1           0       -4.893361    2.146667    1.243310
      8          1           0       -2.516787    2.136986    1.976274
      9          1           0       -0.912968    0.483008    0.990269
     10          1           0       -4.057186   -1.133158   -1.443486
     11          1           0       -5.671261    0.515549   -0.465420
     12          7           0       -1.469373   -1.367543   -0.846553
     13          8           0       -1.905221   -2.151331   -1.686999
     14          8           0       -0.306739   -1.329693   -0.449708
     15          6           0        2.366377   -1.690936    1.791465
     16          6           0        3.015095   -1.875903    0.566119
     17          6           0        3.137204   -0.817797   -0.339448
     18          6           0        2.596481    0.417414    0.014332
     19          6           0        1.944490    0.633121    1.227455
     20          6           0        1.834084   -0.439220    2.117648
     21          1           0        2.276066   -2.518426    2.488960
     22          1           0        3.429441   -2.846899    0.310138
     23          1           0        3.634427   -0.933270   -1.294881
     24          1           0        1.541570    1.612659    1.454567
     25          1           0        1.329759   -0.292666    3.068554
     26          7           0        2.719557    1.545119   -0.936213
     27          8           0        2.234634    2.623549   -0.600839
     28          8           0        3.298617    1.329230   -1.998625
 ---------------------------------------------------------------------

 SCF Done:  E(RHF) =  -868.336550527     A.U. after   16 cycles
 E2 =    -0.2603730657D+01 EUMP2 =    -0.87094028118349D+03

 The electronic state is 1-A.
 Alpha  occ. eigenvalues --  -20.60895 -20.60886 -20.60238 -20.60202 -15.85932
 Alpha  occ. eigenvalues --  -15.85268 -11.31257 -11.30424 -11.27822 -11.27797
 Alpha  occ. eigenvalues --  -11.27565 -11.27123 -11.26922 -11.26847 -11.26824
 Alpha  occ. eigenvalues --  -11.26723 -11.26135 -11.25911  -1.59977  -1.59297
 Alpha  occ. eigenvalues --   -1.39533  -1.38861  -1.19431  -1.18579  -1.08837
 Alpha  occ. eigenvalues --   -1.08021  -1.04839  -1.04029  -0.95686  -0.94908
 Alpha  occ. eigenvalues --   -0.86237  -0.85449  -0.82531  -0.81790  -0.77590
 Alpha  occ. eigenvalues --   -0.76859  -0.72215  -0.71512  -0.71300  -0.70585
 Alpha  occ. eigenvalues --   -0.70563  -0.69781  -0.65095  -0.64861  -0.64302
 Alpha  occ. eigenvalues --   -0.64100  -0.62234  -0.61411  -0.55343  -0.54551
 Alpha  occ. eigenvalues --   -0.53156  -0.53005  -0.52183  -0.52099  -0.48961
 Alpha  occ. eigenvalues --   -0.48869  -0.48274  -0.48239  -0.44986  -0.44316
 Alpha  occ. eigenvalues --   -0.37413  -0.36453  -0.36404  -0.35510
 Alpha virt. eigenvalues --    0.04940   0.05677   0.11140   0.12112   0.16450
 Alpha virt. eigenvalues --    0.17118   0.20968   0.22214   0.26457   0.27827
 Alpha virt. eigenvalues --    0.28561   0.29590   0.31064   0.31458   0.32700

 Mulliken charges:
               1
     1  C   -0.169642
     2  C   -0.221316
     3  C   -0.171686
     4  C    0.153689
     5  C   -0.169291
     6  C   -0.218999
     7  H    0.226197
     8  H    0.222148
     9  H    0.280719
    10  H    0.275773
    11  H    0.223908
    12  N    0.490452
    13  O   -0.460745
    14  O   -0.465328
    15  C   -0.162044
    16  C   -0.207262
    17  C   -0.160810
    18  C    0.171469
    19  C   -0.182333
    20  C   -0.214558
    21  H    0.222680
    22  H    0.222719
    23  H    0.274685
    24  H    0.264804
    25  H    0.214885
    26  N    0.487543
    27  O   -0.468192
    28  O   -0.459465
 Sum of Mulliken charges =  -0.00000

 Dipole moment (field-independent basis, Debye):
    X=             -3.7165    Y=             -0.8638    Z=              5.1737  Tot=              6.4285
 Quadrupole moment (field-independent basis, Debye-Ang):
   XX=            -87.4123   YY=           -109.4995   ZZ=           -103.5666
   XY=            -18.6802   XZ=              4.9648   YZ=              2.9316

 Normal termination of Gaussian 16 at Thu May  6 06:49:02 2021.
