 Gaussian 16, Revision A.03,
 Gaussian 16:  EM64L-G16RevA.03 25-Dec-2016

 -------------
 #p 6-31g* mp2
 -------------

 ------------------------------------------------------
 Input file generated by CHIRIPA (05-May-2021 14:53:17)
 ------------------------------------------------------
 Symbolic Z-matrix:
 Charge =  0 Multiplicity = 1

                         Standard orientation:
 ---------------------------------------------------------------------
 Center     Atomic      Atomic             Coordinates (Angstroms)
 Number     Number       Type             X           Y           Z
 ---------------------------------------------------------------------
      1          6           0        4.187682   -0.097284    0.189633
      2          6           0        3.430179   -1.382053    0.526594
      3          6           0        1.949896   -1.135922    0.819809
      4          1           0        4.090487    0.608252    1.026124
      5          1           0        3.715432    0.381338   -0.679445
      6          1           0        3.904560   -1.858828    1.393926
      7          1           0        3.529349   -2.084686   -0.310717
      8          1           0        1.456103   -0.681855   -0.045403
      9          1           0        1.833445   -0.454715    1.668925
     10          1           0        1.427528   -2.067664    1.058240
     11          6           0        5.668756   -0.327048   -0.105925
     12          6           0        6.426259    0.957722   -0.442886
     13          6           0        7.906542    0.711591   -0.736102
     14          1           0        6.141006   -0.805669    0.763153
     15          1           0        5.765952   -1.032583   -0.942416
     16          1           0        6.327089    1.660354    0.394425
     17          1           0        5.951878    1.434497   -1.310218
     18          1           0        8.022993    0.030383   -1.585217
     19          1           0        8.400336    0.257524    0.129111
     20          1           0        8.428911    1.643332   -0.974532
     21          6           0       -1.408235    0.541258    0.479031
     22          6           0       -2.323262    1.589046    0.625271
     23          6           0       -3.678656    1.392401    0.344585
     24          6           0       -4.086249    0.129452   -0.082171
     25          6           0       -3.198871   -0.934365   -0.237554
     26          6           0       -1.848185   -0.714889    0.048845
     27          1           0       -0.357161    0.702884    0.699294
     28          1           0       -1.984435    2.565641    0.959190
     29          1           0       -4.408468    2.186022    0.449257
     30          1           0       -3.566589   -1.896756   -0.572222
     31          1           0       -1.139808   -1.530454   -0.065622
     32          7           0       -5.518652   -0.090812   -0.382344
     33          8           0       -5.852449   -1.212866   -0.756793
     34          8           0       -6.280450    0.862768   -0.237486
 ---------------------------------------------------------------------

 SCF Done:  E(RHF) =  -669.535125051     A.U. after   15 cycles
 E2 =    -0.2091660103D+01 EUMP2 =    -0.67162678515402D+03

 The electronic state is 1-A.
 Alpha  occ. eigenvalues --  -20.60669 -20.60664 -15.85722 -11.31055 -11.27625
 Alpha  occ. eigenvalues --  -11.27617 -11.27262 -11.26616 -11.26575 -11.22700
 Alpha  occ. eigenvalues --  -11.22601 -11.22307 -11.22206 -11.22084 -11.21563
 Alpha  occ. eigenvalues --   -1.59746  -1.39300  -1.19218  -1.09295  -1.08611
 Alpha  occ. eigenvalues --   -1.04624  -1.04438  -0.96939  -0.95451  -0.87974
 Alpha  occ. eigenvalues --   -0.86008  -0.82295  -0.80538  -0.79055  -0.77349
 Alpha  occ. eigenvalues --   -0.71940  -0.71069  -0.70324  -0.65920  -0.64866
 Alpha  occ. eigenvalues --   -0.64634  -0.62021  -0.61788  -0.60321  -0.58529
 Alpha  occ. eigenvalues --   -0.56220  -0.55182  -0.53635  -0.53251  -0.52948
 Alpha  occ. eigenvalues --   -0.52684  -0.50864  -0.48820  -0.48697  -0.48682
 Alpha  occ. eigenvalues --   -0.47526  -0.46606  -0.46491  -0.44713  -0.44666
 Alpha  occ. eigenvalues --   -0.37182  -0.36231
 Alpha virt. eigenvalues --    0.05176   0.11387   0.16660   0.20378   0.22228
 Alpha virt. eigenvalues --    0.23756   0.25719   0.25862   0.26472   0.27602
 Alpha virt. eigenvalues --    0.29624   0.29880   0.30251   0.31564   0.32193

 Mulliken charges:
               1
     1  C   -0.299752
     2  C   -0.299418
     3  C   -0.486055
     4  H    0.149406
     5  H    0.149509
     6  H    0.156582
     7  H    0.155624
     8  H    0.151725
     9  H    0.156174
    10  H    0.163266
    11  C   -0.298997
    12  C   -0.300260
    13  C   -0.476183
    14  H    0.151223
    15  H    0.151379
    16  H    0.152200
    17  H    0.152453
    18  H    0.156187
    19  H    0.156066
    20  H    0.161889
    21  C   -0.175457
    22  C   -0.219370
    23  C   -0.171015
    24  C    0.158149
    25  C   -0.171240
    26  C   -0.222851
    27  H    0.233364
    28  H    0.222807
    29  H    0.274944
    30  H    0.274973
    31  H    0.226344
    32  N    0.488067
    33  O   -0.460880
    34  O   -0.460852
 Sum of Mulliken charges =  -0.00000

 Dipole moment (field-independent basis, Debye):
    X=              5.3975    Y=              0.7260    Z=              1.0723  Tot=              5.5506
 Quadrupole moment (field-independent basis, Debye-Ang):
   XX=           -136.7006   YY=            -89.9891   ZZ=            -94.5319
   XY=             -3.6960   XZ=             -4.5533   YZ=              1.4959

 Normal termination of Gaussian 16 at Wed May  5 22:00:59 2021.
