 Gaussian 16, Revision A.03,
 Gaussian 16:  EM64L-G16RevA.03 25-Dec-2016

 -------------
 #p 6-31g* mp2
 -------------

 ------------------------------------------------------
 Input file generated by CHIRIPA (05-May-2021 14:57:22)
 ------------------------------------------------------
 Symbolic Z-matrix:
 Charge =  0 Multiplicity = 1

                         Standard orientation:
 ---------------------------------------------------------------------
 Center     Atomic      Atomic             Coordinates (Angstroms)
 Number     Number       Type             X           Y           Z
 ---------------------------------------------------------------------
      1          6           0        5.356705    0.744543    0.622160
      2          6           0        4.320031    1.645453    0.357226
      3          6           0        3.059058    1.182769   -0.030613
      4          6           0        2.868905   -0.193551   -0.144078
      5          6           0        3.881742   -1.116250    0.112977
      6          6           0        5.134643   -0.631008    0.499407
      7          1           0        6.333123    1.112729    0.922896
      8          1           0        4.489612    2.714263    0.451741
      9          1           0        2.238830    1.858076   -0.241810
     10          1           0        3.682395   -2.176016    0.010146
     11          1           0        5.937885   -1.332988    0.704519
     12          7           0        1.538242   -0.695315   -0.553920
     13          8           0        1.396299   -1.912647   -0.646611
     14          8           0        0.662408    0.138236   -0.774702
     15          6           0       -3.161553   -2.392545    0.382359
     16          6           0       -2.740362   -1.848141   -0.835320
     17          6           0       -2.695754   -0.462531   -1.016000
     18          6           0       -3.081124    0.352874    0.046965
     19          6           0       -3.505386   -0.159286    1.272111
     20          6           0       -3.542050   -1.547870    1.430341
     21          1           0       -3.193120   -3.470076    0.513996
     22          1           0       -2.444283   -2.501708   -1.650938
     23          1           0       -2.373757   -0.014383   -1.948149
     24          1           0       -3.794420    0.517723    2.066804
     25          1           0       -3.869580   -1.967865    2.377110
     26          7           0       -3.038104    1.821331   -0.132430
     27          8           0       -3.382776    2.518175    0.819540
     28          8           0       -2.660528    2.247658   -1.221612
 ---------------------------------------------------------------------

 SCF Done:  E(RHF) =  -868.339223868     A.U. after   16 cycles
 E2 =    -0.2599763312D+01 EUMP2 =    -0.87093898718031D+03

 The electronic state is 1-A.
 Alpha  occ. eigenvalues --  -20.61090 -20.61052 -20.59606 -20.59570 -15.86100
 Alpha  occ. eigenvalues --  -15.84634 -11.31295 -11.29708 -11.27880 -11.27795
 Alpha  occ. eigenvalues --  -11.27574 -11.26854 -11.26794 -11.26408 -11.26216
 Alpha  occ. eigenvalues --  -11.26090 -11.25386 -11.25180  -1.60140  -1.58665
 Alpha  occ. eigenvalues --   -1.39696  -1.38226  -1.19457  -1.17901  -1.08889
 Alpha  occ. eigenvalues --   -1.07367  -1.04831  -1.03277  -0.95751  -0.94243
 Alpha  occ. eigenvalues --   -0.86238  -0.84707  -0.82584  -0.81094  -0.77644
 Alpha  occ. eigenvalues --   -0.76151  -0.72345  -0.71446  -0.70880  -0.70564
 Alpha  occ. eigenvalues --   -0.69959  -0.69079  -0.65112  -0.64833  -0.63586
 Alpha  occ. eigenvalues --   -0.63325  -0.62173  -0.60653  -0.55351  -0.53868
 Alpha  occ. eigenvalues --   -0.53177  -0.52919  -0.51651  -0.51408  -0.49093
 Alpha  occ. eigenvalues --   -0.49035  -0.47636  -0.47606  -0.45138  -0.43697
 Alpha  occ. eigenvalues --   -0.37438  -0.36428  -0.35888  -0.34782
 Alpha virt. eigenvalues --    0.04869   0.06398   0.11228   0.12837   0.16391
 Alpha virt. eigenvalues --    0.17910   0.21393   0.22744   0.27321   0.28280
 Alpha virt. eigenvalues --    0.28676   0.29611   0.30960   0.32205   0.32553

 Mulliken charges:
               1
     1  C   -0.170298
     2  C   -0.218874
     3  C   -0.170985
     4  C    0.157289
     5  C   -0.171117
     6  C   -0.218827
     7  H    0.226262
     8  H    0.225920
     9  H    0.281272
    10  H    0.273769
    11  H    0.223128
    12  N    0.489580
    13  O   -0.465597
    14  O   -0.459468
    15  C   -0.170032
    16  C   -0.212446
    17  C   -0.146779
    18  C    0.156016
    19  C   -0.173367
    20  C   -0.220869
    21  H    0.220845
    22  H    0.223259
    23  H    0.276049
    24  H    0.269439
    25  H    0.216551
    26  N    0.488835
    27  O   -0.468639
    28  O   -0.460917
 Sum of Mulliken charges =  -0.00000

 Dipole moment (field-independent basis, Debye):
    X=              4.8993    Y=             -3.3683    Z=              1.8372  Tot=              6.2229
 Quadrupole moment (field-independent basis, Debye-Ang):
   XX=            -78.2250   YY=           -105.7389   ZZ=           -101.9458
   XY=             18.6647   XZ=              0.7457   YZ=             -0.0883

 Normal termination of Gaussian 16 at Thu May  6 14:31:24 2021.
