 Gaussian 16, Revision A.03,
 Gaussian 16:  EM64L-G16RevA.03 25-Dec-2016

 -------------
 #p 6-31g* mp2
 -------------

 ------------------------------------------------------
 Input file generated by CHIRIPA (05-May-2021 14:57:21)
 ------------------------------------------------------
 Symbolic Z-matrix:
 Charge =  0 Multiplicity = 1

                         Standard orientation:
 ---------------------------------------------------------------------
 Center     Atomic      Atomic             Coordinates (Angstroms)
 Number     Number       Type             X           Y           Z
 ---------------------------------------------------------------------
      1          6           0       -0.761644   -1.643580    1.282244
      2          6           0       -0.809214   -1.535685   -0.111534
      3          6           0       -1.877686   -0.886654   -0.737371
      4          6           0       -2.886033   -0.354702    0.064848
      5          6           0       -2.867118   -0.445996    1.455746
      6          6           0       -1.788937   -1.099351    2.060064
      7          1           0        0.072142   -2.149443    1.760051
      8          1           0       -0.012808   -1.957391   -0.718120
      9          1           0       -1.939643   -0.788826   -1.814408
     10          1           0       -3.675800   -0.015602    2.033857
     11          1           0       -1.754628   -1.181645    3.142698
     12          7           0       -4.022316    0.334687   -0.586308
     13          8           0       -4.898188    0.794881    0.142875
     14          8           0       -4.015547    0.401783   -1.813536
     15          6           0        1.435867    2.607034    0.271606
     16          6           0        1.087206    1.801295   -0.817312
     17          6           0        1.780030    0.614162   -1.072769
     18          6           0        2.820851    0.261559   -0.215068
     19          6           0        3.191955    1.043126    0.877967
     20          6           0        2.485278    2.226049    1.114284
     21          1           0        0.892284    3.527593    0.462616
     22          1           0        0.272658    2.094678   -1.473424
     23          1           0        1.531043   -0.028330   -1.908609
     24          1           0        4.008550    0.724371    1.514353
     25          1           0        2.758246    2.849835    1.960703
     26          7           0        3.561646   -0.992978   -0.475378
     27          8           0        4.474716   -1.281422    0.295166
     28          8           0        3.215182   -1.664086   -1.445024
 ---------------------------------------------------------------------

 SCF Done:  E(RHF) =  -868.338079715     A.U. after   16 cycles
 E2 =    -0.2602316409D+01 EUMP2 =    -0.87094039612446D+03

 The electronic state is 1-A.
 Alpha  occ. eigenvalues --  -20.61631 -20.61608 -20.61140 -20.61129 -15.86645
 Alpha  occ. eigenvalues --  -15.86185 -11.31794 -11.31474 -11.28369 -11.28331
 Alpha  occ. eigenvalues --  -11.27999 -11.27987 -11.27971 -11.27629 -11.27275
 Alpha  occ. eigenvalues --  -11.27227 -11.26989 -11.26907  -1.60693  -1.60218
 Alpha  occ. eigenvalues --   -1.40253  -1.39773  -1.19950  -1.19602  -1.09363
 Alpha  occ. eigenvalues --   -1.09000  -1.05336  -1.04975  -0.96241  -0.95858
 Alpha  occ. eigenvalues --   -0.86740  -0.86368  -0.83078  -0.82695  -0.78187
 Alpha  occ. eigenvalues --   -0.77760  -0.72858  -0.72399  -0.72027  -0.71548
 Alpha  occ. eigenvalues --   -0.71045  -0.70677  -0.65593  -0.65346  -0.65239
 Alpha  occ. eigenvalues --   -0.64931  -0.62742  -0.62272  -0.55786  -0.55436
 Alpha  occ. eigenvalues --   -0.53977  -0.53426  -0.53075  -0.52964  -0.49641
 Alpha  occ. eigenvalues --   -0.49594  -0.49166  -0.49147  -0.45690  -0.45196
 Alpha  occ. eigenvalues --   -0.38021  -0.37551  -0.37319  -0.35986
 Alpha virt. eigenvalues --    0.04229   0.04827   0.10227   0.11526   0.15739
 Alpha virt. eigenvalues --    0.16436   0.20184   0.21676   0.25618   0.27258
 Alpha virt. eigenvalues --    0.27972   0.28890   0.29803   0.31054   0.32119

 Mulliken charges:
               1
     1  C   -0.171329
     2  C   -0.221058
     3  C   -0.177464
     4  C    0.158039
     5  C   -0.172884
     6  C   -0.218136
     7  H    0.230175
     8  H    0.234487
     9  H    0.272345
    10  H    0.274922
    11  H    0.223889
    12  N    0.487453
    13  O   -0.459919
    14  O   -0.462190
    15  C   -0.170057
    16  C   -0.214575
    17  C   -0.171247
    18  C    0.155611
    19  C   -0.172871
    20  C   -0.218688
    21  H    0.229762
    22  H    0.228888
    23  H    0.270310
    24  H    0.275411
    25  H    0.224934
    26  N    0.487017
    27  O   -0.457499
    28  O   -0.465329
 Sum of Mulliken charges =  -0.00000

 Dipole moment (field-independent basis, Debye):
    X=              1.4737    Y=              2.0928    Z=              3.3350  Tot=              4.2041
 Quadrupole moment (field-independent basis, Debye-Ang):
   XX=           -141.7799   YY=           -101.3223   ZZ=            -98.1314
   XY=             17.8024   XZ=             -2.6091   YZ=             -0.0737

 Normal termination of Gaussian 16 at Wed May  5 17:43:08 2021.
