 Gaussian 16, Revision A.03,
 Gaussian 16:  EM64L-G16RevA.03 25-Dec-2016

 -------------
 #p 6-31g* mp2
 -------------

 ------------------------------------------------------
 Input file generated by CHIRIPA (05-May-2021 14:51:08)
 ------------------------------------------------------
 Symbolic Z-matrix:
 Charge =  0 Multiplicity = 1

                         Standard orientation:
 ---------------------------------------------------------------------
 Center     Atomic      Atomic             Coordinates (Angstroms)
 Number     Number       Type             X           Y           Z
 ---------------------------------------------------------------------
      1          6           0       -2.738579    0.780276   -0.410389
      2          6           0       -3.556196    1.996858    0.024833
      3          6           0       -2.788941    3.310444   -0.128802
      4          1           0       -1.813571    0.737577    0.180781
      5          1           0       -2.434108    0.907724   -1.458458
      6          1           0       -3.860204    1.866514    1.071354
      7          1           0       -4.479455    2.036558   -0.567309
      8          1           0       -2.498730    3.467244   -1.172733
      9          1           0       -1.875961    3.296234    0.475239
     10          1           0       -3.392032    4.167053    0.187996
     11          6           0       -3.492090   -0.540379   -0.262681
     12          6           0       -2.674473   -1.756960   -0.697903
     13          6           0       -3.441728   -3.070547   -0.544268
     14          1           0       -3.796560   -0.667827    0.785389
     15          1           0       -4.417098   -0.497680   -0.853851
     16          1           0       -1.751214   -1.796661   -0.105761
     17          1           0       -2.370464   -1.626617   -1.744423
     18          1           0       -4.354708   -3.056337   -1.148309
     19          1           0       -3.731939   -3.227347    0.499664
     20          1           0       -2.838636   -3.927156   -0.861066
     21          6           0        3.594076    0.315624   -0.069069
     22          6           0        4.916022   -0.379318   -0.396940
     23          6           0        5.863207    0.504774   -1.208737
     24          1           0        3.104145    0.617929   -1.004763
     25          1           0        3.801952    1.239861    0.487681
     26          1           0        4.705639   -1.302677   -0.951704
     27          1           0        5.402772   -0.680174    0.539637
     28          1           0        6.102217    1.420432   -0.658239
     29          1           0        5.401123    0.794391   -2.158053
     30          1           0        6.801978   -0.011682   -1.431994
     31          6           0        2.636592   -0.555521    0.742138
     32          6           0        1.314647    0.139421    1.070010
     33          6           0        0.367461   -0.744671    1.881807
     34          1           0        2.428717   -1.479758    0.185389
     35          1           0        3.126524   -0.857827    1.677833
     36          1           0        0.827897    0.440277    0.133433
     37          1           0        1.525029    1.062781    1.624773
     38          1           0        0.829546   -1.034288    2.831123
     39          1           0        0.128452   -1.660329    1.331309
     40          1           0       -0.571308   -0.228216    2.105064
 ---------------------------------------------------------------------

 SCF Done:  E(RHF) =  -470.732487604     A.U. after   11 cycles
 E2 =    -0.1584154106D+01 EUMP2 =    -0.47231664170970D+03

 The electronic state is 1-A.
 Alpha  occ. eigenvalues --  -11.21656 -11.21617 -11.21580 -11.21515 -11.21438
 Alpha  occ. eigenvalues --  -11.21375 -11.21356 -11.21293 -11.21160 -11.21081
 Alpha  occ. eigenvalues --  -11.21055 -11.21036  -1.08482  -1.08382  -1.03584
 Alpha  occ. eigenvalues --   -1.03494  -0.96045  -0.95940  -0.87057  -0.86961
 Alpha  occ. eigenvalues --   -0.79681  -0.79526  -0.78295  -0.78200  -0.65234
 Alpha  occ. eigenvalues --   -0.64939  -0.61074  -0.60816  -0.59418  -0.59315
 Alpha  occ. eigenvalues --   -0.57738  -0.57482  -0.55336  -0.55230  -0.52748
 Alpha  occ. eigenvalues --   -0.52627  -0.52503  -0.52330  -0.50097  -0.49806
 Alpha  occ. eigenvalues --   -0.47992  -0.47858  -0.46825  -0.46390  -0.45929
 Alpha  occ. eigenvalues --   -0.45741  -0.45680  -0.45508  -0.43826  -0.43744
 Alpha virt. eigenvalues --    0.20630   0.23047   0.23905   0.24260   0.26279
 Alpha virt. eigenvalues --    0.26562   0.27094   0.27495   0.27779   0.29542
 Alpha virt. eigenvalues --    0.30537   0.31479   0.31791   0.31956   0.32316

 Mulliken charges:
               1
     1  C   -0.308561
     2  C   -0.299246
     3  C   -0.475780
     4  H    0.160856
     5  H    0.148732
     6  H    0.151416
     7  H    0.151955
     8  H    0.155074
     9  H    0.155243
    10  H    0.160168
    11  C   -0.297045
    12  C   -0.307939
    13  C   -0.475262
    14  H    0.149007
    15  H    0.149522
    16  H    0.160886
    17  H    0.150839
    18  H    0.155024
    19  H    0.155250
    20  H    0.159571
    21  C   -0.298457
    22  C   -0.299717
    23  C   -0.475737
    24  H    0.150051
    25  H    0.149591
    26  H    0.152007
    27  H    0.151941
    28  H    0.155224
    29  H    0.155271
    30  H    0.160306
    31  C   -0.298209
    32  C   -0.303883
    33  C   -0.481428
    34  H    0.149876
    35  H    0.149749
    36  H    0.155762
    37  H    0.152054
    38  H    0.156538
    39  H    0.158593
    40  H    0.160757
 Sum of Mulliken charges =  -0.00000

 Dipole moment (field-independent basis, Debye):
    X=              0.0500    Y=             -0.0008    Z=              0.0175  Tot=              0.0530
 Quadrupole moment (field-independent basis, Debye-Ang):
   XX=            -85.4374   YY=            -86.0381   ZZ=            -83.4873
   XY=             -0.7507   XZ=              1.1292   YZ=              0.5474

 Normal termination of Gaussian 16 at Wed May  5 16:36:16 2021.
