 Gaussian 16, Revision A.03,
 Gaussian 16:  EM64L-G16RevA.03 25-Dec-2016

 -------------
 #p 6-31g* mp2
 -------------

 ------------------------------------------------------
 Input file generated by CHIRIPA (05-May-2021 14:51:13)
 ------------------------------------------------------
 Symbolic Z-matrix:
 Charge =  0 Multiplicity = 1

                         Standard orientation:
 ---------------------------------------------------------------------
 Center     Atomic      Atomic             Coordinates (Angstroms)
 Number     Number       Type             X           Y           Z
 ---------------------------------------------------------------------
      1          6           0       -2.762763   -0.888213   -0.048575
      2          6           0       -1.486728   -0.437539    0.663192
      3          6           0       -0.290817   -1.341101    0.361249
      4          1           0       -2.996285   -1.919629    0.249072
      5          1           0       -2.582041   -0.908920   -1.132229
      6          1           0       -1.670222   -0.416358    1.745087
      7          1           0       -1.256322    0.592990    0.363964
      8          1           0       -0.079502   -1.354356   -0.712889
      9          1           0       -0.495754   -2.369440    0.676082
     10          1           0        0.610674   -1.000693    0.880186
     11          6           0       -3.967079    0.005153    0.243399
     12          6           0       -5.243114   -0.445521   -0.468368
     13          6           0       -6.439024    0.458040   -0.166425
     14          1           0       -4.147801    0.025860    1.327052
     15          1           0       -3.733556    1.036569   -0.054248
     16          1           0       -5.473520   -1.476051   -0.169140
     17          1           0       -5.059620   -0.466702   -1.550264
     18          1           0       -6.234088    1.486380   -0.481258
     19          1           0       -6.650340    0.471296    0.907712
     20          1           0       -7.340516    0.117633   -0.685363
     21          6           0        3.842536   -0.080881    0.189646
     22          6           0        3.831585   -1.401195   -0.581482
     23          6           0        4.792179   -2.436216    0.004847
     24          1           0        4.863294    0.325292    0.194194
     25          1           0        3.578578   -0.274698    1.238529
     26          1           0        4.094135   -1.204753   -1.628905
     27          1           0        2.810696   -1.804175   -0.584358
     28          1           0        4.528941   -2.661267    1.043433
     29          1           0        5.819673   -2.058439   -0.007050
     30          1           0        4.768321   -3.372350   -0.561673
     31          6           0        2.887306    0.963942   -0.384470
     32          6           0        2.898257    2.284255    0.386659
     33          6           0        1.937664    3.319277   -0.199671
     34          1           0        3.151264    1.157759   -1.433353
     35          1           0        1.866547    0.557769   -0.389017
     36          1           0        3.919146    2.687235    0.389535
     37          1           0        2.635707    2.087814    1.434081
     38          1           0        0.910170    2.941500   -0.187774
     39          1           0        2.200901    3.544327   -1.238256
     40          1           0        1.961520    4.255410    0.366850
 ---------------------------------------------------------------------

 SCF Done:  E(RHF) =  -470.732651316     A.U. after   11 cycles
 E2 =    -0.1583826512D+01 EUMP2 =    -0.47231647782832D+03

 The electronic state is 1-A.
 Alpha  occ. eigenvalues --  -11.21716 -11.21635 -11.21560 -11.21502 -11.21467
 Alpha  occ. eigenvalues --  -11.21402 -11.21334 -11.21237 -11.21176 -11.21095
 Alpha  occ. eigenvalues --  -11.21064 -11.21009  -1.08503  -1.08366  -1.03606
 Alpha  occ. eigenvalues --   -1.03475  -0.96075  -0.95916  -0.87083  -0.86945
 Alpha  occ. eigenvalues --   -0.79682  -0.79535  -0.78308  -0.78175  -0.65204
 Alpha  occ. eigenvalues --   -0.64991  -0.61017  -0.60861  -0.59427  -0.59294
 Alpha  occ. eigenvalues --   -0.57689  -0.57521  -0.55407  -0.55173  -0.52787
 Alpha  occ. eigenvalues --   -0.52597  -0.52496  -0.52331  -0.50037  -0.49847
 Alpha  occ. eigenvalues --   -0.47984  -0.47857  -0.46732  -0.46554  -0.45874
 Alpha  occ. eigenvalues --   -0.45771  -0.45701  -0.45562  -0.43810  -0.43706
 Alpha virt. eigenvalues --    0.20339   0.22771   0.23532   0.24615   0.25934
 Alpha virt. eigenvalues --    0.26519   0.26797   0.27258   0.28064   0.29770
 Alpha virt. eigenvalues --    0.30008   0.31235   0.31741   0.31925   0.32369

 Mulliken charges:
               1
     1  C   -0.298585
     2  C   -0.302848
     3  C   -0.480777
     4  H    0.150044
     5  H    0.150031
     6  H    0.152567
     7  H    0.152967
     8  H    0.156548
     9  H    0.156457
    10  H    0.163907
    11  C   -0.298396
    12  C   -0.299718
    13  C   -0.475763
    14  H    0.149644
    15  H    0.149866
    16  H    0.151996
    17  H    0.152083
    18  H    0.155332
    19  H    0.155224
    20  H    0.160389
    21  C   -0.298265
    22  C   -0.304644
    23  C   -0.475397
    24  H    0.149678
    25  H    0.148277
    26  H    0.151322
    27  H    0.158326
    28  H    0.154904
    29  H    0.154810
    30  H    0.160025
    31  C   -0.307329
    32  C   -0.299041
    33  C   -0.476510
    34  H    0.148817
    35  H    0.160425
    36  H    0.151840
    37  H    0.151300
    38  H    0.155108
    39  H    0.155133
    40  H    0.160253
 Sum of Mulliken charges =  -0.00000

 Dipole moment (field-independent basis, Debye):
    X=             -0.0662    Y=             -0.0309    Z=             -0.0060  Tot=              0.0733
 Quadrupole moment (field-independent basis, Debye-Ang):
   XX=            -85.6760   YY=            -85.4103   ZZ=            -83.8888
   XY=              1.4798   XZ=             -0.7438   YZ=             -0.5006

 Normal termination of Gaussian 16 at Thu May  6 02:24:36 2021.
