 Gaussian 16, Revision A.03,
 Gaussian 16:  EM64L-G16RevA.03 25-Dec-2016

 -------------
 #p 6-31g* mp2
 -------------

 ------------------------------------------------------
 Input file generated by CHIRIPA (05-May-2021 14:57:23)
 ------------------------------------------------------
 Symbolic Z-matrix:
 Charge =  0 Multiplicity = 1

                         Standard orientation:
 ---------------------------------------------------------------------
 Center     Atomic      Atomic             Coordinates (Angstroms)
 Number     Number       Type             X           Y           Z
 ---------------------------------------------------------------------
      1          6           0       -3.598468    2.522533    0.419867
      2          6           0       -2.582051    1.574493    0.576827
      3          6           0       -2.837000    0.217389    0.358153
      4          6           0       -4.125627   -0.158230   -0.018197
      5          6           0       -5.159344    0.762451   -0.182718
      6          6           0       -4.881608    2.114207    0.041263
      7          1           0       -3.391567    3.574687    0.591800
      8          1           0       -1.584604    1.888718    0.870777
      9          1           0       -2.068684   -0.537620    0.472485
     10          1           0       -6.143705    0.418802   -0.476583
     11          1           0       -5.672916    2.848259   -0.081387
     12          7           0       -4.407592   -1.592104   -0.252507
     13          8           0       -5.551270   -1.897347   -0.583362
     14          8           0       -3.479579   -2.383580   -0.100868
     15          6           0        1.580594   -0.337310    0.216047
     16          6           0        2.428347   -0.754327    1.247519
     17          6           0        3.814295   -0.615540    1.127367
     18          6           0        4.320708   -0.053030   -0.043281
     19          6           0        3.502123    0.372015   -1.088529
     20          6           0        2.119238    0.223541   -0.946636
     21          1           0        0.505146   -0.448887    0.317828
     22          1           0        2.012827   -1.190234    2.151605
     23          1           0        4.493584   -0.929942    1.910397
     24          1           0        3.945815    0.802924   -1.977840
     25          1           0        1.463272    0.548284   -1.749316
     26          7           0        5.786327    0.099026   -0.181988
     27          8           0        6.207588    0.597660   -1.223401
     28          8           0        6.486066   -0.283307    0.753331
 ---------------------------------------------------------------------

 SCF Done:  E(RHF) =  -868.336961188     A.U. after   16 cycles
 E2 =    -0.2599721006D+01 EUMP2 =    -0.87093668219425D+03

 The electronic state is 1-A.
 Alpha  occ. eigenvalues --  -20.61538 -20.61518 -20.61015 -20.61010 -15.86587
 Alpha  occ. eigenvalues --  -15.86070 -11.32048 -11.31525 -11.28738 -11.28546
 Alpha  occ. eigenvalues --  -11.28306 -11.28085 -11.28073 -11.27957 -11.27684
 Alpha  occ. eigenvalues --  -11.27562 -11.27164 -11.27143  -1.60602  -1.60088
 Alpha  occ. eigenvalues --   -1.40155  -1.39638  -1.20210  -1.19707  -1.09569
 Alpha  occ. eigenvalues --   -1.09108  -1.05643  -1.05111  -0.96403  -0.95927
 Alpha  occ. eigenvalues --   -0.87021  -0.86515  -0.83246  -0.82745  -0.78296
 Alpha  occ. eigenvalues --   -0.77757  -0.72802  -0.72287  -0.71926  -0.71411
 Alpha  occ. eigenvalues --   -0.71359  -0.70841  -0.65862  -0.65635  -0.65366
 Alpha  occ. eigenvalues --   -0.65116  -0.63009  -0.62446  -0.56124  -0.55660
 Alpha  occ. eigenvalues --   -0.53938  -0.53729  -0.53443  -0.53206  -0.49569
 Alpha  occ. eigenvalues --   -0.49551  -0.49054  -0.49036  -0.45541  -0.45023
 Alpha  occ. eigenvalues --   -0.38154  -0.37727  -0.37246  -0.36703
 Alpha virt. eigenvalues --    0.04258   0.04749   0.10414   0.10941   0.15733
 Alpha virt. eigenvalues --    0.16164   0.17940   0.21905   0.24506   0.26911
 Alpha virt. eigenvalues --    0.27204   0.29629   0.29901   0.30825   0.32280

 Mulliken charges:
               1
     1  C   -0.170431
     2  C   -0.220364
     3  C   -0.180355
     4  C    0.162169
     5  C   -0.169703
     6  C   -0.217915
     7  H    0.228816
     8  H    0.222238
     9  H    0.271498
    10  H    0.278303
    11  H    0.226855
    12  N    0.487930
    13  O   -0.456702
    14  O   -0.462057
    15  C   -0.175368
    16  C   -0.219676
    17  C   -0.170401
    18  C    0.159182
    19  C   -0.170477
    20  C   -0.220633
    21  H    0.223424
    22  H    0.225810
    23  H    0.277163
    24  H    0.276762
    25  H    0.224776
    26  N    0.487865
    27  O   -0.459526
    28  O   -0.459183
 Sum of Mulliken charges =  -0.00000

 Dipole moment (field-independent basis, Debye):
    X=             -4.2837    Y=              4.5902    Z=              1.2851  Tot=              6.4087
 Quadrupole moment (field-independent basis, Debye-Ang):
   XX=           -151.7608   YY=           -106.2695   ZZ=           -101.4158
   XY=            -25.1731   XZ=              0.8956   YZ=             -2.6507

 Normal termination of Gaussian 16 at Thu May  6 19:34:47 2021.
