 Gaussian 16, Revision A.03,
 Gaussian 16:  EM64L-G16RevA.03 25-Dec-2016

 -------------
 #p 6-31g* mp2
 -------------

 ------------------------------------------------------
 Input file generated by CHIRIPA (05-May-2021 14:53:15)
 ------------------------------------------------------
 Symbolic Z-matrix:
 Charge =  0 Multiplicity = 1

                         Standard orientation:
 ---------------------------------------------------------------------
 Center     Atomic      Atomic             Coordinates (Angstroms)
 Number     Number       Type             X           Y           Z
 ---------------------------------------------------------------------
      1          6           0       -4.068909   -0.703482   -0.146428
      2          6           0       -4.832004    0.584596    0.164257
      3          6           0       -6.343170    0.433854   -0.013083
      4          1           0       -4.289480   -1.013291   -1.177113
      5          1           0       -4.437416   -1.506410    0.506951
      6          1           0       -4.461205    1.385194   -0.488557
      7          1           0       -4.609440    0.891479    1.194259
      8          1           0       -6.732937   -0.345708    0.649462
      9          1           0       -6.583860    0.150812   -1.042916
     10          1           0       -6.869063    1.366400    0.214189
     11          6           0       -2.557054   -0.568626    0.026312
     12          6           0       -1.793959   -1.856704   -0.284373
     13          6           0       -0.282793   -1.705962   -0.107033
     14          1           0       -2.188547    0.234302   -0.627067
     15          1           0       -2.336483   -0.258817    1.056997
     16          1           0       -2.016523   -2.163587   -1.314375
     17          1           0       -2.164758   -2.657302    0.368441
     18          1           0       -0.042103   -1.422920    0.922800
     19          1           0        0.106974   -0.926400   -0.769578
     20          1           0        0.243100   -2.638509   -0.334305
     21          6           0        4.125948   -1.503411    0.059060
     22          6           0        3.895328   -0.804980   -1.130700
     23          6           0        3.045263    0.304794   -1.149183
     24          6           0        2.439609    0.690302    0.045747
     25          6           0        2.649394    0.015026    1.247114
     26          6           0        3.503343   -1.091904    1.242084
     27          1           0        4.787807   -2.364405    0.064286
     28          1           0        4.377496   -1.122296   -2.050955
     29          1           0        2.849090    0.863662   -2.056155
     30          1           0        2.154457    0.355207    2.148631
     31          1           0        3.680597   -1.632411    2.167546
     32          7           0        1.537629    1.863664    0.038626
     33          8           0        1.016111    2.183150    1.104733
     34          8           0        1.369253    2.441642   -1.032928
 ---------------------------------------------------------------------

 SCF Done:  E(RHF) =  -669.534365274     A.U. after   15 cycles
 E2 =    -0.2093602714D+01 EUMP2 =    -0.67162796798857D+03

 The electronic state is 1-A.
 Alpha  occ. eigenvalues --  -20.60779 -20.60767 -15.85815 -11.31112 -11.27715
 Alpha  occ. eigenvalues --  -11.27704 -11.27475 -11.26749 -11.26740 -11.21329
 Alpha  occ. eigenvalues --  -11.21089 -11.20958 -11.20927 -11.20866 -11.20658
 Alpha  occ. eigenvalues --   -1.59845  -1.39401  -1.19331  -1.08734  -1.08018
 Alpha  occ. eigenvalues --   -1.04737  -1.03183  -0.95660  -0.95558  -0.86675
 Alpha  occ. eigenvalues --   -0.86137  -0.82409  -0.79253  -0.77805  -0.77457
 Alpha  occ. eigenvalues --   -0.72043  -0.71170  -0.70453  -0.64989  -0.64753
 Alpha  occ. eigenvalues --   -0.64647  -0.62092  -0.60589  -0.59013  -0.57283
 Alpha  occ. eigenvalues --   -0.55245  -0.54952  -0.53386  -0.52835  -0.52292
 Alpha  occ. eigenvalues --   -0.51821  -0.49610  -0.48801  -0.48798  -0.47544
 Alpha  occ. eigenvalues --   -0.46282  -0.45357  -0.45267  -0.44792  -0.43410
 Alpha  occ. eigenvalues --   -0.37236  -0.36291
 Alpha virt. eigenvalues --    0.05051   0.11245   0.16565   0.21378   0.23203
 Alpha virt. eigenvalues --    0.24487   0.26903   0.27290   0.27690   0.28220
 Alpha virt. eigenvalues --    0.28465   0.31000   0.31360   0.31977   0.32201

 Mulliken charges:
               1
     1  C   -0.298176
     2  C   -0.299948
     3  C   -0.475627
     4  H    0.148108
     5  H    0.146965
     6  H    0.155908
     7  H    0.153422
     8  H    0.153357
     9  H    0.154046
    10  H    0.160358
    11  C   -0.300234
    12  C   -0.299673
    13  C   -0.474596
    14  H    0.156341
    15  H    0.152702
    16  H    0.150474
    17  H    0.149262
    18  H    0.152750
    19  H    0.154740
    20  H    0.156205
    21  C   -0.170947
    22  C   -0.216861
    23  C   -0.173222
    24  C    0.162583
    25  C   -0.169635
    26  C   -0.217077
    27  H    0.225370
    28  H    0.223196
    29  H    0.275068
    30  H    0.274695
    31  H    0.223157
    32  N    0.489315
    33  O   -0.460409
    34  O   -0.461616
 Sum of Mulliken charges =  -0.00000

 Dipole moment (field-independent basis, Debye):
    X=              3.2431    Y=             -4.0443    Z=              0.0489  Tot=              5.1843
 Quadrupole moment (field-independent basis, Debye-Ang):
   XX=            -81.3282   YY=           -101.3361   ZZ=            -89.0371
   XY=             -8.2818   XZ=             -0.8843   YZ=             -1.1483

 Normal termination of Gaussian 16 at Thu May  6 05:54:50 2021.
