 Gaussian 16, Revision A.03,
 Gaussian 16:  EM64L-G16RevA.03 25-Dec-2016

 -------------
 #p 6-31g* mp2
 -------------

 ------------------------------------------------------
 Input file generated by CHIRIPA (05-May-2021 14:55:24)
 ------------------------------------------------------
 Symbolic Z-matrix:
 Charge =  0 Multiplicity = 1

                         Standard orientation:
 ---------------------------------------------------------------------
 Center     Atomic      Atomic             Coordinates (Angstroms)
 Number     Number       Type             X           Y           Z
 ---------------------------------------------------------------------
      1          6           0        0.891311   -1.599822    0.894123
      2          6           0        2.000262   -2.107264    0.209103
      3          6           0        3.026459   -1.255498   -0.210375
      4          6           0        2.910688    0.104449    0.073230
      5          6           0        1.818434    0.640285    0.753783
      6          6           0        0.804090   -0.230082    1.163801
      7          1           0        0.098740   -2.268719    1.216309
      8          1           0        2.070669   -3.170582   -0.001712
      9          1           0        3.896109   -1.621642   -0.742414
     10          1           0        1.776386    1.704891    0.949395
     11          1           0       -0.055969    0.166802    1.695616
     12          7           0        3.990803    1.016022   -0.365845
     13          8           0        3.865053    2.210221   -0.103714
     14          8           0        4.942695    0.519052   -0.963809
     15          6           0       -3.137523   -0.567002    0.063091
     16          6           0       -3.471289   -1.821633   -0.744676
     17          6           0       -2.742819   -3.064961   -0.233537
     18          1           0       -2.052633   -0.396667    0.032330
     19          1           0       -3.397314   -0.738005    1.116970
     20          1           0       -3.212230   -1.647819   -1.796955
     21          1           0       -4.555532   -1.988893   -0.712146
     22          1           0       -3.009246   -3.266164    0.809120
     23          1           0       -1.658312   -2.923153   -0.281852
     24          1           0       -2.995909   -3.950211   -0.825263
     25          6           0       -3.858118    0.684223   -0.435814
     26          6           0       -3.524351    1.938853    0.371952
     27          6           0       -4.252821    3.182181   -0.139187
     28          1           0       -3.598327    0.855225   -1.489694
     29          1           0       -4.943007    0.513887   -0.405053
     30          1           0       -2.440109    2.106113    0.339423
     31          1           0       -3.783410    1.765040    1.424232
     32          1           0       -5.337328    3.040372   -0.090872
     33          1           0       -3.986395    3.383384   -1.181844
     34          1           0       -3.999732    4.067431    0.452540
 ---------------------------------------------------------------------

 SCF Done:  E(RHF) =  -669.535306730     A.U. after   15 cycles
 E2 =    -0.2092850640D+01 EUMP2 =    -0.67162815736990D+03

 The electronic state is 1-A.
 Alpha  occ. eigenvalues --  -20.60783 -20.60778 -15.85837 -11.31215 -11.27783
 Alpha  occ. eigenvalues --  -11.27776 -11.27472 -11.26789 -11.26760 -11.22427
 Alpha  occ. eigenvalues --  -11.22276 -11.22223 -11.22106 -11.22039 -11.21547
 Alpha  occ. eigenvalues --   -1.59859  -1.39412  -1.19387  -1.09200  -1.08771
 Alpha  occ. eigenvalues --   -1.04787  -1.04285  -0.96745  -0.95608  -0.87765
 Alpha  occ. eigenvalues --   -0.86180  -0.82439  -0.80367  -0.79036  -0.77481
 Alpha  occ. eigenvalues --   -0.72054  -0.71182  -0.70498  -0.65837  -0.65031
 Alpha  occ. eigenvalues --   -0.64761  -0.62131  -0.61675  -0.60117  -0.58378
 Alpha  occ. eigenvalues --   -0.56109  -0.55226  -0.53420  -0.53156  -0.53127
 Alpha  occ. eigenvalues --   -0.52857  -0.50674  -0.48815  -0.48809  -0.48665
 Alpha  occ. eigenvalues --   -0.47380  -0.46552  -0.46457  -0.44815  -0.44528
 Alpha  occ. eigenvalues --   -0.37318  -0.36379
 Alpha virt. eigenvalues --    0.05002   0.11099   0.16368   0.20320   0.22570
 Alpha virt. eigenvalues --    0.23280   0.25354   0.26089   0.26384   0.28384
 Alpha virt. eigenvalues --    0.29590   0.30597   0.30947   0.31292   0.32144

 Mulliken charges:
               1
     1  C   -0.172607
     2  C   -0.220344
     3  C   -0.170590
     4  C    0.158581
     5  C   -0.172563
     6  C   -0.221148
     7  H    0.231531
     8  H    0.223932
     9  H    0.275748
    10  H    0.275702
    11  H    0.227420
    12  N    0.488075
    13  O   -0.460330
    14  O   -0.460338
    15  C   -0.307614
    16  C   -0.298368
    17  C   -0.481957
    18  H    0.151971
    19  H    0.146197
    20  H    0.156138
    21  H    0.155248
    22  H    0.153663
    23  H    0.150533
    24  H    0.165124
    25  C   -0.297913
    26  C   -0.300879
    27  C   -0.476086
    28  H    0.153080
    29  H    0.151908
    30  H    0.148682
    31  H    0.150697
    32  H    0.156580
    33  H    0.157858
    34  H    0.162070
 Sum of Mulliken charges =  -0.00000

 Dipole moment (field-independent basis, Debye):
    X=             -3.9242    Y=             -3.1697    Z=              1.4595  Tot=              5.2513
 Quadrupole moment (field-independent basis, Debye-Ang):
   XX=           -115.2598   YY=            -93.4120   ZZ=            -94.0763
   XY=            -11.5855   XZ=              2.8709   YZ=              1.8556

 Normal termination of Gaussian 16 at Thu May  6 14:20:54 2021.
