 Gaussian 16, Revision A.03,
 Gaussian 16:  EM64L-G16RevA.03 25-Dec-2016

 -------------
 #p 6-31g* mp2
 -------------

 ------------------------------------------------------
 Input file generated by CHIRIPA (05-May-2021 14:57:23)
 ------------------------------------------------------
 Symbolic Z-matrix:
 Charge =  0 Multiplicity = 1

                         Standard orientation:
 ---------------------------------------------------------------------
 Center     Atomic      Atomic             Coordinates (Angstroms)
 Number     Number       Type             X           Y           Z
 ---------------------------------------------------------------------
      1          6           0        5.044703    1.787452    0.512341
      2          6           0        5.502285    0.708500   -0.251204
      3          6           0        4.642334   -0.343307   -0.580955
      4          6           0        3.325135   -0.283458   -0.128524
      5          6           0        2.839443    0.777793    0.633801
      6          6           0        3.717083    1.818600    0.951633
      7          1           0        5.719604    2.600248    0.763870
      8          1           0        6.532819    0.681644   -0.593728
      9          1           0        4.970291   -1.190716   -1.170667
     10          1           0        1.806756    0.776481    0.960867
     11          1           0        3.358964    2.655259    1.544759
     12          7           0        2.405381   -1.391136   -0.471307
     13          8           0        1.249485   -1.314699   -0.060576
     14          8           0        2.857788   -2.314798   -1.144222
     15          6           0       -4.129146    2.415706   -0.690817
     16          6           0       -5.073840    1.384190   -0.697718
     17          6           0       -4.723497    0.097731   -0.277202
     18          6           0       -3.413648   -0.122889    0.145778
     19          6           0       -2.449782    0.884045    0.164218
     20          6           0       -2.822436    2.162787   -0.260629
     21          1           0       -4.409967    3.412061   -1.019166
     22          1           0       -6.089383    1.577708   -1.031288
     23          1           0       -5.434868   -0.719180   -0.272342
     24          1           0       -1.445179    0.660565    0.502220
     25          1           0       -2.086680    2.961953   -0.254199
     26          7           0       -3.030945   -1.480719    0.593253
     27          8           0       -1.870433   -1.649276    0.961271
     28          8           0       -3.898742   -2.350721    0.567492
 ---------------------------------------------------------------------

 SCF Done:  E(RHF) =  -868.335399681     A.U. after   16 cycles
 E2 =    -0.2600870385D+01 EUMP2 =    -0.87093627006557D+03

 The electronic state is 1-A.
 Alpha  occ. eigenvalues --  -20.60417 -20.60363 -20.59903 -20.59786 -15.85439
 Alpha  occ. eigenvalues --  -15.84897 -11.31104 -11.30609 -11.27756 -11.27674
 Alpha  occ. eigenvalues --  -11.27481 -11.27234 -11.27222 -11.27066 -11.26805
 Alpha  occ. eigenvalues --  -11.26748 -11.26356 -11.26319  -1.59464  -1.58921
 Alpha  occ. eigenvalues --   -1.39009  -1.38457  -1.19299  -1.18825  -1.08634
 Alpha  occ. eigenvalues --   -1.08162  -1.04750  -1.04287  -0.95422  -0.94932
 Alpha  occ. eigenvalues --   -0.86132  -0.85665  -0.82256  -0.81757  -0.77276
 Alpha  occ. eigenvalues --   -0.76728  -0.71681  -0.71049  -0.70805  -0.70405
 Alpha  occ. eigenvalues --   -0.70247  -0.69936  -0.64942  -0.64757  -0.64469
 Alpha  occ. eigenvalues --   -0.64306  -0.62107  -0.61626  -0.55229  -0.54790
 Alpha  occ. eigenvalues --   -0.53055  -0.52850  -0.52591  -0.52391  -0.48437
 Alpha  occ. eigenvalues --   -0.48398  -0.47913  -0.47832  -0.44349  -0.43773
 Alpha  occ. eigenvalues --   -0.37284  -0.36829  -0.36366  -0.35904
 Alpha virt. eigenvalues --    0.05279   0.05800   0.11283   0.11750   0.16726
 Alpha virt. eigenvalues --    0.17214   0.20366   0.22004   0.25224   0.27607
 Alpha virt. eigenvalues --    0.28041   0.29275   0.30337   0.31560   0.32018

 Mulliken charges:
               1
     1  C   -0.171431
     2  C   -0.218275
     3  C   -0.170766
     4  C    0.159390
     5  C   -0.172025
     6  C   -0.218741
     7  H    0.224803
     8  H    0.223407
     9  H    0.276545
    10  H    0.272129
    11  H    0.220914
    12  N    0.488928
    13  O   -0.453440
    14  O   -0.460695
    15  C   -0.171449
    16  C   -0.218866
    17  C   -0.170817
    18  C    0.158405
    19  C   -0.171425
    20  C   -0.219111
    21  H    0.222673
    22  H    0.221555
    23  H    0.275233
    24  H    0.280544
    25  H    0.217524
    26  N    0.486998
    27  O   -0.446394
    28  O   -0.465612
 Sum of Mulliken charges =  -0.00000

 Dipole moment (field-independent basis, Debye):
    X=              2.0259    Y=              8.4091    Z=             -0.3446  Tot=              8.6566
 Quadrupole moment (field-independent basis, Debye-Ang):
   XX=            -68.3585   YY=           -108.1203   ZZ=           -105.7743
   XY=             -4.2121   XZ=              7.6787   YZ=              1.6609

 Normal termination of Gaussian 16 at Thu May  6 09:46:09 2021.
