 Gaussian 16, Revision A.03,
 Gaussian 16:  EM64L-G16RevA.03 25-Dec-2016

 -------------
 #p 6-31g* mp2
 -------------

 ------------------------------------------------------
 Input file generated by CHIRIPA (05-May-2021 14:57:22)
 ------------------------------------------------------
 Symbolic Z-matrix:
 Charge =  0 Multiplicity = 1

                         Standard orientation:
 ---------------------------------------------------------------------
 Center     Atomic      Atomic             Coordinates (Angstroms)
 Number     Number       Type             X           Y           Z
 ---------------------------------------------------------------------
      1          6           0       -2.050462    1.273122    0.776913
      2          6           0       -3.134176    1.929184    0.183897
      3          6           0       -4.258475    1.209817   -0.232049
      4          6           0       -4.265473   -0.170720   -0.038767
      5          6           0       -3.201389   -0.853079    0.548942
      6          6           0       -2.087462   -0.113471    0.957225
      7          1           0       -1.181108    1.839805    1.097054
      8          1           0       -3.108203    3.005941    0.042603
      9          1           0       -5.111256    1.692387   -0.693902
     10          1           0       -3.256386   -1.927379    0.676505
     11          1           0       -1.247283   -0.625632    1.417480
     12          7           0       -5.450228   -0.942996   -0.475054
     13          8           0       -5.431820   -2.158461   -0.293556
     14          8           0       -6.374813   -0.318217   -0.990254
     15          6           0        2.125681    1.608026    0.336720
     16          6           0        3.109430    1.924662   -0.605882
     17          6           0        4.191268    1.065187   -0.819139
     18          6           0        4.258202   -0.107819   -0.068895
     19          6           0        3.293942   -0.451118    0.877487
     20          6           0        2.220909    0.423235    1.074098
     21          1           0        1.288704    2.281465    0.495918
     22          1           0        3.038059    2.844100   -1.179979
     23          1           0        4.966860    1.285764   -1.542480
     24          1           0        3.392321   -1.374899    1.434594
     25          1           0        1.458385    0.174758    1.806805
     26          7           0        5.398834   -1.025581   -0.285849
     27          8           0        5.434810   -2.052887    0.387935
     28          8           0        6.235287   -0.700240   -1.125572
 ---------------------------------------------------------------------

 SCF Done:  E(RHF) =  -868.335740950     A.U. after   16 cycles
 E2 =    -0.2600457593D+01 EUMP2 =    -0.87093619854295D+03

 The electronic state is 1-A.
 Alpha  occ. eigenvalues --  -20.61352 -20.61345 -20.61289 -20.61283 -15.86413
 Alpha  occ. eigenvalues --  -15.86348 -11.31957 -11.31887 -11.28589 -11.28524
 Alpha  occ. eigenvalues --  -11.28470 -11.28468 -11.28458 -11.28409 -11.27750
 Alpha  occ. eigenvalues --  -11.27622 -11.27596 -11.27568  -1.60422  -1.60360
 Alpha  occ. eigenvalues --   -1.39971  -1.39908  -1.20171  -1.20092  -1.09568
 Alpha  occ. eigenvalues --   -1.09481  -1.05605  -1.05514  -0.96375  -0.96270
 Alpha  occ. eigenvalues --   -0.87035  -0.86909  -0.83205  -0.83088  -0.78184
 Alpha  occ. eigenvalues --   -0.78086  -0.72631  -0.72566  -0.71747  -0.71684
 Alpha  occ. eigenvalues --   -0.71597  -0.71064  -0.65859  -0.65795  -0.65730
 Alpha  occ. eigenvalues --   -0.65424  -0.62992  -0.62804  -0.56500  -0.55840
 Alpha  occ. eigenvalues --   -0.53932  -0.53818  -0.53775  -0.53569  -0.49406
 Alpha  occ. eigenvalues --   -0.49370  -0.49337  -0.49307  -0.45336  -0.45274
 Alpha  occ. eigenvalues --   -0.38265  -0.38047  -0.37200  -0.37086
 Alpha virt. eigenvalues --    0.04314   0.04481   0.10302   0.10629   0.15645
 Alpha virt. eigenvalues --    0.15928   0.16928   0.22391   0.23605   0.24972
 Alpha virt. eigenvalues --    0.27687   0.28820   0.30464   0.31175   0.33275

 Mulliken charges:
               1
     1  C   -0.171830
     2  C   -0.218553
     3  C   -0.169809
     4  C    0.159727
     5  C   -0.169650
     6  C   -0.217892
     7  H    0.216246
     8  H    0.223866
     9  H    0.277967
    10  H    0.278553
    11  H    0.219747
    12  N    0.487842
    13  O   -0.458092
    14  O   -0.458549
    15  C   -0.170542
    16  C   -0.217789
    17  C   -0.169122
    18  C    0.159475
    19  C   -0.169521
    20  C   -0.220233
    21  H    0.218653
    22  H    0.225852
    23  H    0.278594
    24  H    0.277524
    25  H    0.216150
    26  N    0.487963
    27  O   -0.458665
    28  O   -0.457913
 Sum of Mulliken charges =  -0.00000

 Dipole moment (field-independent basis, Debye):
    X=              0.1818    Y=              5.8404    Z=              2.1270  Tot=              6.2183
 Quadrupole moment (field-independent basis, Debye-Ang):
   XX=           -172.0088   YY=           -101.4946   ZZ=           -103.4331
   XY=              1.1950   XZ=             -3.9902   YZ=             -4.9919

 Normal termination of Gaussian 16 at Fri May  7 00:13:37 2021.
