 Gaussian 16, Revision A.03,
 Gaussian 16:  EM64L-G16RevA.03 25-Dec-2016

 -------------
 #p 6-31g* mp2
 -------------

 ------------------------------------------------------
 Input file generated by CHIRIPA (05-May-2021 14:53:15)
 ------------------------------------------------------
 Symbolic Z-matrix:
 Charge =  0 Multiplicity = 1

                         Standard orientation:
 ---------------------------------------------------------------------
 Center     Atomic      Atomic             Coordinates (Angstroms)
 Number     Number       Type             X           Y           Z
 ---------------------------------------------------------------------
      1          6           0        4.188783   -0.661940   -0.413968
      2          6           0        2.814695   -0.042750   -0.156144
      3          6           0        1.665339   -0.952307   -0.591438
      4          1           0        4.285712   -0.891081   -1.484035
      5          1           0        4.256910   -1.620747    0.118425
      6          1           0        2.749689    0.915264   -0.687744
      7          1           0        2.721100    0.185120    0.913403
      8          1           0        1.702026   -1.904357   -0.052128
      9          1           0        1.730778   -1.170064   -1.662372
     10          1           0        0.692277   -0.490125   -0.398051
     11          6           0        5.347945    0.235418    0.015937
     12          6           0        6.722033   -0.383772   -0.241886
     13          6           0        7.871389    0.525785    0.193407
     14          1           0        5.279818    1.194225   -0.516456
     15          1           0        5.251016    0.464559    1.086005
     16          1           0        6.815629   -0.611642   -1.311433
     17          1           0        6.787039   -1.341786    0.289713
     18          1           0        7.805950    0.743542    1.264341
     19          1           0        7.834702    1.477836   -0.345903
     20          1           0        8.844451    0.063603    0.000020
     21          6           0       -6.005648   -0.602939   -0.601922
     22          6           0       -5.530077    0.656518   -0.981555
     23          6           0       -4.268117    1.093278   -0.567734
     24          6           0       -3.504827    0.241007    0.228703
     25          6           0       -3.950825   -1.019359    0.623488
     26          6           0       -5.215896   -1.435390    0.197977
     27          1           0       -6.987177   -0.934173   -0.927929
     28          1           0       -6.141229    1.305126   -1.602721
     29          1           0       -3.875392    2.063420   -0.847036
     30          1           0       -3.318638   -1.643626    1.243204
     31          1           0       -5.582658   -2.414012    0.494336
     32          7           0       -2.167200    0.692414    0.672985
     33          8           0       -1.514125   -0.077263    1.374218
     34          8           0       -1.797172    1.807354    0.311567
 ---------------------------------------------------------------------

 SCF Done:  E(RHF) =  -669.536177242     A.U. after   15 cycles
 E2 =    -0.2090910353D+01 EUMP2 =    -0.67162708759450D+03

 The electronic state is 1-A.
 Alpha  occ. eigenvalues --  -20.60962 -20.60947 -15.85980 -11.31291 -11.27853
 Alpha  occ. eigenvalues --  -11.27849 -11.27591 -11.26857 -11.26847 -11.20988
 Alpha  occ. eigenvalues --  -11.20612 -11.20547 -11.20459 -11.20352 -11.19690
 Alpha  occ. eigenvalues --   -1.60018  -1.39572  -1.19459  -1.08866  -1.07559
 Alpha  occ. eigenvalues --   -1.04852  -1.02599  -0.95709  -0.95058  -0.86254
 Alpha  occ. eigenvalues --   -0.86087  -0.82541  -0.78697  -0.77597  -0.77338
 Alpha  occ. eigenvalues --   -0.72194  -0.71340  -0.70568  -0.65113  -0.64856
 Alpha  occ. eigenvalues --   -0.64199  -0.62199  -0.60007  -0.58450  -0.56635
 Alpha  occ. eigenvalues --   -0.55358  -0.54372  -0.53188  -0.52944  -0.51737
 Alpha  occ. eigenvalues --   -0.51495  -0.49049  -0.48958  -0.48934  -0.46995
 Alpha  occ. eigenvalues --   -0.45751  -0.44984  -0.44877  -0.44798  -0.42827
 Alpha  occ. eigenvalues --   -0.37436  -0.36452
 Alpha virt. eigenvalues --    0.04898   0.11204   0.16394   0.21338   0.23683
 Alpha virt. eigenvalues --    0.25281   0.27257   0.27481   0.28184   0.28354
 Alpha virt. eigenvalues --    0.28952   0.30858   0.32265   0.32435   0.32602

 Mulliken charges:
               1
     1  C   -0.297817
     2  C   -0.297790
     3  C   -0.480040
     4  H    0.146137
     5  H    0.147138
     6  H    0.151662
     7  H    0.157395
     8  H    0.150396
     9  H    0.145189
    10  H    0.177254
    11  C   -0.297674
    12  C   -0.298900
    13  C   -0.475242
    14  H    0.148936
    15  H    0.150018
    16  H    0.150379
    17  H    0.150747
    18  H    0.154962
    19  H    0.154619
    20  H    0.158110
    21  C   -0.170487
    22  C   -0.218619
    23  C   -0.170773
    24  C    0.158823
    25  C   -0.170519
    26  C   -0.218599
    27  H    0.226010
    28  H    0.223812
    29  H    0.275853
    30  H    0.276092
    31  H    0.223881
    32  N    0.487008
    33  O   -0.458575
    34  O   -0.459388
 Sum of Mulliken charges =  -0.00000

 Dipole moment (field-independent basis, Debye):
    X=             -5.0375    Y=             -1.5116    Z=             -1.4701  Tot=              5.4610
 Quadrupole moment (field-independent basis, Debye-Ang):
   XX=            -64.0899   YY=            -92.2318   ZZ=            -94.2771
   XY=              3.6776   XZ=              4.9472   YZ=             -3.8828

 Normal termination of Gaussian 16 at Wed May  5 15:36:57 2021.
