 Gaussian 16, Revision A.03,
 Gaussian 16:  EM64L-G16RevA.03 25-Dec-2016

 -------------
 #p 6-31g* mp2
 -------------

 ------------------------------------------------------
 Input file generated by CHIRIPA (05-May-2021 14:53:12)
 ------------------------------------------------------
 Symbolic Z-matrix:
 Charge =  0 Multiplicity = 1

                         Standard orientation:
 ---------------------------------------------------------------------
 Center     Atomic      Atomic             Coordinates (Angstroms)
 Number     Number       Type             X           Y           Z
 ---------------------------------------------------------------------
      1          6           0        3.816245   -0.200810    0.511222
      2          6           0        4.450798   -1.359569   -0.258586
      3          6           0        4.758477   -2.563230    0.632666
      4          1           0        4.490735    0.104909    1.322730
      5          1           0        2.890648   -0.550492    0.989121
      6          1           0        5.374200   -1.007444   -0.736030
      7          1           0        3.774805   -1.662439   -1.068474
      8          1           0        3.842840   -2.941799    1.098386
      9          1           0        5.451322   -2.283082    1.432719
     10          1           0        5.211541   -3.379915    0.062036
     11          6           0        3.502822    1.009842   -0.366170
     12          6           0        2.868269    2.168602    0.403638
     13          6           0        2.560591    3.372262   -0.487614
     14          1           0        4.428420    1.359524   -0.844069
     15          1           0        2.828333    0.704124   -1.177678
     16          1           0        3.544262    2.471471    1.213526
     17          1           0        1.944868    1.816476    0.881082
     18          1           0        1.867746    3.092115   -1.287667
     19          1           0        3.476228    3.750831   -0.953334
     20          1           0        2.107527    4.188947    0.083016
     21          6           0       -0.600739   -1.337832   -0.527883
     22          6           0       -1.746548   -2.140098   -0.531349
     23          6           0       -3.002968   -1.584691   -0.271582
     24          6           0       -3.077332   -0.217244   -0.011105
     25          6           0       -1.954125    0.608336   -0.000519
     26          6           0       -0.707996    0.031411   -0.262947
     27          1           0        0.371281   -1.777643   -0.730710
     28          1           0       -1.666256   -3.203770   -0.736780
     29          1           0       -3.906241   -2.182607   -0.267972
     30          1           0       -2.065834    1.665502    0.207662
     31          1           0        0.180153    0.656890   -0.259594
     32          7           0       -4.402000    0.382130    0.265307
     33          8           0       -4.440777    1.589516    0.491919
     34          8           0       -5.376417   -0.366815    0.250112
 ---------------------------------------------------------------------

 SCF Done:  E(RHF) =  -669.535436125     A.U. after   15 cycles
 E2 =    -0.2092101833D+01 EUMP2 =    -0.67162753795815D+03

 The electronic state is 1-A.
 Alpha  occ. eigenvalues --  -20.60754 -20.60749 -15.85807 -11.31179 -11.27752
 Alpha  occ. eigenvalues --  -11.27742 -11.27496 -11.26767 -11.26729 -11.22689
 Alpha  occ. eigenvalues --  -11.22606 -11.22514 -11.22423 -11.21989 -11.21932
 Alpha  occ. eigenvalues --   -1.59830  -1.39383  -1.19352  -1.09512  -1.08746
 Alpha  occ. eigenvalues --   -1.04760  -1.04534  -0.96960  -0.95580  -0.87970
 Alpha  occ. eigenvalues --   -0.86156  -0.82414  -0.80591  -0.79305  -0.77462
 Alpha  occ. eigenvalues --   -0.72026  -0.71153  -0.70467  -0.66308  -0.65003
 Alpha  occ. eigenvalues --   -0.64685  -0.62283  -0.61745  -0.60318  -0.58560
 Alpha  occ. eigenvalues --   -0.56265  -0.55254  -0.53621  -0.53363  -0.53085
 Alpha  occ. eigenvalues --   -0.52851  -0.50899  -0.48898  -0.48780  -0.48770
 Alpha  occ. eigenvalues --   -0.47657  -0.46824  -0.46794  -0.44794  -0.44787
 Alpha  occ. eigenvalues --   -0.37334  -0.36356
 Alpha virt. eigenvalues --    0.05071   0.11230   0.16534   0.17606   0.21909
 Alpha virt. eigenvalues --    0.23589   0.25182   0.26189   0.26849   0.27961
 Alpha virt. eigenvalues --    0.29482   0.30807   0.30895   0.30941   0.32858

 Mulliken charges:
               1
     1  C   -0.300276
     2  C   -0.300329
     3  C   -0.476048
     4  H    0.155099
     5  H    0.145939
     6  H    0.156224
     7  H    0.146461
     8  H    0.153412
     9  H    0.158802
    10  H    0.162782
    11  C   -0.301346
    12  C   -0.305648
    13  C   -0.477777
    14  H    0.155821
    15  H    0.143375
    16  H    0.159322
    17  H    0.146117
    18  H    0.152891
    19  H    0.160053
    20  H    0.165011
    21  C   -0.174620
    22  C   -0.218451
    23  C   -0.171020
    24  C    0.158946
    25  C   -0.173125
    26  C   -0.228174
    27  H    0.226807
    28  H    0.223455
    29  H    0.275613
    30  H    0.276025
    31  H    0.237434
    32  N    0.488060
    33  O   -0.460316
    34  O   -0.460517
 Sum of Mulliken charges =  -0.00000

 Dipole moment (field-independent basis, Debye):
    X=              4.9263    Y=             -2.0310    Z=             -0.9303  Tot=              5.4091
 Quadrupole moment (field-independent basis, Debye-Ang):
   XX=           -120.9989   YY=            -90.1693   ZZ=            -95.7898
   XY=              8.6387   XZ=              3.4493   YZ=              1.3796

 Normal termination of Gaussian 16 at Wed May  5 15:28:46 2021.
