 Gaussian 16, Revision A.03,
 Gaussian 16:  EM64L-G16RevA.03 25-Dec-2016

 -------------
 #p 6-31g* mp2
 -------------

 ------------------------------------------------------
 Input file generated by CHIRIPA (05-May-2021 14:53:15)
 ------------------------------------------------------
 Symbolic Z-matrix:
 Charge =  0 Multiplicity = 1

                         Standard orientation:
 ---------------------------------------------------------------------
 Center     Atomic      Atomic             Coordinates (Angstroms)
 Number     Number       Type             X           Y           Z
 ---------------------------------------------------------------------
      1          6           0        3.241852    0.827098    0.310429
      2          6           0        3.980911    1.870455   -0.528130
      3          6           0        3.922973    3.270166    0.084444
      4          1           0        2.193674    1.134927    0.426663
      5          1           0        3.674841    0.804690    1.320089
      6          1           0        3.547566    1.889911   -1.536321
      7          1           0        5.027405    1.560010   -0.642542
      8          1           0        4.373491    3.272945    1.082255
      9          1           0        2.885243    3.604720    0.183399
     10          1           0        4.457565    4.000271   -0.531200
     11          6           0        3.290831   -0.577186   -0.288999
     12          6           0        2.551771   -1.620544    0.549560
     13          6           0        2.609710   -3.020255   -0.063014
     14          1           0        2.857841   -0.554779   -1.298659
     15          1           0        4.339008   -0.885015   -0.405233
     16          1           0        1.505277   -1.310099    0.663972
     17          1           0        2.985117   -1.639999    1.557751
     18          1           0        3.647439   -3.354808   -0.161969
     19          1           0        2.159191   -3.023033   -1.060825
     20          1           0        2.075117   -3.750359    0.552630
     21          6           0       -3.886431    2.042202    0.068574
     22          6           0       -3.623235    1.425116   -1.158803
     23          6           0       -2.884813    0.239240   -1.213388
     24          6           0       -2.422804   -0.304492   -0.015810
     25          6           0       -2.668542    0.286534    1.222573
     26          6           0       -3.409086    1.471946    1.253256
     27          1           0       -4.460878    2.963238    0.101694
     28          1           0       -3.992690    1.865724   -2.080439
     29          1           0       -2.666504   -0.259479   -2.149891
     30          1           0       -2.287013   -0.176493    2.124493
     31          1           0       -3.611962    1.948982    2.207888
     32          7           0       -1.639948   -1.559680   -0.060945
     33          8           0       -1.244093   -2.018610    1.008317
     34          8           0       -1.437022   -2.060800   -1.164728
 ---------------------------------------------------------------------

 SCF Done:  E(RHF) =  -669.536202726     A.U. after   15 cycles
 E2 =    -0.2091579755D+01 EUMP2 =    -0.67162778248112D+03

 The electronic state is 1-A.
 Alpha  occ. eigenvalues --  -20.61000 -20.60988 -15.86012 -11.31326 -11.27887
 Alpha  occ. eigenvalues --  -11.27882 -11.27621 -11.26889 -11.26879 -11.21232
 Alpha  occ. eigenvalues --  -11.20856 -11.20850 -11.20538 -11.20331 -11.19628
 Alpha  occ. eigenvalues --   -1.60051  -1.39606  -1.19493  -1.08899  -1.07714
 Alpha  occ. eigenvalues --   -1.04886  -1.02714  -0.95742  -0.95183  -0.86286
 Alpha  occ. eigenvalues --   -0.86209  -0.82575  -0.78849  -0.77632  -0.77453
 Alpha  occ. eigenvalues --   -0.72231  -0.71374  -0.70599  -0.65146  -0.64887
 Alpha  occ. eigenvalues --   -0.64354  -0.62232  -0.60109  -0.58623  -0.56755
 Alpha  occ. eigenvalues --   -0.55390  -0.54487  -0.53218  -0.52976  -0.51861
 Alpha  occ. eigenvalues --   -0.51613  -0.49166  -0.48998  -0.48978  -0.47145
 Alpha  occ. eigenvalues --   -0.45947  -0.45277  -0.44972  -0.44570  -0.42983
 Alpha  occ. eigenvalues --   -0.37471  -0.36486
 Alpha virt. eigenvalues --    0.04865   0.11168   0.16346   0.21304   0.23458
 Alpha virt. eigenvalues --    0.25156   0.27203   0.27285   0.28032   0.28329
 Alpha virt. eigenvalues --    0.28813   0.30837   0.32145   0.32277   0.32532

 Mulliken charges:
               1
     1  C   -0.296533
     2  C   -0.298798
     3  C   -0.474982
     4  H    0.145529
     5  H    0.148277
     6  H    0.150722
     7  H    0.151912
     8  H    0.154672
     9  H    0.152402
    10  H    0.158598
    11  C   -0.298783
    12  C   -0.302170
    13  C   -0.473749
    14  H    0.149151
    15  H    0.146768
    16  H    0.161806
    17  H    0.146279
    18  H    0.145720
    19  H    0.160717
    20  H    0.167374
    21  C   -0.170512
    22  C   -0.218595
    23  C   -0.170940
    24  C    0.158036
    25  C   -0.170897
    26  C   -0.218558
    27  H    0.226202
    28  H    0.223962
    29  H    0.275812
    30  H    0.276205
    31  H    0.224104
    32  N    0.487156
    33  O   -0.457947
    34  O   -0.458941
 Sum of Mulliken charges =  -0.00000

 Dipole moment (field-independent basis, Debye):
    X=             -3.0347    Y=              4.3012    Z=              0.1566  Tot=              5.2664
 Quadrupole moment (field-independent basis, Debye-Ang):
   XX=            -82.1164   YY=            -99.2654   ZZ=            -89.6139
   XY=            -10.4797   XZ=              0.5824   YZ=             -0.4304

 Normal termination of Gaussian 16 at Thu May  6 05:53:01 2021.
