 Gaussian 16, Revision A.03,
 Gaussian 16:  EM64L-G16RevA.03 25-Dec-2016

 -------------
 #p 6-31g* mp2
 -------------

 ------------------------------------------------------
 Input file generated by CHIRIPA (05-May-2021 14:55:24)
 ------------------------------------------------------
 Symbolic Z-matrix:
 Charge =  0 Multiplicity = 1

                         Standard orientation:
 ---------------------------------------------------------------------
 Center     Atomic      Atomic             Coordinates (Angstroms)
 Number     Number       Type             X           Y           Z
 ---------------------------------------------------------------------
      1          6           0        1.978757   -1.439867    2.135988
      2          6           0        3.112938   -0.631972    2.003851
      3          6           0        3.344944    0.078347    0.822256
      4          6           0        2.417891   -0.042877   -0.211750
      5          6           0        1.278492   -0.839625   -0.110492
      6          6           0        1.066762   -1.540937    1.080256
      7          1           0        1.806405   -1.988161    3.057434
      8          1           0        3.822908   -0.551581    2.822096
      9          1           0        4.214707    0.711009    0.693142
     10          1           0        0.588700   -0.899758   -0.943552
     11          1           0        0.185074   -2.167602    1.180064
     12          7           0        2.652773    0.704338   -1.467496
     13          8           0        1.820891    0.580650   -2.363772
     14          8           0        3.664308    1.399545   -1.531697
     15          6           0       -3.469732   -0.385214   -0.208468
     16          6           0       -2.639601   -1.598441   -0.629121
     17          6           0       -3.502779   -2.786183   -1.055719
     18          1           0       -4.134699   -0.672467    0.617517
     19          1           0       -4.119056   -0.086738   -1.043146
     20          1           0       -1.991034   -1.893689    0.205628
     21          1           0       -1.976397   -1.308217   -1.454074
     22          1           0       -4.139358   -2.514773   -1.904073
     23          1           0       -4.154078   -3.103570   -0.234941
     24          1           0       -2.889058   -3.642460   -1.352364
     25          6           0       -2.620968    0.810244    0.220724
     26          6           0       -3.451099    2.023470    0.641377
     27          6           0       -2.587921    3.211212    1.067974
     28          1           0       -1.971644    0.511768    1.055401
     29          1           0       -1.956002    1.097496   -0.605262
     30          1           0       -4.114303    1.733246    1.466329
     31          1           0       -4.099666    2.318718   -0.193371
     32          1           0       -1.936622    3.528600    0.247196
     33          1           0       -1.951342    2.939802    1.916328
     34          1           0       -3.201642    4.067489    1.364620
 ---------------------------------------------------------------------

 SCF Done:  E(RHF) =  -669.535429612     A.U. after   15 cycles
 E2 =    -0.2092645851D+01 EUMP2 =    -0.67162807546312D+03

 The electronic state is 1-A.
 Alpha  occ. eigenvalues --  -20.60739 -20.60732 -15.85789 -11.31115 -11.27706
 Alpha  occ. eigenvalues --  -11.27659 -11.27447 -11.26714 -11.26674 -11.22398
 Alpha  occ. eigenvalues --  -11.21837 -11.21770 -11.21644 -11.21637 -11.21122
 Alpha  occ. eigenvalues --   -1.59812  -1.39367  -1.19297  -1.08845  -1.08702
 Alpha  occ. eigenvalues --   -1.04696  -1.03924  -0.96328  -0.95539  -0.87352
 Alpha  occ. eigenvalues --   -0.86099  -0.82384  -0.80059  -0.78657  -0.77391
 Alpha  occ. eigenvalues --   -0.72009  -0.71133  -0.70411  -0.65521  -0.64948
 Alpha  occ. eigenvalues --   -0.64677  -0.62080  -0.61307  -0.59715  -0.57952
 Alpha  occ. eigenvalues --   -0.55595  -0.55214  -0.53084  -0.52999  -0.52824
 Alpha  occ. eigenvalues --   -0.52731  -0.50265  -0.48771  -0.48765  -0.48324
 Alpha  occ. eigenvalues --   -0.47071  -0.46157  -0.46052  -0.44779  -0.44163
 Alpha  occ. eigenvalues --   -0.37287  -0.36274
 Alpha virt. eigenvalues --    0.05092   0.11317   0.16512   0.19951   0.22913
 Alpha virt. eigenvalues --    0.23950   0.24524   0.25423   0.27648   0.28257
 Alpha virt. eigenvalues --    0.29475   0.29932   0.31461   0.31554   0.32022

 Mulliken charges:
               1
     1  C   -0.171237
     2  C   -0.218960
     3  C   -0.170367
     4  C    0.157915
     5  C   -0.173045
     6  C   -0.224653
     7  H    0.225409
     8  H    0.223090
     9  H    0.275346
    10  H    0.281237
    11  H    0.228249
    12  N    0.488034
    13  O   -0.461325
    14  O   -0.460529
    15  C   -0.297113
    16  C   -0.309394
    17  C   -0.475161
    18  H    0.149718
    19  H    0.153998
    20  H    0.142644
    21  H    0.156697
    22  H    0.160362
    23  H    0.155954
    24  H    0.160086
    25  C   -0.303087
    26  C   -0.299874
    27  C   -0.476553
    28  H    0.146998
    29  H    0.156484
    30  H    0.150635
    31  H    0.153977
    32  H    0.159852
    33  H    0.153821
    34  H    0.160794
 Sum of Mulliken charges =  -0.00000

 Dipole moment (field-independent basis, Debye):
    X=             -0.9639    Y=             -2.5526    Z=              4.3386  Tot=              5.1253
 Quadrupole moment (field-independent basis, Debye-Ang):
   XX=            -95.2218   YY=            -95.1619   ZZ=            -95.6511
   XY=             -5.0275   XZ=             13.0115   YZ=              0.5275

 Normal termination of Gaussian 16 at Wed May  5 17:36:27 2021.
