 Gaussian 16, Revision A.03,
 Gaussian 16:  EM64L-G16RevA.03 25-Dec-2016

 -------------
 #p 6-31g* mp2
 -------------

 ------------------------------------------------------
 Input file generated by CHIRIPA (05-May-2021 14:55:24)
 ------------------------------------------------------
 Symbolic Z-matrix:
 Charge =  0 Multiplicity = 1

                         Standard orientation:
 ---------------------------------------------------------------------
 Center     Atomic      Atomic             Coordinates (Angstroms)
 Number     Number       Type             X           Y           Z
 ---------------------------------------------------------------------
      1          6           0       -0.687638   -1.403172    2.035049
      2          6           0       -1.034081   -2.226778    0.958865
      3          6           0       -1.855803   -1.747975   -0.065864
      4          6           0       -2.315317   -0.434540    0.017946
      5          6           0       -1.987757    0.410508    1.077139
      6          6           0       -1.164740   -0.089474    2.090653
      7          1           0       -0.048802   -1.783343    2.826727
      8          1           0       -0.665022   -3.247435    0.913054
      9          1           0       -2.139546   -2.363993   -0.910512
     10          1           0       -2.371085    1.423500    1.095117
     11          1           0       -0.897317    0.552412    2.925225
     12          7           0       -3.185922    0.083558   -1.060953
     13          8           0       -3.577725    1.244452   -0.963740
     14          8           0       -3.460014   -0.681063   -1.983377
     15          6           0        2.599313    1.308028    0.120874
     16          6           0        1.227236    1.864138   -0.261393
     17          6           0        0.880129    3.149679    0.490070
     18          1           0        2.623059    1.119699    1.202962
     19          1           0        3.365104    2.069822   -0.080689
     20          1           0        0.464417    1.101019   -0.060464
     21          1           0        1.206688    2.050984   -1.342727
     22          1           0        1.619487    3.929619    0.281159
     23          1           0        0.872999    2.974255    1.570707
     24          1           0       -0.104802    3.529868    0.201580
     25          6           0        2.960573    0.022989   -0.622023
     26          6           0        4.332651   -0.533121   -0.239756
     27          6           0        4.679757   -1.818662   -0.991219
     28          1           0        2.194782   -0.738805   -0.420460
     29          1           0        2.936827    0.211318   -1.704111
     30          1           0        4.353198   -0.719968    0.841578
     31          1           0        5.095469    0.229998   -0.440685
     32          1           0        4.686887   -1.643238   -2.071856
     33          1           0        3.940399   -2.598602   -0.782308
     34          1           0        5.664688   -2.198851   -0.702729
 ---------------------------------------------------------------------

 SCF Done:  E(RHF) =  -669.534811225     A.U. after   15 cycles
 E2 =    -0.2094179003D+01 EUMP2 =    -0.67162899022847D+03

 The electronic state is 1-A.
 Alpha  occ. eigenvalues --  -20.60843 -20.60837 -15.85898 -11.31299 -11.27897
 Alpha  occ. eigenvalues --  -11.27857 -11.27652 -11.26927 -11.26881 -11.21899
 Alpha  occ. eigenvalues --  -11.21626 -11.21576 -11.21535 -11.21388 -11.21317
 Alpha  occ. eigenvalues --   -1.59917  -1.39469  -1.19507  -1.08882  -1.08636
 Alpha  occ. eigenvalues --   -1.04917  -1.03745  -0.96227  -0.95704  -0.87240
 Alpha  occ. eigenvalues --   -0.86294  -0.82533  -0.79811  -0.78450  -0.77571
 Alpha  occ. eigenvalues --   -0.72116  -0.71243  -0.70595  -0.65307  -0.65140
 Alpha  occ. eigenvalues --   -0.64893  -0.62250  -0.61194  -0.59588  -0.57829
 Alpha  occ. eigenvalues --   -0.55554  -0.55392  -0.53308  -0.53006  -0.52871
 Alpha  occ. eigenvalues --   -0.52632  -0.50172  -0.48878  -0.48868  -0.48117
 Alpha  occ. eigenvalues --   -0.46835  -0.45987  -0.45854  -0.44863  -0.43996
 Alpha  occ. eigenvalues --   -0.37484  -0.36417
 Alpha virt. eigenvalues --    0.04950   0.11065   0.16389   0.20672   0.22797
 Alpha virt. eigenvalues --    0.23884   0.26222   0.26565   0.27065   0.28005
 Alpha virt. eigenvalues --    0.29010   0.29463   0.31341   0.31541   0.31827

 Mulliken charges:
               1
     1  C   -0.171018
     2  C   -0.218523
     3  C   -0.171136
     4  C    0.162680
     5  C   -0.176261
     6  C   -0.216418
     7  H    0.226422
     8  H    0.224322
     9  H    0.276457
    10  H    0.277165
    11  H    0.224839
    12  N    0.488279
    13  O   -0.460308
    14  O   -0.460061
    15  C   -0.295985
    16  C   -0.308200
    17  C   -0.477895
    18  H    0.143124
    19  H    0.150042
    20  H    0.162396
    21  H    0.154952
    22  H    0.157744
    23  H    0.145850
    24  H    0.163733
    25  C   -0.299613
    26  C   -0.299320
    27  C   -0.475101
    28  H    0.148345
    29  H    0.152141
    30  H    0.148350
    31  H    0.153350
    32  H    0.157366
    33  H    0.151812
    34  H    0.160471
 Sum of Mulliken charges =  -0.00000

 Dipole moment (field-independent basis, Debye):
    X=              2.9602    Y=             -1.8530    Z=              3.7355  Tot=              5.1138
 Quadrupole moment (field-independent basis, Debye-Ang):
   XX=           -109.8640   YY=            -90.0141   ZZ=            -93.7091
   XY=              3.2492   XZ=             -9.2862   YZ=             -0.3741

 Normal termination of Gaussian 16 at Thu May  6 07:55:49 2021.
