 Gaussian 16, Revision A.03,
 Gaussian 16:  EM64L-G16RevA.03 25-Dec-2016

 -------------
 #p 6-31g* mp2
 -------------

 ------------------------------------------------------
 Input file generated by CHIRIPA (05-May-2021 14:51:10)
 ------------------------------------------------------
 Symbolic Z-matrix:
 Charge =  0 Multiplicity = 1

                         Standard orientation:
 ---------------------------------------------------------------------
 Center     Atomic      Atomic             Coordinates (Angstroms)
 Number     Number       Type             X           Y           Z
 ---------------------------------------------------------------------
      1          6           0        2.451356    1.156833    0.058269
      2          6           0        2.892613    2.618210   -0.029232
      3          6           0        1.735479    3.597945    0.168139
      4          1           0        1.676603    0.968498   -0.697529
      5          1           0        1.983125    0.980409    1.036548
      6          1           0        3.361118    2.791480   -1.006522
      7          1           0        3.666543    2.803038    0.726735
      8          1           0        1.271900    3.453943    1.149443
      9          1           0        0.964739    3.442319   -0.593662
     10          1           0        2.073297    4.636849    0.101682
     11          6           0        3.597023    0.165347   -0.137002
     12          6           0        3.155766   -1.296030   -0.049501
     13          6           0        4.312900   -2.275765   -0.246872
     14          1           0        4.065254    0.341771   -1.115281
     15          1           0        4.371777    0.353682    0.618796
     16          1           0        2.381836   -1.480858   -0.805468
     17          1           0        2.687262   -1.469300    0.927789
     18          1           0        5.083640   -2.120139    0.514929
     19          1           0        4.776479   -2.131763   -1.228176
     20          1           0        3.975082   -3.314669   -0.180415
     21          6           0       -2.342175   -0.865064    0.316282
     22          6           0       -1.892745   -2.253312   -0.140626
     23          6           0       -0.526525   -2.647169    0.421613
     24          1           0       -1.590788   -0.124259    0.010389
     25          1           0       -2.375767   -0.841126    1.414323
     26          1           0       -1.861343   -2.275043   -1.237512
     27          1           0       -2.645382   -2.990872    0.166222
     28          1           0       -0.547668   -2.653481    1.516197
     29          1           0        0.240827   -1.933584    0.104487
     30          1           0       -0.224704   -3.643000    0.082371
     31          6           0       -3.706205   -0.457117   -0.237549
     32          6           0       -4.155634    0.931131    0.219359
     33          6           0       -5.521854    1.324989   -0.342880
     34          1           0       -3.672612   -0.481054   -1.335591
     35          1           0       -4.457592   -1.197922    0.068343
     36          1           0       -3.402996    1.668692   -0.087490
     37          1           0       -4.187036    0.952863    1.316245
     38          1           0       -6.289206    0.611404   -0.025754
     39          1           0       -5.500712    1.331301   -1.437464
     40          1           0       -5.823676    2.320820   -0.003638
 ---------------------------------------------------------------------

 SCF Done:  E(RHF) =  -470.732786989     A.U. after   11 cycles
 E2 =    -0.1583240830D+01 EUMP2 =    -0.47231602781976D+03

 The electronic state is 1-A.
 Alpha  occ. eigenvalues --  -11.21637 -11.21580 -11.21568 -11.21525 -11.21442
 Alpha  occ. eigenvalues --  -11.21374 -11.21359 -11.21297 -11.21100 -11.21061
 Alpha  occ. eigenvalues --  -11.21046 -11.20895  -1.08464  -1.08375  -1.03560
 Alpha  occ. eigenvalues --   -1.03458  -0.96000  -0.95914  -0.87036  -0.86917
 Alpha  occ. eigenvalues --   -0.79712  -0.79462  -0.78326  -0.78137  -0.65103
 Alpha  occ. eigenvalues --   -0.64998  -0.60975  -0.60852  -0.59378  -0.59286
 Alpha  occ. eigenvalues --   -0.57632  -0.57508  -0.55293  -0.55206  -0.52711
 Alpha  occ. eigenvalues --   -0.52606  -0.52475  -0.52285  -0.49983  -0.49871
 Alpha  occ. eigenvalues --   -0.48095  -0.47682  -0.46712  -0.46567  -0.45949
 Alpha  occ. eigenvalues --   -0.45755  -0.45670  -0.45361  -0.43802  -0.43725
 Alpha virt. eigenvalues --    0.21586   0.23227   0.23773   0.24308   0.25749
 Alpha virt. eigenvalues --    0.26484   0.27143   0.27748   0.27903   0.29426
 Alpha virt. eigenvalues --    0.30967   0.31242   0.31575   0.31824   0.32210

 Mulliken charges:
               1
     1  C   -0.299738
     2  C   -0.299554
     3  C   -0.475703
     4  H    0.148797
     5  H    0.150580
     6  H    0.152002
     7  H    0.152283
     8  H    0.155606
     9  H    0.154689
    10  H    0.160433
    11  C   -0.297917
    12  C   -0.303847
    13  C   -0.475251
    14  H    0.149306
    15  H    0.149751
    16  H    0.154279
    17  H    0.155225
    18  H    0.155047
    19  H    0.154817
    20  H    0.160847
    21  C   -0.298885
    22  C   -0.299418
    23  C   -0.482882
    24  H    0.150373
    25  H    0.149247
    26  H    0.150951
    27  H    0.151333
    28  H    0.153632
    29  H    0.165628
    30  H    0.158814
    31  C   -0.298191
    32  C   -0.299622
    33  C   -0.475669
    34  H    0.149191
    35  H    0.149571
    36  H    0.152078
    37  H    0.151847
    38  H    0.155100
    39  H    0.155039
    40  H    0.160211
 Sum of Mulliken charges =  -0.00000

 Dipole moment (field-independent basis, Debye):
    X=              0.0623    Y=              0.0174    Z=              0.0121  Tot=              0.0658
 Quadrupole moment (field-independent basis, Debye-Ang):
   XX=            -86.0752   YY=            -85.5719   ZZ=            -83.2056
   XY=              1.1287   XZ=             -0.3925   YZ=             -0.2805

 Normal termination of Gaussian 16 at Wed May  5 18:10:56 2021.
