 Gaussian 16, Revision A.03,
 Gaussian 16:  EM64L-G16RevA.03 25-Dec-2016

 -------------
 #p 6-31g* mp2
 -------------

 ------------------------------------------------------
 Input file generated by CHIRIPA (05-May-2021 14:51:11)
 ------------------------------------------------------
 Symbolic Z-matrix:
 Charge =  0 Multiplicity = 1

                         Standard orientation:
 ---------------------------------------------------------------------
 Center     Atomic      Atomic             Coordinates (Angstroms)
 Number     Number       Type             X           Y           Z
 ---------------------------------------------------------------------
      1          6           0        3.420232   -0.245974   -0.025619
      2          6           0        2.742813   -1.376387   -0.801024
      3          6           0        3.469235   -2.713515   -0.652049
      4          1           0        4.457403   -0.142078   -0.372645
      5          1           0        3.472204   -0.519649    1.037300
      6          1           0        2.690891   -1.100061   -1.861950
      7          1           0        1.707076   -1.477478   -0.452246
      8          1           0        3.508686   -3.015430    0.399565
      9          1           0        4.498090   -2.635869   -1.018149
     10          1           0        2.968049   -3.507517   -1.214396
     11          6           0        2.705692    1.097087   -0.164714
     12          6           0        3.383112    2.227501    0.610692
     13          6           0        2.656690    3.564629    0.461716
     14          1           0        2.653721    1.370762   -1.227632
     15          1           0        1.668521    0.993191    0.182312
     16          1           0        4.418848    2.328591    0.261914
     17          1           0        3.435034    1.951175    1.671618
     18          1           0        1.627834    3.486982    0.827816
     19          1           0        2.617239    3.866543   -0.589898
     20          1           0        3.157875    4.358630    1.024063
     21          6           0       -3.606729    0.081490    0.270249
     22          6           0       -3.845586    1.118052   -0.828145
     23          6           0       -4.936271    2.125512   -0.463145
     24          1           0       -4.546047   -0.450601    0.473981
     25          1           0       -3.332746    0.599154    1.199954
     26          1           0       -4.117689    0.598514   -1.755862
     27          1           0       -2.905544    1.647604   -1.029420
     28          1           0       -4.668558    2.669793    0.448276
     29          1           0       -5.887590    1.614742   -0.282291
     30          1           0       -5.090626    2.857224   -1.262290
     31          6           0       -2.519195   -0.932603   -0.079916
     32          6           0       -2.280338   -1.969165    1.018478
     33          6           0       -1.189653   -2.976625    0.653478
     34          1           0       -2.793179   -1.450268   -1.009621
     35          1           0       -1.579877   -0.400513   -0.283649
     36          1           0       -3.220380   -2.498718    1.219753
     37          1           0       -2.008236   -1.449627    1.946194
     38          1           0       -0.238335   -2.465855    0.472625
     39          1           0       -1.457366   -3.520906   -0.257944
     40          1           0       -1.035299   -3.708337    1.452623
 ---------------------------------------------------------------------

 SCF Done:  E(RHF) =  -470.733382019     A.U. after   11 cycles
 E2 =    -0.1582823470D+01 EUMP2 =    -0.47231620548895D+03

 The electronic state is 1-A.
 Alpha  occ. eigenvalues --  -11.21635 -11.21627 -11.21603 -11.21603 -11.21440
 Alpha  occ. eigenvalues --  -11.21423 -11.21376 -11.21363 -11.21105 -11.21083
 Alpha  occ. eigenvalues --  -11.21072 -11.21058  -1.08463  -1.08442  -1.03564
 Alpha  occ. eigenvalues --   -1.03529  -0.96010  -0.95981  -0.87023  -0.87000
 Alpha  occ. eigenvalues --   -0.79660  -0.79563  -0.78305  -0.78225  -0.65162
 Alpha  occ. eigenvalues --   -0.65016  -0.61078  -0.60832  -0.59388  -0.59338
 Alpha  occ. eigenvalues --   -0.57660  -0.57552  -0.55364  -0.55208  -0.52690
 Alpha  occ. eigenvalues --   -0.52683  -0.52441  -0.52401  -0.50036  -0.49862
 Alpha  occ. eigenvalues --   -0.48049  -0.47835  -0.46810  -0.46494  -0.45968
 Alpha  occ. eigenvalues --   -0.45771  -0.45753  -0.45481  -0.43806  -0.43797
 Alpha virt. eigenvalues --    0.20489   0.23197   0.23625   0.24612   0.25443
 Alpha virt. eigenvalues --    0.26941   0.27137   0.27374   0.28347   0.29185
 Alpha virt. eigenvalues --    0.30474   0.31641   0.31741   0.31902   0.32020

 Mulliken charges:
               1
     1  C   -0.297785
     2  C   -0.308345
     3  C   -0.475290
     4  H    0.149933
     5  H    0.149464
     6  H    0.152335
     7  H    0.158874
     8  H    0.155247
     9  H    0.155125
    10  H    0.160968
    11  C   -0.298532
    12  C   -0.299681
    13  C   -0.475690
    14  H    0.149865
    15  H    0.148634
    16  H    0.152225
    17  H    0.151994
    18  H    0.154833
    19  H    0.155314
    20  H    0.160439
    21  C   -0.298287
    22  C   -0.299759
    23  C   -0.475708
    24  H    0.149785
    25  H    0.149306
    26  H    0.151999
    27  H    0.152267
    28  H    0.155146
    29  H    0.155144
    30  H    0.160365
    31  C   -0.299129
    32  C   -0.299275
    33  C   -0.483433
    34  H    0.149847
    35  H    0.149837
    36  H    0.152177
    37  H    0.151466
    38  H    0.162294
    39  H    0.155539
    40  H    0.160490
 Sum of Mulliken charges =  -0.00000

 Dipole moment (field-independent basis, Debye):
    X=              0.0079    Y=             -0.0089    Z=             -0.0120  Tot=              0.0169
 Quadrupole moment (field-independent basis, Debye-Ang):
   XX=            -84.6446   YY=            -86.0365   ZZ=            -83.9440
   XY=              1.6044   XZ=             -0.0802   YZ=              0.0068

 Normal termination of Gaussian 16 at Thu May  6 05:28:16 2021.
