 Gaussian 16, Revision A.03,
 Gaussian 16:  EM64L-G16RevA.03 25-Dec-2016

 -------------
 #p 6-31g* mp2
 -------------

 ------------------------------------------------------
 Input file generated by CHIRIPA (05-May-2021 14:55:18)
 ------------------------------------------------------
 Symbolic Z-matrix:
 Charge =  0 Multiplicity = 1

                         Standard orientation:
 ---------------------------------------------------------------------
 Center     Atomic      Atomic             Coordinates (Angstroms)
 Number     Number       Type             X           Y           Z
 ---------------------------------------------------------------------
      1          6           0        5.556749   -0.766065    0.448117
      2          6           0        5.085596    0.520884    0.727933
      3          6           0        3.765278    0.873365    0.432863
      4          6           0        2.939758   -0.090304   -0.144329
      5          6           0        3.379700   -1.380741   -0.435040
      6          6           0        4.703802   -1.711104   -0.131454
      7          1           0        6.583873   -1.031290    0.680642
      8          1           0        5.745759    1.256858    1.178013
      9          1           0        3.374515    1.862427    0.638966
     10          1           0        2.697942   -2.092855   -0.883945
     11          1           0        5.066979   -2.711326   -0.349866
     12          7           0        1.539994    0.271145   -0.461213
     13          8           0        0.832698   -0.596034   -0.969515
     14          8           0        1.176660    1.414783   -0.195286
     15          6           0       -3.580076    0.709329    0.412933
     16          6           0       -3.364510    1.921864   -0.493310
     17          6           0       -2.405590    2.948255    0.110665
     18          1           0       -3.967784    1.048982    1.383120
     19          1           0       -2.610332    0.233034    0.613267
     20          1           0       -4.334541    2.394918   -0.693000
     21          1           0       -2.977451    1.579267   -1.461518
     22          1           0       -1.424717    2.497843    0.294020
     23          1           0       -2.789519    3.318127    1.066905
     24          1           0       -2.265864    3.806712   -0.553707
     25          6           0       -4.536292   -0.325649   -0.177151
     26          6           0       -4.751857   -1.538185    0.729091
     27          6           0       -5.710778   -2.564577    0.125117
     28          1           0       -5.506036    0.150646   -0.377485
     29          1           0       -4.148583   -0.665302   -1.147338
     30          1           0       -5.138917   -1.195588    1.697300
     31          1           0       -3.781826   -2.011239    0.928782
     32          1           0       -5.326849   -2.934448   -0.831122
     33          1           0       -6.691650   -2.114163   -0.058238
     34          1           0       -5.850503   -3.423033    0.789488
 ---------------------------------------------------------------------

 SCF Done:  E(RHF) =  -669.536606942     A.U. after   15 cycles
 E2 =    -0.2091047496D+01 EUMP2 =    -0.67162765443769D+03

 The electronic state is 1-A.
 Alpha  occ. eigenvalues --  -20.61081 -20.61064 -15.86094 -11.31366 -11.27923
 Alpha  occ. eigenvalues --  -11.27918 -11.27652 -11.26918 -11.26908 -11.20690
 Alpha  occ. eigenvalues --  -11.20332 -11.20262 -11.20096 -11.19986 -11.19273
 Alpha  occ. eigenvalues --   -1.60127  -1.39684  -1.19529  -1.08943  -1.07198
 Alpha  occ. eigenvalues --   -1.04917  -1.02284  -0.95793  -0.94732  -0.86320
 Alpha  occ. eigenvalues --   -0.85755  -0.82627  -0.78396  -0.77685  -0.76978
 Alpha  occ. eigenvalues --   -0.72315  -0.71435  -0.70637  -0.65185  -0.64920
 Alpha  occ. eigenvalues --   -0.63815  -0.62264  -0.59662  -0.58169  -0.56347
 Alpha  occ. eigenvalues --   -0.55425  -0.53998  -0.53252  -0.53008  -0.51462
 Alpha  occ. eigenvalues --   -0.51171  -0.49182  -0.49070  -0.48539  -0.46691
 Alpha  occ. eigenvalues --   -0.45413  -0.45093  -0.44531  -0.44370  -0.42549
 Alpha  occ. eigenvalues --   -0.37506  -0.36516
 Alpha virt. eigenvalues --    0.04833   0.11140   0.16338   0.21277   0.24069
 Alpha virt. eigenvalues --    0.25620   0.27203   0.27851   0.28185   0.28703
 Alpha virt. eigenvalues --    0.29290   0.30853   0.32353   0.32695   0.32813

 Mulliken charges:
               1
     1  C   -0.170402
     2  C   -0.218573
     3  C   -0.170691
     4  C    0.157536
     5  C   -0.170449
     6  C   -0.218616
     7  H    0.226280
     8  H    0.224149
     9  H    0.276196
    10  H    0.275876
    11  H    0.224058
    12  N    0.490349
    13  O   -0.459711
    14  O   -0.460652
    15  C   -0.299617
    16  C   -0.296835
    17  C   -0.486890
    18  H    0.143485
    19  H    0.159690
    20  H    0.143687
    21  H    0.156261
    22  H    0.183853
    23  H    0.144697
    24  H    0.153515
    25  C   -0.297657
    26  C   -0.299073
    27  C   -0.475065
    28  H    0.145392
    29  H    0.151919
    30  H    0.149033
    31  H    0.153116
    32  H    0.154976
    33  H    0.153350
    34  H    0.156815
 Sum of Mulliken charges =  -0.00000

 Dipole moment (field-independent basis, Debye):
    X=              5.3959    Y=             -1.3482    Z=              1.0618  Tot=              5.6623
 Quadrupole moment (field-independent basis, Debye-Ang):
   XX=            -67.5469   YY=            -91.5428   ZZ=            -95.2534
   XY=             -4.0859   XZ=              2.7162   YZ=              1.9745

 Normal termination of Gaussian 16 at Thu May  6 14:01:57 2021.
