 Gaussian 16, Revision A.03,
 Gaussian 16:  EM64L-G16RevA.03 25-Dec-2016

 -------------
 #p 6-31g* mp2
 -------------

 ------------------------------------------------------
 Input file generated by CHIRIPA (05-May-2021 14:51:10)
 ------------------------------------------------------
 Symbolic Z-matrix:
 Charge =  0 Multiplicity = 1

                         Standard orientation:
 ---------------------------------------------------------------------
 Center     Atomic      Atomic             Coordinates (Angstroms)
 Number     Number       Type             X           Y           Z
 ---------------------------------------------------------------------
      1          6           0       -2.118081   -1.373178   -0.127176
      2          6           0       -1.502773   -2.067470    1.088283
      3          6           0       -0.752550   -3.348029    0.720684
      4          1           0       -2.802613   -2.068974   -0.631387
      5          1           0       -1.322946   -1.139165   -0.848560
      6          1           0       -2.298643   -2.298861    1.807772
      7          1           0       -0.819771   -1.369876    1.589768
      8          1           0        0.060939   -3.130563    0.021010
      9          1           0       -1.426335   -4.064827    0.240252
     10          1           0       -0.320730   -3.828073    1.604398
     11          6           0       -2.871411   -0.091478    0.224203
     12          6           0       -3.486718    0.602814   -0.991256
     13          6           0       -4.236941    1.883373   -0.623657
     14          1           0       -3.666545   -0.325491    0.945587
     15          1           0       -2.186878    0.604318    0.728414
     16          1           0       -4.169720   -0.094780   -1.492741
     17          1           0       -2.690848    0.834206   -1.710745
     18          1           0       -3.563156    2.600171   -0.143225
     19          1           0       -5.050430    1.665908    0.076017
     20          1           0       -4.668761    2.363417   -1.507371
     21          6           0        2.885987    0.271550   -0.515468
     22          6           0        2.851690   -1.196085   -0.087852
     23          6           0        3.638863   -2.105432   -1.031908
     24          1           0        2.482174    0.359818   -1.533353
     25          1           0        3.930950    0.607912   -0.563497
     26          1           0        1.807036   -1.529185   -0.039304
     27          1           0        3.255453   -1.280844    0.929206
     28          1           0        4.689606   -1.800742   -1.073190
     29          1           0        3.232958   -2.050494   -2.047202
     30          1           0        3.601029   -3.150024   -0.707476
     31          6           0        2.103504    1.193106    0.418441
     32          6           0        2.137801    2.660741   -0.009175
     33          6           0        1.350628    3.570088    0.934881
     34          1           0        1.058541    0.856743    0.466470
     35          1           0        2.507317    1.104837    1.436326
     36          1           0        1.734038    2.745500   -1.026232
     37          1           0        3.182456    2.993840   -0.057723
     38          1           0        1.756533    3.515149    1.950176
     39          1           0        0.299885    3.265397    0.976163
     40          1           0        1.388462    4.614680    0.610450
 ---------------------------------------------------------------------

 SCF Done:  E(RHF) =  -470.733318921     A.U. after   11 cycles
 E2 =    -0.1583775674D+01 EUMP2 =    -0.47231709459536D+03

 The electronic state is 1-A.
 Alpha  occ. eigenvalues --  -11.21659 -11.21646 -11.21625 -11.21616 -11.21466
 Alpha  occ. eigenvalues --  -11.21460 -11.21402 -11.21401 -11.21130 -11.21103
 Alpha  occ. eigenvalues --  -11.21098 -11.21070  -1.08505  -1.08456  -1.03601
 Alpha  occ. eigenvalues --   -1.03541  -0.96041  -0.96000  -0.87050  -0.87021
 Alpha  occ. eigenvalues --   -0.79671  -0.79595  -0.78302  -0.78288  -0.65323
 Alpha  occ. eigenvalues --   -0.64922  -0.61178  -0.60788  -0.59392  -0.59376
 Alpha  occ. eigenvalues --   -0.57670  -0.57595  -0.55427  -0.55198  -0.52716
 Alpha  occ. eigenvalues --   -0.52700  -0.52450  -0.52436  -0.50059  -0.49885
 Alpha  occ. eigenvalues --   -0.48039  -0.47872  -0.46785  -0.46541  -0.46028
 Alpha  occ. eigenvalues --   -0.45809  -0.45728  -0.45540  -0.43832  -0.43820
 Alpha virt. eigenvalues --    0.18861   0.22162   0.23807   0.24665   0.25721
 Alpha virt. eigenvalues --    0.26643   0.26908   0.27420   0.28417   0.29897
 Alpha virt. eigenvalues --    0.31013   0.31529   0.31740   0.31856   0.32021

 Mulliken charges:
               1
     1  C   -0.298849
     2  C   -0.302272
     3  C   -0.479505
     4  H    0.150140
     5  H    0.148844
     6  H    0.152409
     7  H    0.154221
     8  H    0.158899
     9  H    0.155277
    10  H    0.160660
    11  C   -0.299589
    12  C   -0.299597
    13  C   -0.475708
    14  H    0.150080
    15  H    0.149945
    16  H    0.152190
    17  H    0.151592
    18  H    0.155122
    19  H    0.155398
    20  H    0.160451
    21  C   -0.297621
    22  C   -0.307923
    23  C   -0.475908
    24  H    0.149264
    25  H    0.149896
    26  H    0.159616
    27  H    0.152230
    28  H    0.155502
    29  H    0.154902
    30  H    0.160940
    31  C   -0.301324
    32  C   -0.299633
    33  C   -0.475768
    34  H    0.151127
    35  H    0.150027
    36  H    0.151950
    37  H    0.152398
    38  H    0.155503
    39  H    0.154442
    40  H    0.160671
 Sum of Mulliken charges =  -0.00000

 Dipole moment (field-independent basis, Debye):
    X=              0.0062    Y=             -0.0092    Z=              0.0107  Tot=              0.0154
 Quadrupole moment (field-independent basis, Debye-Ang):
   XX=            -83.8095   YY=            -85.9294   ZZ=            -84.8052
   XY=              1.5649   XZ=              0.7586   YZ=             -0.5608

 Normal termination of Gaussian 16 at Wed May  5 23:02:06 2021.
