 Gaussian 16, Revision A.03,
 Gaussian 16:  EM64L-G16RevA.03 25-Dec-2016

 -------------
 #p 6-31g* mp2
 -------------

 ------------------------------------------------------
 Input file generated by CHIRIPA (05-May-2021 14:55:25)
 ------------------------------------------------------
 Symbolic Z-matrix:
 Charge =  0 Multiplicity = 1

                         Standard orientation:
 ---------------------------------------------------------------------
 Center     Atomic      Atomic             Coordinates (Angstroms)
 Number     Number       Type             X           Y           Z
 ---------------------------------------------------------------------
      1          6           0       -1.085430    1.013284   -0.333465
      2          6           0       -2.168927    1.724369    0.192762
      3          6           0       -3.410934    1.104715    0.360082
      4          6           0       -3.534581   -0.233301   -0.011016
      5          6           0       -2.473927   -0.968523   -0.538036
      6          6           0       -1.241114   -0.328527   -0.696544
      7          1           0       -0.124180    1.502547   -0.460020
      8          1           0       -2.050931    2.766542    0.475599
      9          1           0       -4.266382    1.631609    0.765062
     10          1           0       -2.622215   -2.006305   -0.810867
     11          1           0       -0.401401   -0.883239   -1.105471
     12          7           0       -4.844572   -0.900069    0.161454
     13          8           0       -4.927617   -2.079798   -0.173180
     14          8           0       -5.763492   -0.230327    0.628003
     15          6           0        4.558995   -0.469104   -0.255200
     16          6           0        5.474553   -1.223701    0.709331
     17          6           0        6.089366   -2.475837    0.083267
     18          1           0        3.759267   -1.141992   -0.593730
     19          1           0        5.131759   -0.189241   -1.150194
     20          1           0        4.900586   -1.500850    1.602845
     21          1           0        6.272084   -0.548882    1.045752
     22          1           0        6.685549   -2.213530   -0.796711
     23          1           0        5.306258   -3.170906   -0.236454
     24          1           0        6.740228   -2.999896    0.790093
     25          6           0        3.936824    0.785032    0.356170
     26          6           0        3.021266    1.539630   -0.608361
     27          6           0        2.406451    2.791766    0.017702
     28          1           0        3.364059    0.505170    1.251163
     29          1           0        4.736552    1.457919    0.694700
     30          1           0        2.223734    0.864812   -0.944783
     31          1           0        3.595232    1.816779   -1.501875
     32          1           0        3.189560    3.486835    0.337423
     33          1           0        1.810269    2.529459    0.897681
     34          1           0        1.755591    3.315824   -0.689123
 ---------------------------------------------------------------------

 SCF Done:  E(RHF) =  -669.535222343     A.U. after   15 cycles
 E2 =    -0.2091823464D+01 EUMP2 =    -0.67162704580708D+03

 The electronic state is 1-A.
 Alpha  occ. eigenvalues --  -20.60715 -20.60710 -15.85769 -11.31118 -11.27695
 Alpha  occ. eigenvalues --  -11.27688 -11.27338 -11.26693 -11.26677 -11.22945
 Alpha  occ. eigenvalues --  -11.22486 -11.22387 -11.22273 -11.22204 -11.21619
 Alpha  occ. eigenvalues --   -1.59792  -1.39345  -1.19288  -1.09410  -1.08677
 Alpha  occ. eigenvalues --   -1.04694  -1.04528  -0.96972  -0.95514  -0.87981
 Alpha  occ. eigenvalues --   -0.86088  -0.82357  -0.80606  -0.79158  -0.77411
 Alpha  occ. eigenvalues --   -0.71986  -0.71115  -0.70447  -0.66044  -0.64936
 Alpha  occ. eigenvalues --   -0.64701  -0.62052  -0.61926  -0.60386  -0.58558
 Alpha  occ. eigenvalues --   -0.56381  -0.54960  -0.53659  -0.53370  -0.53018
 Alpha  occ. eigenvalues --   -0.52783  -0.50906  -0.48904  -0.48743  -0.48743
 Alpha  occ. eigenvalues --   -0.47655  -0.46708  -0.46596  -0.44755  -0.44753
 Alpha  occ. eigenvalues --   -0.37255  -0.36306
 Alpha virt. eigenvalues --    0.05119   0.11345   0.16577   0.19054   0.22611
 Alpha virt. eigenvalues --    0.23757   0.24698   0.26006   0.26572   0.28126
 Alpha virt. eigenvalues --    0.29452   0.30460   0.30612   0.31081   0.31713

 Mulliken charges:
               1
     1  C   -0.180745
     2  C   -0.222538
     3  C   -0.170532
     4  C    0.157941
     5  C   -0.170554
     6  C   -0.223104
     7  H    0.245704
     8  H    0.223680
     9  H    0.275316
    10  H    0.275213
    11  H    0.222761
    12  N    0.487988
    13  O   -0.460712
    14  O   -0.460618
    15  C   -0.298287
    16  C   -0.300546
    17  C   -0.476187
    18  H    0.146900
    19  H    0.151522
    20  H    0.153275
    21  H    0.153600
    22  H    0.156110
    23  H    0.155347
    24  H    0.162746
    25  C   -0.298852
    26  C   -0.303154
    27  C   -0.488153
    28  H    0.151391
    29  H    0.153603
    30  H    0.142835
    31  H    0.158500
    32  H    0.166564
    33  H    0.155238
    34  H    0.157748
 Sum of Mulliken charges =  -0.00000

 Dipole moment (field-independent basis, Debye):
    X=              4.9408    Y=              2.3889    Z=             -0.5592  Tot=              5.5164
 Quadrupole moment (field-independent basis, Debye-Ang):
   XX=           -125.6722   YY=            -92.7296   ZZ=            -94.8393
   XY=            -10.2291   XZ=              1.3084   YZ=              1.4914

 Normal termination of Gaussian 16 at Thu May  6 14:22:21 2021.
