 Gaussian 16, Revision A.03,
 Gaussian 16:  EM64L-G16RevA.03 25-Dec-2016

 -------------
 #p 6-31g* mp2
 -------------

 ------------------------------------------------------
 Input file generated by CHIRIPA (05-May-2021 14:53:17)
 ------------------------------------------------------
 Symbolic Z-matrix:
 Charge =  0 Multiplicity = 1

                         Standard orientation:
 ---------------------------------------------------------------------
 Center     Atomic      Atomic             Coordinates (Angstroms)
 Number     Number       Type             X           Y           Z
 ---------------------------------------------------------------------
      1          6           0       -3.331561    0.982396   -0.134730
      2          6           0       -3.598720    2.255913    0.668242
      3          6           0       -2.587500    3.364055    0.372861
      4          1           0       -2.317036    0.623351    0.086111
      5          1           0       -3.351771    1.222248   -1.206857
      6          1           0       -3.579383    2.013462    1.738503
      7          1           0       -4.612796    2.611861    0.445609
      8          1           0       -2.611209    3.634519   -0.687746
      9          1           0       -1.571924    3.032719    0.612494
     10          1           0       -2.797190    4.265186    0.957544
     11          6           0       -4.334145   -0.134601    0.149650
     12          6           0       -4.066986   -1.408118   -0.653322
     13          6           0       -5.078206   -2.516260   -0.357941
     14          1           0       -4.313935   -0.374453    1.221778
     15          1           0       -5.348670    0.224444   -0.071191
     16          1           0       -3.052909   -1.764066   -0.430689
     17          1           0       -4.086322   -1.165667   -1.723583
     18          1           0       -6.093781   -2.184924   -0.597574
     19          1           0       -5.054497   -2.786724    0.702667
     20          1           0       -4.868516   -3.417391   -0.942623
     21          6           0        0.904378   -1.702844    0.335014
     22          6           0        0.827301   -0.452369   -0.286994
     23          6           0        1.978850    0.316274   -0.481076
     24          6           0        3.196473   -0.198562   -0.038780
     25          6           0        3.305740   -1.440802    0.584267
     26          6           0        2.141172   -2.192207    0.767897
     27          1           0        0.004769   -2.293248    0.481723
     28          1           0       -0.131857   -0.069801   -0.624194
     29          1           0        1.947832    1.287559   -0.959681
     30          1           0        4.276128   -1.795587    0.909680
     31          1           0        2.204033   -3.163005    1.251265
     32          7           0        4.422459    0.606042   -0.238713
     33          8           0        5.483154    0.130031    0.160006
     34          8           0        4.299477    1.697465   -0.790354
 ---------------------------------------------------------------------

 SCF Done:  E(RHF) =  -669.535620215     A.U. after   15 cycles
 E2 =    -0.2091489470D+01 EUMP2 =    -0.67162710968497D+03

 The electronic state is 1-A.
 Alpha  occ. eigenvalues --  -20.60738 -20.60732 -15.85790 -11.31157 -11.27730
 Alpha  occ. eigenvalues --  -11.27716 -11.27473 -11.26747 -11.26697 -11.22618
 Alpha  occ. eigenvalues --  -11.22420 -11.22326 -11.22273 -11.21894 -11.21702
 Alpha  occ. eigenvalues --   -1.59813  -1.39366  -1.19329  -1.09343  -1.08725
 Alpha  occ. eigenvalues --   -1.04731  -1.04359  -0.96796  -0.95560  -0.87809
 Alpha  occ. eigenvalues --   -0.86132  -0.82391  -0.80429  -0.79194  -0.77433
 Alpha  occ. eigenvalues --   -0.72009  -0.71136  -0.70442  -0.66009  -0.64980
 Alpha  occ. eigenvalues --   -0.64716  -0.62092  -0.61743  -0.60167  -0.58414
 Alpha  occ. eigenvalues --   -0.56085  -0.55235  -0.53460  -0.53252  -0.53061
 Alpha  occ. eigenvalues --   -0.52804  -0.50733  -0.48785  -0.48764  -0.48725
 Alpha  occ. eigenvalues --   -0.47471  -0.46696  -0.46617  -0.44772  -0.44635
 Alpha  occ. eigenvalues --   -0.37312  -0.36332
 Alpha virt. eigenvalues --    0.05094   0.11259   0.16559   0.18724   0.22726
 Alpha virt. eigenvalues --    0.23086   0.24826   0.26182   0.26946   0.27228
 Alpha virt. eigenvalues --    0.29434   0.30625   0.30985   0.31395   0.31561

 Mulliken charges:
               1
     1  C   -0.304697
     2  C   -0.299571
     3  C   -0.476958
     4  H    0.143826
     5  H    0.151272
     6  H    0.154022
     7  H    0.155179
     8  H    0.156151
     9  H    0.153551
    10  H    0.164796
    11  C   -0.298405
    12  C   -0.299093
    13  C   -0.476304
    14  H    0.151063
    15  H    0.154159
    16  H    0.140912
    17  H    0.154814
    18  H    0.158852
    19  H    0.155839
    20  H    0.161633
    21  C   -0.173910
    22  C   -0.225866
    23  C   -0.172456
    24  C    0.158849
    25  C   -0.171051
    26  C   -0.218560
    27  H    0.226225
    28  H    0.233648
    29  H    0.276179
    30  H    0.275503
    31  H    0.223324
    32  N    0.487990
    33  O   -0.460584
    34  O   -0.460331
 Sum of Mulliken charges =  -0.00000

 Dipole moment (field-independent basis, Debye):
    X=             -4.5591    Y=             -2.7564    Z=              0.7191  Tot=              5.3759
 Quadrupole moment (field-independent basis, Debye-Ang):
   XX=           -120.3032   YY=            -91.6811   ZZ=            -93.9853
   XY=            -11.4665   XZ=              4.3126   YZ=             -1.9777

 Normal termination of Gaussian 16 at Wed May  5 17:14:27 2021.
