 Gaussian 16, Revision A.03,
 Gaussian 16:  EM64L-G16RevA.03 25-Dec-2016

 -------------
 #p 6-31g* mp2
 -------------

 ------------------------------------------------------
 Input file generated by CHIRIPA (05-May-2021 14:57:23)
 ------------------------------------------------------
 Symbolic Z-matrix:
 Charge =  0 Multiplicity = 1

                         Standard orientation:
 ---------------------------------------------------------------------
 Center     Atomic      Atomic             Coordinates (Angstroms)
 Number     Number       Type             X           Y           Z
 ---------------------------------------------------------------------
      1          6           0        1.147559   -1.870086   -0.259101
      2          6           0        1.368880   -0.971081   -1.307590
      3          6           0        2.418186   -0.049481   -1.243094
      4          6           0        3.230398   -0.054629   -0.110144
      5          6           0        3.035441   -0.937652    0.950776
      6          6           0        1.980079   -1.850536    0.864754
      7          1           0        0.330081   -2.582621   -0.317564
      8          1           0        0.723930   -0.983985   -2.181613
      9          1           0        2.612069    0.657685   -2.040429
     10          1           0        3.695168   -0.900789    1.809158
     11          1           0        1.810561   -2.547543    1.680530
     12          7           0        4.344457    0.916414   -0.030471
     13          8           0        5.045827    0.891618    0.978540
     14          8           0        4.495193    1.683927   -0.978543
     15          6           0       -3.187590    2.725557    0.327084
     16          6           0       -3.573922    2.096950   -0.861244
     17          6           0       -3.500121    0.706379   -0.985386
     18          6           0       -3.033176   -0.028075    0.103572
     19          6           0       -2.640898    0.569007    1.300610
     20          6           0       -2.723130    1.960926    1.402323
     21          1           0       -3.248194    3.806310    0.414809
     22          1           0       -3.935016    2.688241   -1.697923
     23          1           0       -3.792708    0.193956   -1.893810
     24          1           0       -2.285028   -0.047091    2.117432
     25          1           0       -2.422418    2.446408    2.326403
     26          7           0       -2.950583   -1.500924   -0.015979
     27          8           0       -2.535755   -2.125463    0.957934
     28          8           0       -3.302240   -2.002917   -1.081332
 ---------------------------------------------------------------------

 SCF Done:  E(RHF) =  -868.340102222     A.U. after   16 cycles
 E2 =    -0.2599018987D+01 EUMP2 =    -0.87093912120899D+03

 The electronic state is 1-A.
 Alpha  occ. eigenvalues --  -20.61770 -20.61759 -20.60593 -20.60586 -15.86789
 Alpha  occ. eigenvalues --  -15.85642 -11.31841 -11.30860 -11.28382 -11.28361
 Alpha  occ. eigenvalues --  -11.28031 -11.27438 -11.27414 -11.27310 -11.27281
 Alpha  occ. eigenvalues --  -11.26942 -11.26347 -11.26306  -1.60847  -1.59673
 Alpha  occ. eigenvalues --   -1.40403  -1.39230  -1.19981  -1.19006  -1.09431
 Alpha  occ. eigenvalues --   -1.08390  -1.05333  -1.04394  -0.96318  -0.95253
 Alpha  occ. eigenvalues --   -0.86745  -0.85773  -0.83160  -0.82102  -0.78249
 Alpha  occ. eigenvalues --   -0.77204  -0.73010  -0.72190  -0.71859  -0.71075
 Alpha  occ. eigenvalues --   -0.70998  -0.69979  -0.65632  -0.65326  -0.64636
 Alpha  occ. eigenvalues --   -0.64365  -0.62687  -0.61749  -0.55831  -0.54746
 Alpha  occ. eigenvalues --   -0.53677  -0.53418  -0.52731  -0.52461  -0.49784
 Alpha  occ. eigenvalues --   -0.49744  -0.48625  -0.48602  -0.45871  -0.44669
 Alpha  occ. eigenvalues --   -0.37939  -0.36957  -0.36886  -0.36024
 Alpha virt. eigenvalues --    0.04230   0.05331   0.10735   0.11641   0.15800
 Alpha virt. eigenvalues --    0.16878   0.20920   0.21989   0.26848   0.27723
 Alpha virt. eigenvalues --    0.27772   0.28938   0.30575   0.31619   0.32004

 Mulliken charges:
               1
     1  C   -0.176816
     2  C   -0.222077
     3  C   -0.171857
     4  C    0.157022
     5  C   -0.172875
     6  C   -0.220703
     7  H    0.244255
     8  H    0.224286
     9  H    0.272922
    10  H    0.273657
    11  H    0.226429
    12  N    0.488115
    13  O   -0.461873
    14  O   -0.462541
    15  C   -0.169224
    16  C   -0.218545
    17  C   -0.172578
    18  C    0.157205
    19  C   -0.168829
    20  C   -0.217911
    21  H    0.229080
    22  H    0.225516
    23  H    0.274854
    24  H    0.275139
    25  H    0.226681
    26  N    0.486345
    27  O   -0.464750
    28  O   -0.460927
 Sum of Mulliken charges =  -0.00000

 Dipole moment (field-independent basis, Debye):
    X=             -4.4888    Y=              1.8073    Z=              0.2004  Tot=              4.8431
 Quadrupole moment (field-independent basis, Debye-Ang):
   XX=           -129.4676   YY=           -104.6713   ZZ=            -96.4717
   XY=            -28.0898   XZ=              1.4226   YZ=             -1.1565

 Normal termination of Gaussian 16 at Fri May  7 06:28:47 2021.
