 Gaussian 16, Revision A.03,
 Gaussian 16:  EM64L-G16RevA.03 25-Dec-2016

 -------------
 #p 6-31g* mp2
 -------------

 ------------------------------------------------------
 Input file generated by CHIRIPA (05-May-2021 14:55:24)
 ------------------------------------------------------
 Symbolic Z-matrix:
 Charge =  0 Multiplicity = 1

                         Standard orientation:
 ---------------------------------------------------------------------
 Center     Atomic      Atomic             Coordinates (Angstroms)
 Number     Number       Type             X           Y           Z
 ---------------------------------------------------------------------
      1          6           0        1.331852    2.405869    0.198405
      2          6           0        0.822632    1.484740   -0.722863
      3          6           0        1.527239    0.314405   -1.020173
      4          6           0        2.743441    0.096082   -0.374822
      5          6           0        3.277061    0.994672    0.547717
      6          6           0        2.555284    2.158332    0.829642
      7          1           0        0.777828    3.312421    0.423387
      8          1           0       -0.127249    1.674363   -1.214610
      9          1           0        1.156198   -0.415605   -1.729280
     10          1           0        4.226613    0.778061    1.021898
     11          1           0        2.953181    2.871922    1.545542
     12          7           0        3.498465   -1.139366   -0.681427
     13          8           0        4.567691   -1.308419   -0.099350
     14          8           0        3.006730   -1.915264   -1.498015
     15          6           0       -3.026020   -0.795997    0.969075
     16          6           0       -1.575424   -0.399548    1.245813
     17          6           0       -0.936295   -1.233494    2.356599
     18          1           0       -3.611237   -0.689157    1.892683
     19          1           0       -3.062536   -1.860027    0.697227
     20          1           0       -1.541492    0.663757    1.515712
     21          1           0       -0.993633   -0.507162    0.321392
     22          1           0       -0.940745   -2.295805    2.091881
     23          1           0       -1.491717   -1.118234    3.292987
     24          1           0        0.100481   -0.933396    2.537971
     25          6           0       -3.678631    0.028767   -0.138893
     26          6           0       -5.129227   -0.367681   -0.415631
     27          6           0       -5.768355    0.466265   -1.526418
     28          1           0       -3.642115    1.092797    0.132954
     29          1           0       -3.093413   -0.078073   -1.062501
     30          1           0       -5.711018   -0.260068    0.508789
     31          1           0       -5.163158   -1.430987   -0.685530
     32          1           0       -5.212933    0.351004   -2.462805
     33          1           0       -5.763905    1.528575   -1.261699
     34          1           0       -6.805132    0.166166   -1.707790
 ---------------------------------------------------------------------

 SCF Done:  E(RHF) =  -669.534504313     A.U. after   15 cycles
 E2 =    -0.2093350208D+01 EUMP2 =    -0.67162785452079D+03

 The electronic state is 1-A.
 Alpha  occ. eigenvalues --  -20.60788 -20.60782 -15.85841 -11.31222 -11.27754
 Alpha  occ. eigenvalues --  -11.27750 -11.27488 -11.26802 -11.26770 -11.22026
 Alpha  occ. eigenvalues --  -11.21935 -11.21875 -11.21711 -11.21486 -11.21232
 Alpha  occ. eigenvalues --   -1.59862  -1.39416  -1.19384  -1.08853  -1.08763
 Alpha  occ. eigenvalues --   -1.04798  -1.03870  -0.96327  -0.95609  -0.87341
 Alpha  occ. eigenvalues --   -0.86179  -0.82450  -0.79961  -0.78695  -0.77479
 Alpha  occ. eigenvalues --   -0.72058  -0.71185  -0.70481  -0.65485  -0.65028
 Alpha  occ. eigenvalues --   -0.64785  -0.62141  -0.61272  -0.59713  -0.57965
 Alpha  occ. eigenvalues --   -0.55621  -0.55276  -0.53208  -0.52922  -0.52853
 Alpha  occ. eigenvalues --   -0.52750  -0.50268  -0.48818  -0.48813  -0.48268
 Alpha  occ. eigenvalues --   -0.47001  -0.46216  -0.46148  -0.44817  -0.44152
 Alpha  occ. eigenvalues --   -0.37340  -0.36265
 Alpha virt. eigenvalues --    0.05010   0.11225   0.16443   0.20534   0.22724
 Alpha virt. eigenvalues --    0.23996   0.25342   0.26225   0.27466   0.28240
 Alpha virt. eigenvalues --    0.29047   0.30995   0.31153   0.31583   0.31820

 Mulliken charges:
               1
     1  C   -0.172440
     2  C   -0.211799
     3  C   -0.172927
     4  C    0.158967
     5  C   -0.172408
     6  C   -0.218227
     7  H    0.225550
     8  H    0.225819
     9  H    0.275044
    10  H    0.275572
    11  H    0.223556
    12  N    0.488125
    13  O   -0.460204
    14  O   -0.460523
    15  C   -0.298465
    16  C   -0.299186
    17  C   -0.476799
    18  H    0.150356
    19  H    0.152407
    20  H    0.145479
    21  H    0.151951
    22  H    0.158737
    23  H    0.154457
    24  H    0.162100
    25  C   -0.297899
    26  C   -0.299684
    27  C   -0.476011
    28  H    0.145551
    29  H    0.144140
    30  H    0.153452
    31  H    0.154484
    32  H    0.154563
    33  H    0.153856
    34  H    0.162406
 Sum of Mulliken charges =  -0.00000

 Dipole moment (field-independent basis, Debye):
    X=             -2.6717    Y=              4.3133    Z=              1.1066  Tot=              5.1930
 Quadrupole moment (field-independent basis, Debye-Ang):
   XX=           -107.3052   YY=            -93.8588   ZZ=            -94.1666
   XY=             13.2128   XZ=              5.9726   YZ=              0.3555

 Normal termination of Gaussian 16 at Thu May  6 04:44:10 2021.
