 Gaussian 16, Revision A.03,
 Gaussian 16:  EM64L-G16RevA.03 25-Dec-2016

 -------------
 #p 6-31g* mp2
 -------------

 ------------------------------------------------------
 Input file generated by CHIRIPA (05-May-2021 14:57:21)
 ------------------------------------------------------
 Symbolic Z-matrix:
 Charge =  0 Multiplicity = 1

                         Standard orientation:
 ---------------------------------------------------------------------
 Center     Atomic      Atomic             Coordinates (Angstroms)
 Number     Number       Type             X           Y           Z
 ---------------------------------------------------------------------
      1          6           0        5.578566    1.041090    0.318285
      2          6           0        4.514658    1.917481    0.080465
      3          6           0        3.221625    1.426002   -0.122175
      4          6           0        3.027532    0.046202   -0.080103
      5          6           0        4.067007   -0.852514    0.154611
      6          6           0        5.351745   -0.338678    0.354535
      7          1           0        6.579803    1.431566    0.474646
      8          1           0        4.687860    2.989499    0.051762
      9          1           0        2.379874    2.081934   -0.308256
     10          1           0        3.863267   -1.916181    0.177421
     11          1           0        6.176092   -1.021658    0.539023
     12          7           0        1.663047   -0.485939   -0.293192
     13          8           0        1.518293   -1.705743   -0.251228
     14          8           0        0.764154    0.326850   -0.498140
     15          6           0       -4.847947    1.817825    0.149633
     16          6           0       -4.297087    1.428942   -1.075865
     17          6           0       -3.411955    0.349030   -1.145705
     18          6           0       -3.098166   -0.322591    0.034867
     19          6           0       -3.630494    0.040799    1.270935
     20          6           0       -4.513481    1.123736    1.317063
     21          1           0       -5.534706    2.657902    0.194677
     22          1           0       -4.555039    1.966139   -1.984119
     23          1           0       -2.970932    0.026738   -2.081144
     24          1           0       -3.354403   -0.514116    2.159338
     25          1           0       -4.939759    1.423521    2.270195
     26          7           0       -2.162250   -1.467447   -0.026519
     27          8           0       -1.901802   -2.042759    1.027910
     28          8           0       -1.706850   -1.767796   -1.127899
 ---------------------------------------------------------------------

 SCF Done:  E(RHF) =  -868.335808105     A.U. after   16 cycles
 E2 =    -0.2601763547D+01 EUMP2 =    -0.87093757165285D+03

 The electronic state is 1-A.
 Alpha  occ. eigenvalues --  -20.60015 -20.59898 -20.58936 -20.58836 -15.85014
 Alpha  occ. eigenvalues --  -15.83967 -11.30671 -11.29833 -11.27300 -11.27243
 Alpha  occ. eigenvalues --  -11.27075 -11.26503 -11.26449 -11.26372 -11.26365
 Alpha  occ. eigenvalues --  -11.26334 -11.25658 -11.25627  -1.59009  -1.57909
 Alpha  occ. eigenvalues --   -1.38563  -1.37478  -1.18869  -1.18062  -1.08209
 Alpha  occ. eigenvalues --   -1.07366  -1.04316  -1.03562  -0.94997  -0.94122
 Alpha  occ. eigenvalues --   -0.85701  -0.84936  -0.81832  -0.80985  -0.76830
 Alpha  occ. eigenvalues --   -0.75922  -0.71230  -0.70383  -0.70202  -0.69981
 Alpha  occ. eigenvalues --   -0.69208  -0.69201  -0.64518  -0.64320  -0.63726
 Alpha  occ. eigenvalues --   -0.63597  -0.61661  -0.60915  -0.54811  -0.54080
 Alpha  occ. eigenvalues --   -0.52629  -0.52415  -0.51843  -0.51681  -0.48091
 Alpha  occ. eigenvalues --   -0.47989  -0.46930  -0.46813  -0.43909  -0.42734
 Alpha  occ. eigenvalues --   -0.36867  -0.36066  -0.35933  -0.35186
 Alpha virt. eigenvalues --    0.05704   0.06688   0.11717   0.12465   0.17153
 Alpha virt. eigenvalues --    0.18057   0.21809   0.22434   0.27696   0.28297
 Alpha virt. eigenvalues --    0.28730   0.29382   0.31332   0.31917   0.32985

 Mulliken charges:
               1
     1  C   -0.171803
     2  C   -0.218540
     3  C   -0.171763
     4  C    0.159728
     5  C   -0.170912
     6  C   -0.218587
     7  H    0.223565
     8  H    0.220813
     9  H    0.272902
    10  H    0.277812
    11  H    0.222447
    12  N    0.488347
    13  O   -0.441230
    14  O   -0.471477
    15  C   -0.173124
    16  C   -0.219511
    17  C   -0.166617
    18  C    0.166636
    19  C   -0.172312
    20  C   -0.219076
    21  H    0.219822
    22  H    0.218418
    23  H    0.275631
    24  H    0.272464
    25  H    0.217975
    26  N    0.494530
    27  O   -0.466828
    28  O   -0.449310
 Sum of Mulliken charges =  -0.00000

 Dipole moment (field-independent basis, Debye):
    X=              1.7967    Y=              5.5037    Z=              0.8172  Tot=              5.8470
 Quadrupole moment (field-independent basis, Debye-Ang):
   XX=            -58.5173   YY=           -103.7757   ZZ=           -101.0792
   XY=             -7.3690   XZ=              1.1629   YZ=             -1.1999

 Normal termination of Gaussian 16 at Thu May  6 19:25:57 2021.
