 Gaussian 16, Revision A.03,
 Gaussian 16:  EM64L-G16RevA.03 25-Dec-2016

 -------------
 #p 6-31g* mp2
 -------------

 ------------------------------------------------------
 Input file generated by CHIRIPA (05-May-2021 14:51:07)
 ------------------------------------------------------
 Symbolic Z-matrix:
 Charge =  0 Multiplicity = 1

                         Standard orientation:
 ---------------------------------------------------------------------
 Center     Atomic      Atomic             Coordinates (Angstroms)
 Number     Number       Type             X           Y           Z
 ---------------------------------------------------------------------
      1          6           0        2.934509    1.279357   -0.208643
      2          6           0        1.907579    2.335772    0.200487
      3          6           0        2.287778    3.741485   -0.265573
      4          1           0        3.915457    1.551387    0.204499
      5          1           0        3.042744    1.287381   -1.302085
      6          1           0        1.800294    2.324807    1.292726
      7          1           0        0.928922    2.061094   -0.213516
      8          1           0        2.375552    3.775124   -1.356336
      9          1           0        3.251875    4.040335    0.158464
     10          1           0        1.539981    4.480918    0.037574
     11          6           0        2.568391   -0.131050    0.250092
     12          6           0        3.595322   -1.187465   -0.159037
     13          6           0        3.215122   -2.593179    0.307023
     14          1           0        2.460156   -0.139074    1.343535
     15          1           0        1.587444   -0.403080   -0.163049
     16          1           0        4.573979   -0.912788    0.254966
     17          1           0        3.702606   -1.176500   -1.251276
     18          1           0        2.251025   -2.892029   -0.117014
     19          1           0        3.127349   -2.626818    1.397786
     20          1           0        3.962919   -3.332612    0.003876
     21          6           0       -2.804517    0.166978    0.156305
     22          6           0       -4.184382    0.761088   -0.128288
     23          6           0       -4.274874    2.244487    0.231060
     24          1           0       -2.565940    0.303257    1.220003
     25          1           0       -2.047560    0.728810   -0.408281
     26          1           0       -4.938667    0.197426    0.435590
     27          1           0       -4.419785    0.623207   -1.191392
     28          1           0       -3.543981    2.824806   -0.341328
     29          1           0       -4.065811    2.396605    1.294899
     30          1           0       -5.269689    2.648827    0.019606
     31          6           0       -2.698383   -1.315285   -0.197755
     32          6           0       -1.318517   -1.909394    0.086838
     33          6           0       -1.228027   -3.392794   -0.272509
     34          1           0       -3.455339   -1.877116    0.366831
     35          1           0       -2.936959   -1.451564   -1.261453
     36          1           0       -1.083116   -1.771515    1.149942
     37          1           0       -0.564234   -1.345732   -0.477040
     38          1           0       -1.437089   -3.544911   -1.336349
     39          1           0       -1.958920   -3.973113    0.299877
     40          1           0       -0.233212   -3.797134   -0.061056
 ---------------------------------------------------------------------

 SCF Done:  E(RHF) =  -470.733084829     A.U. after   11 cycles
 E2 =    -0.1583820479D+01 EUMP2 =    -0.47231690530862D+03

 The electronic state is 1-A.
 Alpha  occ. eigenvalues --  -11.21618 -11.21610 -11.21587 -11.21582 -11.21427
 Alpha  occ. eigenvalues --  -11.21368 -11.21368 -11.21292 -11.21090 -11.21080
 Alpha  occ. eigenvalues --  -11.21062 -11.21059  -1.08462  -1.08397  -1.03563
 Alpha  occ. eigenvalues --   -1.03500  -0.96004  -0.95957  -0.87040  -0.86954
 Alpha  occ. eigenvalues --   -0.79650  -0.79550  -0.78375  -0.78104  -0.65176
 Alpha  occ. eigenvalues --   -0.64961  -0.61019  -0.60864  -0.59432  -0.59264
 Alpha  occ. eigenvalues --   -0.57653  -0.57530  -0.55287  -0.55262  -0.52723
 Alpha  occ. eigenvalues --   -0.52659  -0.52525  -0.52267  -0.50003  -0.49858
 Alpha  occ. eigenvalues --   -0.47971  -0.47852  -0.46791  -0.46537  -0.46161
 Alpha  occ. eigenvalues --   -0.45779  -0.45694  -0.45180  -0.43800  -0.43761
 Alpha virt. eigenvalues --    0.20567   0.22445   0.23408   0.24553   0.25220
 Alpha virt. eigenvalues --    0.26435   0.26796   0.27211   0.28604   0.29619
 Alpha virt. eigenvalues --    0.30595   0.30903   0.31606   0.31733   0.31946

 Mulliken charges:
               1
     1  C   -0.297789
     2  C   -0.300504
     3  C   -0.475740
     4  H    0.149574
     5  H    0.148919
     6  H    0.152203
     7  H    0.152318
     8  H    0.154908
     9  H    0.155244
    10  H    0.160340
    11  C   -0.306159
    12  C   -0.298996
    13  C   -0.480679
    14  H    0.149253
    15  H    0.158209
    16  H    0.151892
    17  H    0.151420
    18  H    0.159696
    19  H    0.155184
    20  H    0.160227
    21  C   -0.299286
    22  C   -0.299682
    23  C   -0.475678
    24  H    0.150259
    25  H    0.149688
    26  H    0.152100
    27  H    0.151867
    28  H    0.155150
    29  H    0.155331
    30  H    0.160285
    31  C   -0.297736
    32  C   -0.305142
    33  C   -0.479827
    34  H    0.149777
    35  H    0.149339
    36  H    0.153102
    37  H    0.156438
    38  H    0.154859
    39  H    0.155684
    40  H    0.163952
 Sum of Mulliken charges =  -0.00000

 Dipole moment (field-independent basis, Debye):
    X=             -0.0248    Y=             -0.0109    Z=              0.0192  Tot=              0.0333
 Quadrupole moment (field-independent basis, Debye-Ang):
   XX=            -84.5871   YY=            -87.0271   ZZ=            -83.2051
   XY=              0.2550   XZ=              0.2273   YZ=             -0.0423

 Normal termination of Gaussian 16 at Thu May  6 03:38:17 2021.
