 Gaussian 16, Revision A.03,
 Gaussian 16:  EM64L-G16RevA.03 25-Dec-2016

 -------------
 #p 6-31g* mp2
 -------------

 ------------------------------------------------------
 Input file generated by CHIRIPA (05-May-2021 14:51:14)
 ------------------------------------------------------
 Symbolic Z-matrix:
 Charge =  0 Multiplicity = 1

                         Standard orientation:
 ---------------------------------------------------------------------
 Center     Atomic      Atomic             Coordinates (Angstroms)
 Number     Number       Type             X           Y           Z
 ---------------------------------------------------------------------
      1          6           0       -3.199020   -0.427464   -0.102775
      2          6           0       -2.556463   -1.276332    0.994734
      3          6           0       -1.354140   -2.077647    0.494627
      4          1           0       -3.510461   -1.081762   -0.928513
      5          1           0       -2.445711    0.258395   -0.514501
      6          1           0       -3.311117   -1.959426    1.405218
      7          1           0       -2.246688   -0.619960    1.818039
      8          1           0       -0.581074   -1.408492    0.103215
      9          1           0       -1.651551   -2.755569   -0.311951
     10          1           0       -0.910152   -2.677259    1.295377
     11          6           0       -4.402306    0.379411    0.381771
     12          6           0       -5.044862    1.228280   -0.715739
     13          6           0       -6.247186    2.029594   -0.215631
     14          1           0       -5.155615   -0.306448    0.793496
     15          1           0       -4.090864    1.033710    1.207509
     16          1           0       -5.354637    0.571907   -1.539043
     17          1           0       -4.290208    1.911373   -1.126222
     18          1           0       -5.949775    2.707517    0.590947
     19          1           0       -7.020252    1.360440    0.175781
     20          1           0       -6.691174    2.629206   -1.016381
     21          6           0        4.075128    0.694334   -0.381961
     22          6           0        4.937758    1.408626    0.659020
     23          6           0        5.479552    2.748189    0.159196
     24          1           0        4.667975    0.534758   -1.293010
     25          1           0        3.237663    1.347247   -0.664368
     26          1           0        5.772571    0.754005    0.940402
     27          1           0        4.342846    1.566349    1.567766
     28          1           0        4.657815    3.422233   -0.103510
     29          1           0        6.095662    2.605274   -0.734439
     30          1           0        6.093409    3.241694    0.919126
     31          6           0        3.526198   -0.646282    0.102965
     32          6           0        2.663568   -1.360573   -0.938016
     33          6           0        2.121775   -2.700137   -0.438192
     34          1           0        4.363662   -1.299195    0.385372
     35          1           0        2.933350   -0.486705    1.014015
     36          1           0        3.258479   -1.518296   -1.846762
     37          1           0        1.828755   -0.705952   -1.219398
     38          1           0        1.505663   -2.557221    0.455443
     39          1           0        2.943511   -3.374181   -0.175486
     40          1           0        1.507917   -3.193641   -1.198121
 ---------------------------------------------------------------------

 SCF Done:  E(RHF) =  -470.732253754     A.U. after   11 cycles
 E2 =    -0.1583109637D+01 EUMP2 =    -0.47231536339064D+03

 The electronic state is 1-A.
 Alpha  occ. eigenvalues --  -11.21614 -11.21596 -11.21593 -11.21554 -11.21421
 Alpha  occ. eigenvalues --  -11.21387 -11.21361 -11.21326 -11.21082 -11.21070
 Alpha  occ. eigenvalues --  -11.21049 -11.20862  -1.08448  -1.08399  -1.03575
 Alpha  occ. eigenvalues --   -1.03456  -0.96073  -0.95855  -0.87127  -0.86836
 Alpha  occ. eigenvalues --   -0.79682  -0.79480  -0.78259  -0.78215  -0.65129
 Alpha  occ. eigenvalues --   -0.64998  -0.61129  -0.60742  -0.59375  -0.59299
 Alpha  occ. eigenvalues --   -0.57649  -0.57488  -0.55536  -0.55017  -0.52801
 Alpha  occ. eigenvalues --   -0.52600  -0.52360  -0.52293  -0.50076  -0.49678
 Alpha  occ. eigenvalues --   -0.47908  -0.47859  -0.46668  -0.46539  -0.45813
 Alpha  occ. eigenvalues --   -0.45758  -0.45691  -0.45680  -0.43789  -0.43712
 Alpha virt. eigenvalues --    0.21494   0.23056   0.23639   0.24916   0.26302
 Alpha virt. eigenvalues --    0.26654   0.27091   0.27487   0.27744   0.29303
 Alpha virt. eigenvalues --    0.30170   0.30484   0.31541   0.32203   0.32377

 Mulliken charges:
               1
     1  C   -0.298428
     2  C   -0.300465
     3  C   -0.477615
     4  H    0.149731
     5  H    0.149088
     6  H    0.151821
     7  H    0.151383
     8  H    0.159679
     9  H    0.155547
    10  H    0.160332
    11  C   -0.298243
    12  C   -0.299632
    13  C   -0.475708
    14  H    0.149644
    15  H    0.149550
    16  H    0.151993
    17  H    0.151836
    18  H    0.155154
    19  H    0.155227
    20  H    0.160296
    21  C   -0.298180
    22  C   -0.299617
    23  C   -0.475673
    24  H    0.149725
    25  H    0.149046
    26  H    0.151997
    27  H    0.151785
    28  H    0.155037
    29  H    0.155218
    30  H    0.160220
    31  C   -0.298271
    32  C   -0.301957
    33  C   -0.478924
    34  H    0.149724
    35  H    0.149303
    36  H    0.151974
    37  H    0.151448
    38  H    0.162008
    39  H    0.153681
    40  H    0.160265
 Sum of Mulliken charges =  -0.00000

 Dipole moment (field-independent basis, Debye):
    X=             -0.0243    Y=             -0.0221    Z=              0.0066  Tot=              0.0335
 Quadrupole moment (field-independent basis, Debye-Ang):
   XX=            -84.8449   YY=            -85.3347   ZZ=            -84.7235
   XY=              0.2626   XZ=              0.1761   YZ=              0.4301

 Normal termination of Gaussian 16 at Wed May  5 15:21:54 2021.
