 Gaussian 16, Revision A.03,
 Gaussian 16:  EM64L-G16RevA.03 25-Dec-2016

 -------------
 #p 6-31g* mp2
 -------------

 ------------------------------------------------------
 Input file generated by CHIRIPA (05-May-2021 14:57:26)
 ------------------------------------------------------
 Symbolic Z-matrix:
 Charge =  0 Multiplicity = 1

                         Standard orientation:
 ---------------------------------------------------------------------
 Center     Atomic      Atomic             Coordinates (Angstroms)
 Number     Number       Type             X           Y           Z
 ---------------------------------------------------------------------
      1          6           0       -3.609675    2.351481   -0.133024
      2          6           0       -2.344614    1.765668   -0.019161
      3          6           0       -2.207182    0.374970    0.021096
      4          6           0       -3.361241   -0.403245   -0.055192
      5          6           0       -4.635431    0.150605   -0.169116
      6          6           0       -4.749037    1.543504   -0.207507
      7          1           0       -3.707181    3.432663   -0.163572
      8          1           0       -1.458023    2.390675    0.038876
      9          1           0       -1.239972   -0.104850    0.108822
     10          1           0       -5.500825   -0.498544   -0.224944
     11          1           0       -5.732775    1.995697   -0.295979
     12          7           0       -3.228359   -1.876679   -0.013561
     13          8           0       -4.260624   -2.540243   -0.082482
     14          8           0       -2.094459   -2.340094    0.087201
     15          6           0        2.262403    2.408450    0.299038
     16          6           0        3.535324    2.317782   -0.273650
     17          6           0        4.165841    1.077456   -0.409983
     18          6           0        3.491490   -0.056928    0.039142
     19          6           0        2.222806    0.000837    0.613942
     20          6           0        1.611354    1.251728    0.740228
     21          1           0        1.780007    3.376069    0.401042
     22          1           0        4.043314    3.214436   -0.617169
     23          1           0        5.150905    0.978526   -0.849619
     24          1           0        1.741458   -0.910619    0.947065
     25          1           0        0.622746    1.319128    1.185375
     26          7           0        4.148898   -1.375598   -0.099869
     27          8           0        3.533652   -2.360109    0.303673
     28          8           0        5.266973   -1.399691   -0.609738
 ---------------------------------------------------------------------

 SCF Done:  E(RHF) =  -868.335957754     A.U. after   16 cycles
 E2 =    -0.2601299002D+01 EUMP2 =    -0.87093725675610D+03

 The electronic state is 1-A.
 Alpha  occ. eigenvalues --  -20.61167 -20.61162 -20.60867 -20.60838 -15.86228
 Alpha  occ. eigenvalues --  -15.85920 -11.31770 -11.31537 -11.28433 -11.28323
 Alpha  occ. eigenvalues --  -11.28163 -11.28157 -11.28143 -11.28057 -11.27514
 Alpha  occ. eigenvalues --  -11.27358 -11.27341 -11.27215  -1.60238  -1.59928
 Alpha  occ. eigenvalues --   -1.39788  -1.39472  -1.19968  -1.19770  -1.09323
 Alpha  occ. eigenvalues --   -1.09135  -1.05438  -1.05204  -0.96129  -0.95912
 Alpha  occ. eigenvalues --   -0.86802  -0.86619  -0.82996  -0.82731  -0.78053
 Alpha  occ. eigenvalues --   -0.77678  -0.72439  -0.72134  -0.71565  -0.71257
 Alpha  occ. eigenvalues --   -0.71086  -0.70893  -0.65676  -0.65537  -0.65378
 Alpha  occ. eigenvalues --   -0.65216  -0.62982  -0.62298  -0.55901  -0.55748
 Alpha  occ. eigenvalues --   -0.53717  -0.53542  -0.53503  -0.53297  -0.49211
 Alpha  occ. eigenvalues --   -0.49188  -0.48919  -0.48867  -0.45154  -0.44821
 Alpha  occ. eigenvalues --   -0.37937  -0.37786  -0.37020  -0.36816
 Alpha virt. eigenvalues --    0.04545   0.04789   0.10636   0.10717   0.15913
 Alpha virt. eigenvalues --    0.16082   0.18699   0.22218   0.25052   0.25339
 Alpha virt. eigenvalues --    0.27954   0.30036   0.30194   0.30637   0.32237

 Mulliken charges:
               1
     1  C   -0.170172
     2  C   -0.220403
     3  C   -0.173859
     4  C    0.159923
     5  C   -0.169188
     6  C   -0.218221
     7  H    0.226170
     8  H    0.215333
     9  H    0.273016
    10  H    0.278223
    11  H    0.225843
    12  N    0.488112
    13  O   -0.457645
    14  O   -0.459101
    15  C   -0.172000
    16  C   -0.218284
    17  C   -0.169006
    18  C    0.158902
    19  C   -0.171750
    20  C   -0.227260
    21  H    0.221410
    22  H    0.224619
    23  H    0.277873
    24  H    0.285182
    25  H    0.219107
    26  N    0.487718
    27  O   -0.454290
    28  O   -0.460249
 Sum of Mulliken charges =  -0.00000

 Dipole moment (field-independent basis, Debye):
    X=             -2.7692    Y=              9.5991    Z=              0.2758  Tot=              9.9943
 Quadrupole moment (field-independent basis, Debye-Ang):
   XX=           -108.0342   YY=           -109.5865   ZZ=           -105.4994
   XY=              1.4628   XZ=              0.7687   YZ=             -1.2644

 Normal termination of Gaussian 16 at Wed May  5 19:34:01 2021.
