 Gaussian 16, Revision A.03,
 Gaussian 16:  EM64L-G16RevA.03 25-Dec-2016

 -------------
 #p 6-31g* mp2
 -------------

 ------------------------------------------------------
 Input file generated by CHIRIPA (05-May-2021 14:55:23)
 ------------------------------------------------------
 Symbolic Z-matrix:
 Charge =  0 Multiplicity = 1

                         Standard orientation:
 ---------------------------------------------------------------------
 Center     Atomic      Atomic             Coordinates (Angstroms)
 Number     Number       Type             X           Y           Z
 ---------------------------------------------------------------------
      1          6           0       -3.997994   -1.292318   -0.799969
      2          6           0       -4.174628   -0.457541    0.308395
      3          6           0       -3.230136    0.527077    0.613371
      4          6           0       -2.115801    0.649758   -0.215180
      5          6           0       -1.911612   -0.166664   -1.326508
      6          6           0       -2.869041   -1.144475   -1.612450
      7          1           0       -4.736723   -2.054549   -1.029488
      8          1           0       -5.050420   -0.570080    0.941142
      9          1           0       -3.341993    1.186822    1.465218
     10          1           0       -1.028376   -0.030487   -1.938691
     11          1           0       -2.729256   -1.791360   -2.473871
     12          7           0       -1.109062    1.688527    0.097610
     13          8           0       -0.135945    1.776353   -0.648023
     14          8           0       -1.312160    2.395218    1.082483
     15          6           0        2.412161   -0.605969    0.911392
     16          6           0        1.227585   -1.544238    0.678124
     17          6           0        0.219053   -1.519966    1.827066
     18          1           0        2.914175   -0.885365    1.847802
     19          1           0        2.038160    0.417811    1.050649
     20          1           0        1.603806   -2.565723    0.537972
     21          1           0        0.728448   -1.262698   -0.257938
     22          1           0       -0.184057   -0.511406    1.964576
     23          1           0        0.696275   -1.821835    2.765008
     24          1           0       -0.619513   -2.197837    1.639561
     25          6           0        3.429051   -0.619136   -0.228560
     26          6           0        4.613628    0.319134    0.004707
     27          6           0        5.622160    0.294861   -1.144235
     28          1           0        3.803052   -1.642916   -0.367817
     29          1           0        2.927037   -0.339741   -1.164971
     30          1           0        5.112764    0.037593    0.940770
     31          1           0        4.237406    1.340618    0.144860
     32          1           0        5.144938    0.596730   -2.082177
     33          1           0        6.025269   -0.713699   -1.281745
     34          1           0        6.460726    0.972733   -0.956729
 ---------------------------------------------------------------------

 SCF Done:  E(RHF) =  -669.535755141     A.U. after   15 cycles
 E2 =    -0.2094682133D+01 EUMP2 =    -0.67163043727393D+03

 The electronic state is 1-A.
 Alpha  occ. eigenvalues --  -20.61031 -20.61020 -15.86028 -11.31281 -11.27853
 Alpha  occ. eigenvalues --  -11.27840 -11.27583 -11.26854 -11.26841 -11.21160
 Alpha  occ. eigenvalues --  -11.20865 -11.20775 -11.20668 -11.20544 -11.20479
 Alpha  occ. eigenvalues --   -1.60078  -1.39635  -1.19461  -1.08880  -1.07759
 Alpha  occ. eigenvalues --   -1.04851  -1.02981  -0.95731  -0.95421  -0.86452
 Alpha  occ. eigenvalues --   -0.86254  -0.82566  -0.79045  -0.77647  -0.77542
 Alpha  occ. eigenvalues --   -0.72262  -0.71437  -0.70579  -0.65124  -0.64862
 Alpha  occ. eigenvalues --   -0.64336  -0.62208  -0.60378  -0.58812  -0.57039
 Alpha  occ. eigenvalues --   -0.55362  -0.54775  -0.53107  -0.52947  -0.52137
 Alpha  occ. eigenvalues --   -0.51857  -0.49401  -0.49034  -0.49016  -0.47365
 Alpha  occ. eigenvalues --   -0.46078  -0.45214  -0.44994  -0.44870  -0.43183
 Alpha  occ. eigenvalues --   -0.37401  -0.36414
 Alpha virt. eigenvalues --    0.04855   0.11112   0.16367   0.21089   0.23315
 Alpha virt. eigenvalues --    0.24649   0.26213   0.27346   0.27936   0.28473
 Alpha virt. eigenvalues --    0.28963   0.30807   0.31723   0.32041   0.32149

 Mulliken charges:
               1
     1  C   -0.170633
     2  C   -0.218166
     3  C   -0.170973
     4  C    0.160939
     5  C   -0.170351
     6  C   -0.219225
     7  H    0.226066
     8  H    0.223928
     9  H    0.275899
    10  H    0.275188
    11  H    0.224076
    12  N    0.489585
    13  O   -0.460052
    14  O   -0.458771
    15  C   -0.301357
    16  C   -0.302440
    17  C   -0.477733
    18  H    0.145544
    19  H    0.167499
    20  H    0.147920
    21  H    0.148518
    22  H    0.154995
    23  H    0.155870
    24  H    0.156078
    25  C   -0.297333
    26  C   -0.300679
    27  C   -0.475518
    28  H    0.143722
    29  H    0.151974
    30  H    0.149294
    31  H    0.159754
    32  H    0.155387
    33  H    0.151939
    34  H    0.159054
 Sum of Mulliken charges =  -0.00000

 Dipole moment (field-independent basis, Debye):
    X=             -3.6999    Y=             -3.4595    Z=             -1.1142  Tot=              5.1864
 Quadrupole moment (field-independent basis, Debye-Ang):
   XX=            -79.4406   YY=            -99.4766   ZZ=            -91.8583
   XY=              4.7325   XZ=              1.6035   YZ=              1.2967

 Normal termination of Gaussian 16 at Wed May  5 22:22:05 2021.
