 Gaussian 16, Revision A.03,
 Gaussian 16:  EM64L-G16RevA.03 25-Dec-2016

 -------------
 #p 6-31g* mp2
 -------------

 ------------------------------------------------------
 Input file generated by CHIRIPA (05-May-2021 14:55:19)
 ------------------------------------------------------
 Symbolic Z-matrix:
 Charge =  0 Multiplicity = 1

                         Standard orientation:
 ---------------------------------------------------------------------
 Center     Atomic      Atomic             Coordinates (Angstroms)
 Number     Number       Type             X           Y           Z
 ---------------------------------------------------------------------
      1          6           0       -3.802804   -2.017833   -0.644248
      2          6           0       -4.111053   -0.696995   -0.986141
      3          6           0       -3.333937    0.360836   -0.504860
      4          6           0       -2.250948    0.060292    0.319820
      5          6           0       -1.918368   -1.245142    0.678319
      6          6           0       -2.709373   -2.287216    0.185428
      7          1           0       -4.411881   -2.833461   -1.022629
      8          1           0       -4.959632   -0.484815   -1.630299
      9          1           0       -3.550105    1.392693   -0.753781
     10          1           0       -1.066203   -1.425321    1.322344
     11          1           0       -2.467628   -3.312021    0.452598
     12          7           0       -1.420898    1.171830    0.835477
     13          8           0       -0.472068    0.880596    1.560419
     14          8           0       -1.734853    2.313240    0.504942
     15          6           0        3.203872   -0.562435   -0.509443
     16          6           0        4.207341   -1.265625    0.405194
     17          6           0        4.492261   -2.704744   -0.025562
     18          1           0        2.266334   -1.134950   -0.523392
     19          1           0        3.589265   -0.568681   -1.538437
     20          1           0        3.820810   -1.256834    1.432390
     21          1           0        5.142533   -0.691265    0.417118
     22          1           0        4.901349   -2.729172   -1.040771
     23          1           0        3.572116   -3.297954   -0.019731
     24          1           0        5.212075   -3.188579    0.641995
     25          6           0        2.908768    0.877066   -0.091732
     26          6           0        1.905299    1.580255   -1.006368
     27          6           0        1.620379    3.019375   -0.575613
     28          1           0        2.523375    0.883311    0.937262
     29          1           0        3.846305    1.449581   -0.077783
     30          1           0        0.970107    1.005896   -1.018292
     31          1           0        2.291831    1.571465   -2.033564
     32          1           0        2.540525    3.612585   -0.581444
     33          1           0        1.211292    3.043804    0.439597
     34          1           0        0.900566    3.503211   -1.243169
 ---------------------------------------------------------------------

 SCF Done:  E(RHF) =  -669.536375412     A.U. after   15 cycles
 E2 =    -0.2093663954D+01 EUMP2 =    -0.67163003936606D+03

 The electronic state is 1-A.
 Alpha  occ. eigenvalues --  -20.61124 -20.61101 -15.86095 -11.31381 -11.27932
 Alpha  occ. eigenvalues --  -11.27923 -11.27653 -11.26920 -11.26911 -11.21070
 Alpha  occ. eigenvalues --  -11.20760 -11.20684 -11.20438 -11.20206 -11.19346
 Alpha  occ. eigenvalues --   -1.60149  -1.39706  -1.19536  -1.08952  -1.07536
 Alpha  occ. eigenvalues --   -1.04921  -1.02595  -0.95804  -0.95020  -0.86325
 Alpha  occ. eigenvalues --   -0.86033  -0.82639  -0.78732  -0.77702  -0.77298
 Alpha  occ. eigenvalues --   -0.72328  -0.71503  -0.70643  -0.65194  -0.64926
 Alpha  occ. eigenvalues --   -0.64138  -0.62269  -0.59965  -0.58480  -0.56631
 Alpha  occ. eigenvalues --   -0.55435  -0.54304  -0.53246  -0.53012  -0.51731
 Alpha  occ. eigenvalues --   -0.51452  -0.49299  -0.49093  -0.48727  -0.47023
 Alpha  occ. eigenvalues --   -0.45805  -0.45168  -0.44764  -0.44642  -0.42836
 Alpha  occ. eigenvalues --   -0.37505  -0.36517
 Alpha virt. eigenvalues --    0.04782   0.11120   0.16248   0.21172   0.23555
 Alpha virt. eigenvalues --    0.25322   0.26820   0.27395   0.28262   0.28508
 Alpha virt. eigenvalues --    0.28984   0.30991   0.32032   0.32442   0.32499

 Mulliken charges:
               1
     1  C   -0.170250
     2  C   -0.218546
     3  C   -0.170500
     4  C    0.158004
     5  C   -0.171181
     6  C   -0.218434
     7  H    0.226429
     8  H    0.224221
     9  H    0.276184
    10  H    0.275810
    11  H    0.224254
    12  N    0.489622
    13  O   -0.460449
    14  O   -0.456305
    15  C   -0.296011
    16  C   -0.299470
    17  C   -0.474415
    18  H    0.143223
    19  H    0.146034
    20  H    0.152846
    21  H    0.151832
    22  H    0.154281
    23  H    0.150444
    24  H    0.158635
    25  C   -0.302053
    26  C   -0.292526
    27  C   -0.480532
    28  H    0.166561
    29  H    0.145280
    30  H    0.140612
    31  H    0.143713
    32  H    0.144933
    33  H    0.180542
    34  H    0.157215
 Sum of Mulliken charges =  -0.00000

 Dipole moment (field-independent basis, Debye):
    X=             -3.2497    Y=             -3.8073    Z=             -1.5931  Tot=              5.2530
 Quadrupole moment (field-independent basis, Debye-Ang):
   XX=            -80.3506   YY=            -94.5441   ZZ=            -95.3057
   XY=              7.3439   XZ=              5.0538   YZ=             -3.1783

 Normal termination of Gaussian 16 at Wed May  5 22:08:50 2021.
