 Gaussian 16, Revision A.03,
 Gaussian 16:  EM64L-G16RevA.03 25-Dec-2016

 -------------
 #p 6-31g* mp2
 -------------

 ------------------------------------------------------
 Input file generated by CHIRIPA (05-May-2021 14:55:18)
 ------------------------------------------------------
 Symbolic Z-matrix:
 Charge =  0 Multiplicity = 1

                         Standard orientation:
 ---------------------------------------------------------------------
 Center     Atomic      Atomic             Coordinates (Angstroms)
 Number     Number       Type             X           Y           Z
 ---------------------------------------------------------------------
      1          6           0        1.532731   -1.486580   -0.728145
      2          6           0        2.711085   -2.218744   -0.549426
      3          6           0        3.890932   -1.580264   -0.155915
      4          6           0        3.856369   -0.202131    0.051075
      5          6           0        2.698197    0.554899   -0.118731
      6          6           0        1.530053   -0.104532   -0.512607
      7          1           0        0.620743   -1.990705   -1.033976
      8          1           0        2.716114   -3.292169   -0.716098
      9          1           0        4.817159   -2.122766   -0.010272
     10          1           0        2.724267    1.623807    0.054974
     11          1           0        0.616395    0.466625   -0.650639
     12          7           0        5.099226    0.484890    0.467861
     13          8           0        5.042534    1.699984    0.643839
     14          8           0        6.106535   -0.204727    0.610668
     15          6           0       -5.341778    0.234016    0.352204
     16          6           0       -5.790151   -1.207141    0.107226
     17          6           0       -7.127833   -1.531342    0.773032
     18          1           0       -5.266372    0.408939    1.434175
     19          1           0       -6.114467    0.919717   -0.022178
     20          1           0       -5.016223   -1.889900    0.480709
     21          1           0       -5.864314   -1.378709   -0.974291
     22          1           0       -7.916546   -0.873854    0.393240
     23          1           0       -7.063635   -1.387949    1.856507
     24          1           0       -7.429366   -2.566532    0.585093
     25          6           0       -4.006143    0.573306   -0.307108
     26          6           0       -3.557769    2.014462   -0.062130
     27          6           0       -2.220088    2.338663   -0.727935
     28          1           0       -3.233455   -0.112395    0.067274
     29          1           0       -4.081549    0.398382   -1.389078
     30          1           0       -3.483607    2.186031    1.019388
     31          1           0       -4.331699    2.697221   -0.435612
     32          1           0       -2.284285    2.195269   -1.811410
     33          1           0       -1.431375    1.681175   -0.348143
     34          1           0       -1.918556    3.373852   -0.539996
 ---------------------------------------------------------------------

 SCF Done:  E(RHF) =  -669.535583475     A.U. after   15 cycles
 E2 =    -0.2090761175D+01 EUMP2 =    -0.67162634465014D+03

 The electronic state is 1-A.
 Alpha  occ. eigenvalues --  -20.60726 -20.60721 -15.85779 -11.31140 -11.27712
 Alpha  occ. eigenvalues --  -11.27699 -11.27449 -11.26728 -11.26688 -11.22399
 Alpha  occ. eigenvalues --  -11.22181 -11.22171 -11.22117 -11.21991 -11.21540
 Alpha  occ. eigenvalues --   -1.59802  -1.39356  -1.19311  -1.09138  -1.08708
 Alpha  occ. eigenvalues --   -1.04714  -1.04243  -0.96710  -0.95543  -0.87731
 Alpha  occ. eigenvalues --   -0.86113  -0.82376  -0.80314  -0.78942  -0.77424
 Alpha  occ. eigenvalues --   -0.71998  -0.71125  -0.70421  -0.65772  -0.64963
 Alpha  occ. eigenvalues --   -0.64735  -0.62107  -0.61606  -0.60071  -0.58308
 Alpha  occ. eigenvalues --   -0.56022  -0.55212  -0.53393  -0.53219  -0.53045
 Alpha  occ. eigenvalues --   -0.52732  -0.50640  -0.48772  -0.48753  -0.48606
 Alpha  occ. eigenvalues --   -0.47334  -0.46486  -0.46395  -0.44762  -0.44488
 Alpha  occ. eigenvalues --   -0.37295  -0.36317
 Alpha virt. eigenvalues --    0.05110   0.11322   0.16595   0.19895   0.22414
 Alpha virt. eigenvalues --    0.23678   0.25128   0.26223   0.26941   0.28337
 Alpha virt. eigenvalues --    0.28621   0.30017   0.31024   0.31348   0.31985

 Mulliken charges:
               1
     1  C   -0.173377
     2  C   -0.218524
     3  C   -0.171230
     4  C    0.158792
     5  C   -0.173591
     6  C   -0.227246
     7  H    0.226098
     8  H    0.223174
     9  H    0.275410
    10  H    0.276057
    11  H    0.236298
    12  N    0.488087
    13  O   -0.460424
    14  O   -0.460696
    15  C   -0.298774
    16  C   -0.299927
    17  C   -0.476063
    18  H    0.151432
    19  H    0.151604
    20  H    0.150526
    21  H    0.151964
    22  H    0.156413
    23  H    0.156278
    24  H    0.161228
    25  C   -0.298245
    26  C   -0.299453
    27  C   -0.482156
    28  H    0.144615
    29  H    0.149769
    30  H    0.155007
    31  H    0.155919
    32  H    0.157303
    33  H    0.147677
    34  H    0.166054
 Sum of Mulliken charges =  -0.00000

 Dipole moment (field-independent basis, Debye):
    X=             -4.6072    Y=             -2.3572    Z=             -1.4601  Tot=              5.3772
 Quadrupole moment (field-independent basis, Debye-Ang):
   XX=           -127.6950   YY=            -89.8769   ZZ=            -95.2368
   XY=            -11.7190   XZ=             -5.1961   YZ=              0.1696

 Normal termination of Gaussian 16 at Thu May  6 12:20:55 2021.
