 Gaussian 16, Revision A.03,
 Gaussian 16:  EM64L-G16RevA.03 25-Dec-2016

 -------------
 #p 6-31g* mp2
 -------------

 ------------------------------------------------------
 Input file generated by CHIRIPA (05-May-2021 14:53:12)
 ------------------------------------------------------
 Symbolic Z-matrix:
 Charge =  0 Multiplicity = 1

                         Standard orientation:
 ---------------------------------------------------------------------
 Center     Atomic      Atomic             Coordinates (Angstroms)
 Number     Number       Type             X           Y           Z
 ---------------------------------------------------------------------
      1          6           0        4.807336    0.161575    0.217875
      2          6           0        5.282307   -0.922735   -0.749936
      3          6           0        6.608311   -1.554539   -0.325281
      4          1           0        5.578643    0.940257    0.293278
      5          1           0        4.702683   -0.272956    1.221680
      6          1           0        5.384704   -0.486616   -1.751900
      7          1           0        4.509697   -1.698831   -0.823191
      8          1           0        6.516238   -2.015482    0.663484
      9          1           0        7.396216   -0.796380   -0.270502
     10          1           0        6.929242   -2.326964   -1.031130
     11          6           0        3.483004    0.802617   -0.193147
     12          6           0        3.008033    1.886928    0.774663
     13          6           0        1.682029    2.518731    0.350008
     14          1           0        3.587657    1.237149   -1.196953
     15          1           0        2.711697    0.023936   -0.268551
     16          1           0        3.780643    2.663023    0.847918
     17          1           0        2.905636    1.450809    1.776627
     18          1           0        0.894124    1.760572    0.295229
     19          1           0        1.774103    2.979674   -0.638757
     20          1           0        1.361099    3.291157    1.055857
     21          6           0       -5.395490    0.864471   -0.425103
     22          6           0       -4.170168    1.524735   -0.563510
     23          6           0       -2.968752    0.847010   -0.335832
     24          6           0       -3.029876   -0.496623    0.030504
     25          6           0       -4.234908   -1.182091    0.176529
     26          6           0       -5.423900   -0.484457   -0.056176
     27          1           0       -6.323954    1.398677   -0.603921
     28          1           0       -4.145070    2.572299   -0.849909
     29          1           0       -2.006217    1.333785   -0.435811
     30          1           0       -4.227942   -2.226683    0.463230
     31          1           0       -6.374041   -0.999782    0.052064
     32          7           0       -1.764567   -1.224639    0.274198
     33          8           0       -1.845420   -2.408105    0.595925
     34          8           0       -0.715924   -0.598008    0.138864
 ---------------------------------------------------------------------

 SCF Done:  E(RHF) =  -669.536467446     A.U. after   15 cycles
 E2 =    -0.2091132556D+01 EUMP2 =    -0.67162760000199D+03

 The electronic state is 1-A.
 Alpha  occ. eigenvalues --  -20.60974 -20.60967 -15.86012 -11.31289 -11.27852
 Alpha  occ. eigenvalues --  -11.27840 -11.27585 -11.26852 -11.26839 -11.20831
 Alpha  occ. eigenvalues --  -11.20767 -11.20553 -11.20428 -11.20355 -11.20259
 Alpha  occ. eigenvalues --   -1.60035  -1.39592  -1.19456  -1.08869  -1.07566
 Alpha  occ. eigenvalues --   -1.04846  -1.02734  -0.95718  -0.95192  -0.86251
 Alpha  occ. eigenvalues --   -0.86219  -0.82554  -0.78814  -0.77617  -0.77357
 Alpha  occ. eigenvalues --   -0.72242  -0.71345  -0.70566  -0.65116  -0.64850
 Alpha  occ. eigenvalues --   -0.64177  -0.62196  -0.60115  -0.58568  -0.56806
 Alpha  occ. eigenvalues --   -0.55355  -0.54461  -0.53181  -0.52939  -0.51933
 Alpha  occ. eigenvalues --   -0.51627  -0.49226  -0.48981  -0.48876  -0.47124
 Alpha  occ. eigenvalues --   -0.45815  -0.45008  -0.44926  -0.44786  -0.42981
 Alpha  occ. eigenvalues --   -0.37436  -0.36446
 Alpha virt. eigenvalues --    0.04915   0.11207   0.16418   0.21027   0.23705
 Alpha virt. eigenvalues --    0.24727   0.26223   0.27465   0.27754   0.28509
 Alpha virt. eigenvalues --    0.29190   0.30474   0.31595   0.32349   0.32608

 Mulliken charges:
               1
     1  C   -0.297834
     2  C   -0.299932
     3  C   -0.475302
     4  H    0.145679
     5  H    0.150241
     6  H    0.149516
     7  H    0.156388
     8  H    0.155255
     9  H    0.152916
    10  H    0.158534
    11  C   -0.303581
    12  C   -0.295969
    13  C   -0.490387
    14  H    0.144567
    15  H    0.167549
    16  H    0.146895
    17  H    0.153354
    18  H    0.177497
    19  H    0.148759
    20  H    0.152871
    21  C   -0.170347
    22  C   -0.219518
    23  C   -0.171259
    24  C    0.157196
    25  C   -0.170675
    26  C   -0.218738
    27  H    0.226012
    28  H    0.224383
    29  H    0.279325
    30  H    0.275688
    31  H    0.223763
    32  N    0.494480
    33  O   -0.459003
    34  O   -0.468322
 Sum of Mulliken charges =  -0.00000

 Dipole moment (field-independent basis, Debye):
    X=             -4.7211    Y=              2.3799    Z=             -0.8478  Tot=              5.3545
 Quadrupole moment (field-independent basis, Debye-Ang):
   XX=            -68.2859   YY=            -94.4927   ZZ=            -95.3074
   XY=             -2.7854   XZ=              1.5583   YZ=             -0.9128

 Normal termination of Gaussian 16 at Thu May  6 00:55:54 2021.
