 Gaussian 16, Revision A.03,
 Gaussian 16:  EM64L-G16RevA.03 25-Dec-2016

 -------------
 #p 6-31g* mp2
 -------------

 ------------------------------------------------------
 Input file generated by CHIRIPA (05-May-2021 14:55:21)
 ------------------------------------------------------
 Symbolic Z-matrix:
 Charge =  0 Multiplicity = 1

                         Standard orientation:
 ---------------------------------------------------------------------
 Center     Atomic      Atomic             Coordinates (Angstroms)
 Number     Number       Type             X           Y           Z
 ---------------------------------------------------------------------
      1          6           0        0.914692   -1.081770    1.760521
      2          6           0        1.662724   -2.043424    1.073360
      3          6           0        2.673149   -1.657290    0.187646
      4          6           0        2.909810   -0.294747    0.012269
      5          6           0        2.181720    0.687227    0.682270
      6          6           0        1.176116    0.278089    1.563131
      7          1           0        0.131642   -1.390663    2.446680
      8          1           0        1.461899   -3.100218    1.224686
      9          1           0        3.267420   -2.380723   -0.357244
     10          1           0        2.405108    1.733205    0.510674
     11          1           0        0.596775    1.027128    2.095436
     12          7           0        3.976950    0.126212   -0.922828
     13          8           0        4.165865    1.332936   -1.059820
     14          8           0        4.604253   -0.758534   -1.501059
     15          6           0       -3.299139    1.197395   -0.305137
     16          6           0       -2.025934    1.577369    0.451538
     17          6           0       -1.638122    3.043543    0.257300
     18          1           0       -3.156994    1.401901   -1.375144
     19          1           0       -4.122837    1.842972    0.029750
     20          1           0       -1.205202    0.930342    0.116322
     21          1           0       -2.171060    1.371755    1.519844
     22          1           0       -2.437656    3.703403    0.609338
     23          1           0       -1.466311    3.259481   -0.802158
     24          1           0       -0.725257    3.293555    0.806875
     25          6           0       -3.699730   -0.265232   -0.120807
     26          6           0       -4.972933   -0.645206   -0.877482
     27          6           0       -5.360747   -2.111380   -0.683244
     28          1           0       -2.876032   -0.910810   -0.455693
     29          1           0       -3.841875   -0.469738    0.949200
     30          1           0       -4.827809   -0.439592   -1.945787
     31          1           0       -5.793667    0.001821   -0.542265
     32          1           0       -5.532558   -2.327318    0.376214
     33          1           0       -4.561212   -2.771239   -1.035282
     34          1           0       -6.273612   -2.361391   -1.232818
 ---------------------------------------------------------------------

 SCF Done:  E(RHF) =  -669.534878658     A.U. after   15 cycles
 E2 =    -0.2092686563D+01 EUMP2 =    -0.67162756522090D+03

 The electronic state is 1-A.
 Alpha  occ. eigenvalues --  -20.60774 -20.60768 -15.85827 -11.31201 -11.27754
 Alpha  occ. eigenvalues --  -11.27742 -11.27482 -11.26785 -11.26740 -11.22227
 Alpha  occ. eigenvalues --  -11.22051 -11.21951 -11.21890 -11.21760 -11.21507
 Alpha  occ. eigenvalues --   -1.59849  -1.39402  -1.19372  -1.08994  -1.08757
 Alpha  occ. eigenvalues --   -1.04784  -1.04089  -0.96541  -0.95593  -0.87551
 Alpha  occ. eigenvalues --   -0.86170  -0.82429  -0.80174  -0.78819  -0.77465
 Alpha  occ. eigenvalues --   -0.72044  -0.71173  -0.70460  -0.65612  -0.65017
 Alpha  occ. eigenvalues --   -0.64782  -0.62153  -0.61483  -0.59911  -0.58163
 Alpha  occ. eigenvalues --   -0.55809  -0.55252  -0.53276  -0.53110  -0.52969
 Alpha  occ. eigenvalues --   -0.52828  -0.50458  -0.48810  -0.48799  -0.48472
 Alpha  occ. eigenvalues --   -0.47185  -0.46349  -0.46252  -0.44806  -0.44349
 Alpha  occ. eigenvalues --   -0.37317  -0.36318
 Alpha virt. eigenvalues --    0.05043   0.11248   0.16487   0.20049   0.22540
 Alpha virt. eigenvalues --    0.23751   0.25733   0.26044   0.26682   0.28480
 Alpha virt. eigenvalues --    0.28705   0.30475   0.30911   0.31357   0.32212

 Mulliken charges:
               1
     1  C   -0.171865
     2  C   -0.218578
     3  C   -0.171479
     4  C    0.158733
     5  C   -0.173351
     6  C   -0.217178
     7  H    0.226389
     8  H    0.223542
     9  H    0.275529
    10  H    0.275741
    11  H    0.228894
    12  N    0.488056
    13  O   -0.460254
    14  O   -0.460468
    15  C   -0.297752
    16  C   -0.308479
    17  C   -0.475920
    18  H    0.153161
    19  H    0.150451
    20  H    0.161665
    21  H    0.142267
    22  H    0.158197
    23  H    0.161476
    24  H    0.151926
    25  C   -0.298852
    26  C   -0.299991
    27  C   -0.475985
    28  H    0.149894
    29  H    0.145974
    30  H    0.154173
    31  H    0.152951
    32  H    0.153986
    33  H    0.154906
    34  H    0.162239
 Sum of Mulliken charges =  -0.00000

 Dipole moment (field-independent basis, Debye):
    X=             -3.8331    Y=             -1.4890    Z=              3.2052  Tot=              5.2137
 Quadrupole moment (field-independent basis, Debye-Ang):
   XX=           -116.9172   YY=            -90.2926   ZZ=            -94.5326
   XY=             -4.9551   XZ=              9.2250   YZ=              0.1828

 Normal termination of Gaussian 16 at Thu May  6 22:19:33 2021.
