 Gaussian 16, Revision A.03,
 Gaussian 16:  EM64L-G16RevA.03 25-Dec-2016

 -------------
 #p 6-31g* mp2
 -------------

 ------------------------------------------------------
 Input file generated by CHIRIPA (05-May-2021 14:55:19)
 ------------------------------------------------------
 Symbolic Z-matrix:
 Charge =  0 Multiplicity = 1

                         Standard orientation:
 ---------------------------------------------------------------------
 Center     Atomic      Atomic             Coordinates (Angstroms)
 Number     Number       Type             X           Y           Z
 ---------------------------------------------------------------------
      1          6           0       -1.193985   -1.160298    1.460123
      2          6           0       -2.474168   -1.041622    2.011092
      3          6           0       -3.510549   -0.454537    1.279113
      4          6           0       -3.230243    0.005149   -0.006736
      5          6           0       -1.965292   -0.098724   -0.583276
      6          6           0       -0.944073   -0.689301    0.166976
      7          1           0       -0.394788   -1.617716    2.035839
      8          1           0       -2.671149   -1.406519    3.015131
      9          1           0       -4.510913   -0.349985    1.681306
     10          1           0       -1.799448    0.274360   -1.586632
     11          1           0        0.049160   -0.780137   -0.263466
     12          7           0       -4.319388    0.628518   -0.791322
     13          8           0       -4.046674    1.025619   -1.922063
     14          8           0       -5.425150    0.708210   -0.260684
     15          6           0        4.184746   -0.585537   -0.136838
     16          6           0        3.301499   -1.605612   -0.856079
     17          6           0        3.874551   -3.022308   -0.807289
     18          1           0        5.185913   -0.593406   -0.589108
     19          1           0        4.312167   -0.894675    0.909867
     20          1           0        3.174647   -1.293909   -1.900763
     21          1           0        2.302262   -1.595178   -0.402169
     22          1           0        3.985080   -3.357681    0.229006
     23          1           0        4.862421   -3.054700   -1.278102
     24          1           0        3.227297   -3.735319   -1.327420
     25          6           0        3.625147    0.835366   -0.176950
     26          6           0        4.508393    1.855442    0.542290
     27          6           0        3.935341    3.272138    0.493501
     28          1           0        3.497725    1.144505   -1.223655
     29          1           0        2.623980    0.843235    0.275320
     30          1           0        5.507630    1.845008    0.088381
     31          1           0        4.635245    1.543737    1.586974
     32          1           0        2.947471    3.304529    0.964313
     33          1           0        3.824812    3.607510   -0.542794
     34          1           0        4.582595    3.985149    1.013632
 ---------------------------------------------------------------------

 SCF Done:  E(RHF) =  -669.535564953     A.U. after   15 cycles
 E2 =    -0.2091261874D+01 EUMP2 =    -0.67162682682619D+03

 The electronic state is 1-A.
 Alpha  occ. eigenvalues --  -20.60737 -20.60732 -15.85790 -11.31154 -11.27726
 Alpha  occ. eigenvalues --  -11.27713 -11.27471 -11.26745 -11.26699 -11.22686
 Alpha  occ. eigenvalues --  -11.22250 -11.22215 -11.22152 -11.21921 -11.21536
 Alpha  occ. eigenvalues --   -1.59812  -1.39366  -1.19326  -1.09256  -1.08724
 Alpha  occ. eigenvalues --   -1.04727  -1.04296  -0.96711  -0.95559  -0.87729
 Alpha  occ. eigenvalues --   -0.86131  -0.82390  -0.80392  -0.79070  -0.77433
 Alpha  occ. eigenvalues --   -0.72009  -0.71135  -0.70441  -0.65924  -0.64978
 Alpha  occ. eigenvalues --   -0.64722  -0.62110  -0.61663  -0.60092  -0.58329
 Alpha  occ. eigenvalues --   -0.55989  -0.55238  -0.53410  -0.53134  -0.53056
 Alpha  occ. eigenvalues --   -0.52831  -0.50656  -0.48797  -0.48763  -0.48655
 Alpha  occ. eigenvalues --   -0.47430  -0.46583  -0.46506  -0.44771  -0.44554
 Alpha  occ. eigenvalues --   -0.37313  -0.36328
 Alpha virt. eigenvalues --    0.05098   0.11283   0.16580   0.19224   0.22620
 Alpha virt. eigenvalues --    0.23693   0.24644   0.26188   0.27302   0.28164
 Alpha virt. eigenvalues --    0.29014   0.30467   0.30973   0.31305   0.31863

 Mulliken charges:
               1
     1  C   -0.173335
     2  C   -0.218567
     3  C   -0.171326
     4  C    0.159063
     5  C   -0.172509
     6  C   -0.227963
     7  H    0.224655
     8  H    0.223218
     9  H    0.275490
    10  H    0.276415
    11  H    0.236719
    12  N    0.487935
    13  O   -0.460353
    14  O   -0.460601
    15  C   -0.298242
    16  C   -0.304893
    17  C   -0.475579
    18  H    0.154025
    19  H    0.149440
    20  H    0.155381
    21  H    0.142735
    22  H    0.155215
    23  H    0.159509
    24  H    0.162259
    25  C   -0.300007
    26  C   -0.300040
    27  C   -0.476437
    28  H    0.151607
    29  H    0.144948
    30  H    0.154108
    31  H    0.152024
    32  H    0.155833
    33  H    0.156864
    34  H    0.162410
 Sum of Mulliken charges =  -0.00000

 Dipole moment (field-independent basis, Debye):
    X=              4.0616    Y=             -2.1680    Z=              2.7247  Tot=              5.3498
 Quadrupole moment (field-independent basis, Debye-Ang):
   XX=           -116.8506   YY=            -96.2925   ZZ=            -91.3482
   XY=              8.0661   XZ=            -12.4145   YZ=             -0.7859

 Normal termination of Gaussian 16 at Wed May  5 20:29:13 2021.
