 Gaussian 16, Revision A.03,
 Gaussian 16:  EM64L-G16RevA.03 25-Dec-2016

 -------------
 #p 6-31g* mp2
 -------------

 ------------------------------------------------------
 Input file generated by CHIRIPA (05-May-2021 14:51:13)
 ------------------------------------------------------
 Symbolic Z-matrix:
 Charge =  0 Multiplicity = 1

                         Standard orientation:
 ---------------------------------------------------------------------
 Center     Atomic      Atomic             Coordinates (Angstroms)
 Number     Number       Type             X           Y           Z
 ---------------------------------------------------------------------
      1          6           0       -4.176637    0.190778   -0.391099
      2          6           0       -2.861902   -0.006085    0.364350
      3          6           0       -1.670534    0.638939   -0.344436
      4          1           0       -4.078005   -0.229135   -1.401490
      5          1           0       -4.361897    1.266588   -0.516425
      6          1           0       -2.679872   -1.081184    0.489427
      7          1           0       -2.963738    0.414175    1.373125
      8          1           0       -1.826051    1.716898   -0.455879
      9          1           0       -1.540572    0.213043   -1.344598
     10          1           0       -0.741025    0.486086    0.212797
     11          6           0       -5.376888   -0.448428    0.304989
     12          6           0       -6.691622   -0.251564   -0.450461
     13          6           0       -7.882991   -0.896589    0.258326
     14          1           0       -5.191628   -1.524238    0.430315
     15          1           0       -5.475519   -0.028515    1.315380
     16          1           0       -6.589787   -0.671824   -1.459236
     17          1           0       -6.873653    0.823534   -0.575537
     18          1           0       -8.012952   -0.470693    1.258488
     19          1           0       -7.727474   -1.974548    0.369768
     20          1           0       -8.812500   -0.743735   -0.298908
     21          6           0        4.192105    0.408035    0.447591
     22          6           0        3.198571    1.208022   -0.395556
     23          6           0        2.034533    1.760095    0.427865
     24          1           0        3.663083   -0.420239    0.938553
     25          1           0        4.581333    1.049742    1.250155
     26          1           0        2.812375    0.565408   -1.197126
     27          1           0        3.730058    2.034373   -0.884720
     28          1           0        2.401826    2.422939    1.218015
     29          1           0        1.478928    0.945626    0.903833
     30          1           0        1.336489    2.328551   -0.194593
     31          6           0        5.361420   -0.150386   -0.361481
     32          6           0        6.354953   -0.950372    0.481666
     33          6           0        7.518993   -1.502446   -0.341755
     34          1           0        4.972192   -0.792093   -1.164044
     35          1           0        5.890442    0.677888   -0.852443
     36          1           0        5.823467   -1.776724    0.970831
     37          1           0        6.741150   -0.307758    1.283237
     38          1           0        8.074597   -0.687977   -0.817722
     39          1           0        7.151700   -2.165289   -1.131903
     40          1           0        8.217036   -2.070902    0.280704
 ---------------------------------------------------------------------

 SCF Done:  E(RHF) =  -470.732867698     A.U. after   11 cycles
 E2 =    -0.1582388686D+01 EUMP2 =    -0.47231525638350D+03

 The electronic state is 1-A.
 Alpha  occ. eigenvalues --  -11.21595 -11.21583 -11.21576 -11.21552 -11.21394
 Alpha  occ. eigenvalues --  -11.21375 -11.21335 -11.21315 -11.21066 -11.21057
 Alpha  occ. eigenvalues --  -11.21025 -11.20953  -1.08419  -1.08396  -1.03533
 Alpha  occ. eigenvalues --   -1.03475  -0.96019  -0.95890  -0.87074  -0.86871
 Alpha  occ. eigenvalues --   -0.79638  -0.79499  -0.78232  -0.78210  -0.65053
 Alpha  occ. eigenvalues --   -0.65028  -0.60957  -0.60889  -0.59430  -0.59218
 Alpha  occ. eigenvalues --   -0.57609  -0.57534  -0.55280  -0.55224  -0.52876
 Alpha  occ. eigenvalues --   -0.52467  -0.52413  -0.52280  -0.49897  -0.49860
 Alpha  occ. eigenvalues --   -0.47952  -0.47813  -0.46612  -0.46584  -0.45776
 Alpha  occ. eigenvalues --   -0.45750  -0.45697  -0.45680  -0.43857  -0.43605
 Alpha virt. eigenvalues --    0.22280   0.22997   0.23598   0.24837   0.26500
 Alpha virt. eigenvalues --    0.26649   0.27151   0.27250   0.27641   0.28915
 Alpha virt. eigenvalues --    0.29627   0.31221   0.31596   0.31904   0.32260

 Mulliken charges:
               1
     1  C   -0.298439
     2  C   -0.299597
     3  C   -0.480788
     4  H    0.149435
     5  H    0.149445
     6  H    0.151242
     7  H    0.151820
     8  H    0.154409
     9  H    0.154052
    10  H    0.167956
    11  C   -0.298182
    12  C   -0.299593
    13  C   -0.475676
    14  H    0.149364
    15  H    0.149602
    16  H    0.151862
    17  H    0.151901
    18  H    0.155161
    19  H    0.155119
    20  H    0.160182
    21  C   -0.298493
    22  C   -0.300099
    23  C   -0.478418
    24  H    0.149562
    25  H    0.149487
    26  H    0.152439
    27  H    0.151927
    28  H    0.154803
    29  H    0.156089
    30  H    0.163478
    31  C   -0.298271
    32  C   -0.299639
    33  C   -0.475698
    34  H    0.149532
    35  H    0.149660
    36  H    0.151890
    37  H    0.151911
    38  H    0.155180
    39  H    0.155168
    40  H    0.160220
 Sum of Mulliken charges =  -0.00000

 Dipole moment (field-independent basis, Debye):
    X=              0.0276    Y=              0.0164    Z=              0.0011  Tot=              0.0322
 Quadrupole moment (field-independent basis, Debye-Ang):
   XX=            -86.4047   YY=            -83.6484   ZZ=            -84.8825
   XY=              0.3462   XZ=              0.7623   YZ=              0.5611

 Normal termination of Gaussian 16 at Thu May  6 03:57:43 2021.
