 Gaussian 16, Revision A.03,
 Gaussian 16:  EM64L-G16RevA.03 25-Dec-2016

 -------------
 #p 6-31g* mp2
 -------------

 ------------------------------------------------------
 Input file generated by CHIRIPA (05-May-2021 14:53:16)
 ------------------------------------------------------
 Symbolic Z-matrix:
 Charge =  0 Multiplicity = 1

                         Standard orientation:
 ---------------------------------------------------------------------
 Center     Atomic      Atomic             Coordinates (Angstroms)
 Number     Number       Type             X           Y           Z
 ---------------------------------------------------------------------
      1          6           0        4.106770   -0.751930    0.135325
      2          6           0        2.717140   -0.115159    0.173244
      3          6           0        1.602166   -1.141089    0.378415
      4          1           0        4.139626   -1.497457   -0.670934
      5          1           0        4.277881   -1.298150    1.073280
      6          1           0        2.549246    0.430851   -0.763933
      7          1           0        2.687647    0.629075    0.979383
      8          1           0        1.742051   -1.678567    1.321893
      9          1           0        1.602864   -1.877917   -0.431329
     10          1           0        0.617311   -0.664280    0.402387
     11          6           0        5.231919    0.260961   -0.069171
     12          6           0        6.621549   -0.375809   -0.107089
     13          6           0        7.736523    0.650120   -0.312260
     14          1           0        5.060808    0.807181   -1.007126
     15          1           0        5.199063    1.006488    0.737089
     16          1           0        6.651041   -1.120044   -0.913229
     17          1           0        6.789443   -0.921820    0.830087
     18          1           0        7.735825    1.386948    0.497483
     19          1           0        7.596637    1.187598   -1.255738
     20          1           0        8.721378    0.173312   -0.336232
     21          6           0       -2.606828    2.486126    0.108474
     22          6           0       -3.990547    2.353333   -0.047122
     23          6           0       -4.578252    1.087065   -0.122717
     24          6           0       -3.748575   -0.030024   -0.038827
     25          6           0       -2.366799    0.069588    0.116292
     26          6           0       -1.800792    1.345839    0.189543
     27          1           0       -2.158713    3.473671    0.166288
     28          1           0       -4.618987    3.237137   -0.110369
     29          1           0       -5.646708    0.955414   -0.243092
     30          1           0       -1.766265   -0.829956    0.176298
     31          1           0       -0.725887    1.445943    0.310389
     32          7           0       -4.359266   -1.375850   -0.117615
     33          8           0       -3.606430   -2.344367   -0.041139
     34          8           0       -5.579199   -1.436708   -0.254352
 ---------------------------------------------------------------------

 SCF Done:  E(RHF) =  -669.535059566     A.U. after   15 cycles
 E2 =    -0.2091501644D+01 EUMP2 =    -0.67162656120974D+03

 The electronic state is 1-A.
 Alpha  occ. eigenvalues --  -20.60716 -20.60710 -15.85768 -11.31130 -11.27707
 Alpha  occ. eigenvalues --  -11.27674 -11.27454 -11.26725 -11.26699 -11.22363
 Alpha  occ. eigenvalues --  -11.21949 -11.21924 -11.21919 -11.21814 -11.21371
 Alpha  occ. eigenvalues --   -1.59791  -1.39344  -1.19307  -1.08956  -1.08703
 Alpha  occ. eigenvalues --   -1.04721  -1.04082  -0.96534  -0.95538  -0.87553
 Alpha  occ. eigenvalues --   -0.86110  -0.82379  -0.80156  -0.78742  -0.77426
 Alpha  occ. eigenvalues --   -0.71988  -0.71113  -0.70429  -0.65574  -0.64971
 Alpha  occ. eigenvalues --   -0.64724  -0.62210  -0.61461  -0.59865  -0.58125
 Alpha  occ. eigenvalues --   -0.55782  -0.55222  -0.53245  -0.53041  -0.52957
 Alpha  occ. eigenvalues --   -0.52787  -0.50440  -0.48745  -0.48741  -0.48465
 Alpha  occ. eigenvalues --   -0.47167  -0.46288  -0.46190  -0.44750  -0.44338
 Alpha  occ. eigenvalues --   -0.37291  -0.36315
 Alpha virt. eigenvalues --    0.05117   0.11340   0.16606   0.19856   0.22570
 Alpha virt. eigenvalues --    0.23744   0.25947   0.26171   0.26682   0.27856
 Alpha virt. eigenvalues --    0.28841   0.29875   0.30942   0.31436   0.32276

 Mulliken charges:
               1
     1  C   -0.299215
     2  C   -0.301423
     3  C   -0.480904
     4  H    0.152599
     5  H    0.151916
     6  H    0.151272
     7  H    0.149805
     8  H    0.161976
     9  H    0.163179
    10  H    0.149707
    11  C   -0.298672
    12  C   -0.300174
    13  C   -0.475987
    14  H    0.149564
    15  H    0.149269
    16  H    0.153245
    17  H    0.152970
    18  H    0.155119
    19  H    0.155323
    20  H    0.161679
    21  C   -0.170727
    22  C   -0.218839
    23  C   -0.170840
    24  C    0.160121
    25  C   -0.177130
    26  C   -0.222789
    27  H    0.225513
    28  H    0.223273
    29  H    0.275394
    30  H    0.280556
    31  H    0.226791
    32  N    0.488613
    33  O   -0.460460
    34  O   -0.460724
 Sum of Mulliken charges =  -0.00000

 Dipole moment (field-independent basis, Debye):
    X=              2.3589    Y=              4.6624    Z=              0.2697  Tot=              5.2321
 Quadrupole moment (field-independent basis, Debye-Ang):
   XX=           -107.0079   YY=            -94.9030   ZZ=            -94.6059
   XY=            -20.9639   XZ=             -0.4062   YZ=             -0.2336

 Normal termination of Gaussian 16 at Thu May  6 15:32:42 2021.
