 Gaussian 16, Revision A.03,
 Gaussian 16:  EM64L-G16RevA.03 25-Dec-2016

 -------------
 #p 6-31g* mp2
 -------------

 ------------------------------------------------------
 Input file generated by CHIRIPA (05-May-2021 14:57:26)
 ------------------------------------------------------
 Symbolic Z-matrix:
 Charge =  0 Multiplicity = 1

                         Standard orientation:
 ---------------------------------------------------------------------
 Center     Atomic      Atomic             Coordinates (Angstroms)
 Number     Number       Type             X           Y           Z
 ---------------------------------------------------------------------
      1          6           0       -1.568407    2.887603    0.320094
      2          6           0       -2.469114    2.190538    1.132097
      3          6           0       -2.790211    0.858305    0.855332
      4          6           0       -2.189356    0.251363   -0.246433
      5          6           0       -1.288238    0.919192   -1.074250
      6          6           0       -0.981878    2.250828   -0.778551
      7          1           0       -1.324696    3.922282    0.542446
      8          1           0       -2.926145    2.682524    1.985981
      9          1           0       -3.484223    0.295124    1.467371
     10          1           0       -0.848708    0.401962   -1.918469
     11          1           0       -0.282033    2.789710   -1.410903
     12          7           0       -2.521486   -1.158696   -0.549454
     13          8           0       -1.978572   -1.670791   -1.525999
     14          8           0       -3.318435   -1.725106    0.195320
     15          6           0        0.874414   -2.546718    0.918992
     16          6           0        1.188190   -2.354914   -0.430555
     17          6           0        1.886094   -1.215629   -0.842268
     18          6           0        2.256449   -0.284319    0.126643
     19          6           0        1.958511   -0.447006    1.478699
     20          6           0        1.259896   -1.593832    1.867639
     21          1           0        0.331988   -3.434671    1.229976
     22          1           0        0.890087   -3.093267   -1.169483
     23          1           0        2.141968   -1.042071   -1.880451
     24          1           0        2.269037    0.306635    2.192153
     25          1           0        1.017572   -1.740161    2.916406
     26          7           0        2.995665    0.925783   -0.297165
     27          8           0        3.310666    1.731398    0.575988
     28          8           0        3.246065    1.045732   -1.494474
 ---------------------------------------------------------------------

 SCF Done:  E(RHF) =  -868.340504728     A.U. after   16 cycles
 E2 =    -0.2602800332D+01 EUMP2 =    -0.87094330505974D+03

 The electronic state is 1-A.
 Alpha  occ. eigenvalues --  -20.61215 -20.61209 -20.60989 -20.60979 -15.86230
 Alpha  occ. eigenvalues --  -15.86020 -11.31297 -11.31096 -11.27870 -11.27808
 Alpha  occ. eigenvalues --  -11.27593 -11.27527 -11.27483 -11.27135 -11.26802
 Alpha  occ. eigenvalues --  -11.26681 -11.26583 -11.26401  -1.60277  -1.60071
 Alpha  occ. eigenvalues --   -1.39843  -1.39631  -1.19444  -1.19198  -1.08878
 Alpha  occ. eigenvalues --   -1.08633  -1.04803  -1.04537  -0.95773  -0.95525
 Alpha  occ. eigenvalues --   -0.86204  -0.85934  -0.82629  -0.82353  -0.77722
 Alpha  occ. eigenvalues --   -0.77455  -0.72486  -0.72241  -0.71598  -0.71391
 Alpha  occ. eigenvalues --   -0.70538  -0.70244  -0.65093  -0.64828  -0.64780
 Alpha  occ. eigenvalues --   -0.64488  -0.62157  -0.61879  -0.55287  -0.54978
 Alpha  occ. eigenvalues --   -0.53415  -0.52900  -0.52617  -0.52584  -0.49248
 Alpha  occ. eigenvalues --   -0.49206  -0.49018  -0.48968  -0.45331  -0.45101
 Alpha  occ. eigenvalues --   -0.37387  -0.37284  -0.36318  -0.35987
 Alpha virt. eigenvalues --    0.04726   0.05053   0.11146   0.11621   0.16178
 Alpha virt. eigenvalues --    0.16809   0.21304   0.21928   0.26916   0.27719
 Alpha virt. eigenvalues --    0.28368   0.28886   0.31080   0.31453   0.32135

 Mulliken charges:
               1
     1  C   -0.168793
     2  C   -0.219774
     3  C   -0.172529
     4  C    0.159370
     5  C   -0.168907
     6  C   -0.223120
     7  H    0.229598
     8  H    0.223076
     9  H    0.273062
    10  H    0.273600
    11  H    0.233712
    12  N    0.489168
    13  O   -0.465346
    14  O   -0.463114
    15  C   -0.176961
    16  C   -0.205708
    17  C   -0.181918
    18  C    0.159916
    19  C   -0.172442
    20  C   -0.218766
    21  H    0.232940
    22  H    0.235150
    23  H    0.272946
    24  H    0.272216
    25  H    0.222913
    26  N    0.486913
    27  O   -0.462492
    28  O   -0.464709
 Sum of Mulliken charges =  -0.00000

 Dipole moment (field-independent basis, Debye):
    X=             -1.5037    Y=              0.6105    Z=              2.5302  Tot=              3.0060
 Quadrupole moment (field-independent basis, Debye-Ang):
   XX=           -122.0219   YY=            -99.4557   ZZ=            -97.8069
   XY=            -19.8223   XZ=             -2.2674   YZ=             -0.3246

 Normal termination of Gaussian 16 at Fri May  7 09:41:56 2021.
