 Gaussian 16, Revision A.03,
 Gaussian 16:  EM64L-G16RevA.03 25-Dec-2016

 -------------
 #p 6-31g* mp2
 -------------

 ------------------------------------------------------
 Input file generated by CHIRIPA (05-May-2021 14:53:15)
 ------------------------------------------------------
 Symbolic Z-matrix:
 Charge =  0 Multiplicity = 1

                         Standard orientation:
 ---------------------------------------------------------------------
 Center     Atomic      Atomic             Coordinates (Angstroms)
 Number     Number       Type             X           Y           Z
 ---------------------------------------------------------------------
      1          6           0        3.569958   -0.108819   -0.100501
      2          6           0        4.890926    0.654615    0.000482
      3          6           0        5.734792    0.546513   -1.269951
      4          1           0        3.780060   -1.165804   -0.314006
      5          1           0        2.997145    0.275012   -0.956044
      6          1           0        5.460467    0.270400    0.856413
      7          1           0        4.677661    1.709869    0.213961
      8          1           0        5.189316    0.948055   -2.130079
      9          1           0        5.976570   -0.499592   -1.483977
     10          1           0        6.674571    1.099538   -1.175942
     11          6           0        2.715243   -0.010236    1.161826
     12          6           0        1.394275   -0.773669    1.060843
     13          6           0        0.550409   -0.665568    2.331276
     14          1           0        3.288056   -0.394067    2.017369
     15          1           0        2.505140    1.046750    1.375331
     16          1           0        1.607540   -1.828923    0.847364
     17          1           0        0.824733   -0.389455    0.204912
     18          1           0        0.308631    0.380538    2.545302
     19          1           0        1.095885   -1.067110    3.191405
     20          1           0       -0.389371   -1.218593    2.237268
     21          6           0       -1.830149   -2.335879   -0.961874
     22          6           0       -1.156739   -1.276229   -1.578462
     23          6           0       -1.494656    0.047766   -1.282829
     24          6           0       -2.515580    0.276826   -0.361670
     25          6           0       -3.205060   -0.757504    0.269257
     26          6           0       -2.850362   -2.073598   -0.041605
     27          1           0       -1.561129   -3.361321   -1.197444
     28          1           0       -0.364016   -1.476937   -2.293550
     29          1           0       -0.989688    0.887018   -1.745519
     30          1           0       -3.990937   -0.525990    0.977929
     31          1           0       -3.375056   -2.894555    0.438782
     32          7           0       -2.882200    1.674298   -0.040635
     33          8           0       -3.785307    1.849558    0.774422
     34          8           0       -2.259508    2.567914   -0.610145
 ---------------------------------------------------------------------

 SCF Done:  E(RHF) =  -669.534120792     A.U. after   15 cycles
 E2 =    -0.2094421640D+01 EUMP2 =    -0.67162854243211D+03

 The electronic state is 1-A.
 Alpha  occ. eigenvalues --  -20.60835 -20.60828 -15.85889 -11.31280 -11.27836
 Alpha  occ. eigenvalues --  -11.27818 -11.27573 -11.26880 -11.26833 -11.21754
 Alpha  occ. eigenvalues --  -11.21623 -11.21585 -11.21432 -11.21248 -11.21058
 Alpha  occ. eigenvalues --   -1.59909  -1.39462  -1.19460  -1.08841  -1.08563
 Alpha  occ. eigenvalues --   -1.04879  -1.03630  -0.96091  -0.95672  -0.87105
 Alpha  occ. eigenvalues --   -0.86253  -0.82511  -0.79715  -0.78405  -0.77546
 Alpha  occ. eigenvalues --   -0.72107  -0.71234  -0.70551  -0.65226  -0.65092
 Alpha  occ. eigenvalues --   -0.64857  -0.62209  -0.61063  -0.59500  -0.57756
 Alpha  occ. eigenvalues --   -0.55409  -0.55348  -0.53263  -0.52947  -0.52631
 Alpha  occ. eigenvalues --   -0.52481  -0.50034  -0.48867  -0.48860  -0.48045
 Alpha  occ. eigenvalues --   -0.46754  -0.45942  -0.45869  -0.44859  -0.43908
 Alpha  occ. eigenvalues --   -0.37420  -0.36283
 Alpha virt. eigenvalues --    0.04958   0.11142   0.16399   0.21052   0.22815
 Alpha virt. eigenvalues --    0.24165   0.26050   0.26770   0.27658   0.28123
 Alpha virt. eigenvalues --    0.28688   0.30929   0.31370   0.31650   0.31941

 Mulliken charges:
               1
     1  C   -0.296941
     2  C   -0.299812
     3  C   -0.475772
     4  H    0.146863
     5  H    0.144298
     6  H    0.152693
     7  H    0.154577
     8  H    0.154413
     9  H    0.153860
    10  H    0.161599
    11  C   -0.298376
    12  C   -0.302781
    13  C   -0.478846
    14  H    0.149188
    15  H    0.153278
    16  H    0.144506
    17  H    0.157152
    18  H    0.158754
    19  H    0.153931
    20  H    0.159711
    21  C   -0.169797
    22  C   -0.213876
    23  C   -0.176434
    24  C    0.163594
    25  C   -0.171612
    26  C   -0.218883
    27  H    0.226226
    28  H    0.225085
    29  H    0.275793
    30  H    0.276160
    31  H    0.224160
    32  N    0.487919
    33  O   -0.459853
    34  O   -0.460776
 Sum of Mulliken charges =  -0.00000

 Dipole moment (field-independent basis, Debye):
    X=              1.1883    Y=             -4.8958    Z=             -1.1548  Tot=              5.1686
 Quadrupole moment (field-independent basis, Debye-Ang):
   XX=            -99.5217   YY=            -96.7934   ZZ=            -93.0553
   XY=             14.0773   XZ=              0.6599   YZ=              0.1657

 Normal termination of Gaussian 16 at Thu May  6 02:42:06 2021.
