 Gaussian 16, Revision A.03,
 Gaussian 16:  EM64L-G16RevA.03 25-Dec-2016

 -------------
 #p 6-31g* mp2
 -------------

 ------------------------------------------------------
 Input file generated by CHIRIPA (05-May-2021 14:55:20)
 ------------------------------------------------------
 Symbolic Z-matrix:
 Charge =  0 Multiplicity = 1

                         Standard orientation:
 ---------------------------------------------------------------------
 Center     Atomic      Atomic             Coordinates (Angstroms)
 Number     Number       Type             X           Y           Z
 ---------------------------------------------------------------------
      1          6           0        1.690102    0.836023    2.204519
      2          6           0        2.989736    0.326678    2.294188
      3          6           0        3.626407   -0.197380    1.165224
      4          6           0        2.930904   -0.196355   -0.042901
      5          6           0        1.635404    0.303882   -0.164272
      6          6           0        1.018268    0.823022    0.977738
      7          1           0        1.203108    1.241214    3.086592
      8          1           0        3.513908    0.335482    3.245614
      9          1           0        4.631973   -0.598082    1.206380
     10          1           0        1.138356    0.281484   -1.126488
     11          1           0        0.008896    1.217917    0.905137
     12          7           0        3.594578   -0.748549   -1.244990
     13          8           0        2.960333   -0.736146   -2.297708
     14          8           0        4.736445   -1.183306   -1.111707
     15          6           0       -3.151858    0.722241   -0.034115
     16          6           0       -3.130890    1.798540   -1.119990
     17          6           0       -2.206717    2.967116   -0.776290
     18          1           0       -3.468259    1.174735    0.915666
     19          1           0       -2.130222    0.349203    0.122398
     20          1           0       -4.152472    2.168458   -1.275384
     21          1           0       -2.814686    1.343393   -2.067340
     22          1           0       -1.177926    2.617854   -0.641352
     23          1           0       -2.523314    3.447607    0.155104
     24          1           0       -2.206922    3.724843   -1.566042
     25          6           0       -4.071239   -0.452553   -0.363243
     26          6           0       -4.092208   -1.528852    0.722632
     27          6           0       -5.016380   -2.697427    0.378932
     28          1           0       -5.092875   -0.079515   -0.519757
     29          1           0       -3.754837   -0.905047   -1.313024
     30          1           0       -4.408412   -1.073704    1.669982
     31          1           0       -3.070625   -1.898769    0.878025
     32          1           0       -4.699783   -3.177918   -0.552463
     33          1           0       -6.045171   -2.348166    0.243993
     34          1           0       -5.016175   -3.455155    1.168684
 ---------------------------------------------------------------------

 SCF Done:  E(RHF) =  -669.535143383     A.U. after   15 cycles
 E2 =    -0.2092071171D+01 EUMP2 =    -0.67162721455454D+03

 The electronic state is 1-A.
 Alpha  occ. eigenvalues --  -20.60753 -20.60748 -15.85806 -11.31168 -11.27741
 Alpha  occ. eigenvalues --  -11.27735 -11.27462 -11.26749 -11.26676 -11.22366
 Alpha  occ. eigenvalues --  -11.22252 -11.22089 -11.21997 -11.21955 -11.21421
 Alpha  occ. eigenvalues --   -1.59828  -1.39382  -1.19337  -1.09130  -1.08728
 Alpha  occ. eigenvalues --   -1.04744  -1.04180  -0.96646  -0.95567  -0.87659
 Alpha  occ. eigenvalues --   -0.86139  -0.82411  -0.80255  -0.78952  -0.77445
 Alpha  occ. eigenvalues --   -0.72024  -0.71151  -0.70444  -0.65816  -0.64985
 Alpha  occ. eigenvalues --   -0.64727  -0.62181  -0.61488  -0.60005  -0.58252
 Alpha  occ. eigenvalues --   -0.55960  -0.55234  -0.53305  -0.53148  -0.53007
 Alpha  occ. eigenvalues --   -0.52847  -0.50595  -0.48802  -0.48780  -0.48527
 Alpha  occ. eigenvalues --   -0.47264  -0.46447  -0.46366  -0.44789  -0.44438
 Alpha  occ. eigenvalues --   -0.37311  -0.36336
 Alpha virt. eigenvalues --    0.05064   0.11276   0.16464   0.19436   0.22650
 Alpha virt. eigenvalues --    0.23729   0.25411   0.26483   0.27273   0.28065
 Alpha virt. eigenvalues --    0.29100   0.30229   0.31149   0.31307   0.32045

 Mulliken charges:
               1
     1  C   -0.171957
     2  C   -0.218437
     3  C   -0.170955
     4  C    0.158646
     5  C   -0.174203
     6  C   -0.226324
     7  H    0.226310
     8  H    0.223326
     9  H    0.275570
    10  H    0.274653
    11  H    0.235883
    12  N    0.488160
    13  O   -0.460602
    14  O   -0.460537
    15  C   -0.303478
    16  C   -0.301220
    17  C   -0.479997
    18  H    0.149208
    19  H    0.143936
    20  H    0.156308
    21  H    0.155969
    22  H    0.148265
    23  H    0.155514
    24  H    0.167448
    25  C   -0.298393
    26  C   -0.300566
    27  C   -0.476253
    28  H    0.152005
    29  H    0.153197
    30  H    0.150980
    31  H    0.152582
    32  H    0.157523
    33  H    0.155888
    34  H    0.161548
 Sum of Mulliken charges =  -0.00000

 Dipole moment (field-independent basis, Debye):
    X=             -2.5305    Y=              1.9351    Z=              4.1844  Tot=              5.2590
 Quadrupole moment (field-independent basis, Debye-Ang):
   XX=           -104.4097   YY=            -96.4305   ZZ=            -93.7412
   XY=              4.2666   XZ=             15.0682   YZ=             -1.5155

 Normal termination of Gaussian 16 at Thu May  6 15:45:26 2021.
