 Gaussian 16, Revision A.03,
 Gaussian 16:  EM64L-G16RevA.03 25-Dec-2016

 -------------
 #p 6-31g* mp2
 -------------

 ------------------------------------------------------
 Input file generated by CHIRIPA (05-May-2021 14:55:25)
 ------------------------------------------------------
 Symbolic Z-matrix:
 Charge =  0 Multiplicity = 1

                         Standard orientation:
 ---------------------------------------------------------------------
 Center     Atomic      Atomic             Coordinates (Angstroms)
 Number     Number       Type             X           Y           Z
 ---------------------------------------------------------------------
      1          6           0       -2.763130    1.411552    1.674067
      2          6           0       -1.528717    0.795549    1.904903
      3          6           0       -1.104175   -0.266968    1.101554
      4          6           0       -1.942994   -0.689785    0.071554
      5          6           0       -3.178395   -0.096488   -0.183540
      6          6           0       -3.582585    0.964356    0.632419
      7          1           0       -3.085019    2.236291    2.303026
      8          1           0       -0.890248    1.140744    2.713138
      9          1           0       -0.153409   -0.761895    1.258106
     10          1           0       -3.793045   -0.462752   -0.996850
     11          1           0       -4.541757    1.440862    0.450827
     12          7           0       -1.504324   -1.813739   -0.785590
     13          8           0       -2.261736   -2.167535   -1.686586
     14          8           0       -0.411389   -2.319615   -0.540194
     15          6           0        3.128523    0.449794    0.221209
     16          6           0        3.398488   -1.054684    0.261826
     17          6           0        4.499228   -1.431187    1.254002
     18          1           0        4.056672    0.975455   -0.041783
     19          1           0        2.849526    0.792487    1.227249
     20          1           0        3.675549   -1.394687   -0.744281
     21          1           0        2.469543   -1.576839    0.524564
     22          1           0        4.227160   -1.119725    2.267694
     23          1           0        5.440019   -0.936538    0.991639
     24          1           0        4.675877   -2.511228    1.266854
     25          6           0        2.030626    0.841839   -0.766034
     26          6           0        1.760661    2.346317   -0.806651
     27          6           0        0.659921    2.722820   -1.798827
     28          1           0        2.309624    0.499145   -1.772074
     29          1           0        1.102477    0.316178   -0.503042
     30          1           0        2.689606    2.868471   -1.069389
     31          1           0        1.483600    2.686319    0.199457
     32          1           0       -0.280870    2.228171   -1.536464
     33          1           0        0.931988    2.411357   -2.812518
     34          1           0        0.483273    3.802861   -1.811679
 ---------------------------------------------------------------------

 SCF Done:  E(RHF) =  -669.535016841     A.U. after   15 cycles
 E2 =    -0.2094816414D+01 EUMP2 =    -0.67162983325471D+03

 The electronic state is 1-A.
 Alpha  occ. eigenvalues --  -20.60944 -20.60921 -15.85963 -11.31326 -11.27897
 Alpha  occ. eigenvalues --  -11.27892 -11.27628 -11.26901 -11.26887 -11.21568
 Alpha  occ. eigenvalues --  -11.21292 -11.21192 -11.21109 -11.21025 -11.20830
 Alpha  occ. eigenvalues --   -1.59991  -1.39547  -1.19507  -1.08892  -1.08272
 Alpha  occ. eigenvalues --   -1.04907  -1.03358  -0.95837  -0.95722  -0.86846
 Alpha  occ. eigenvalues --   -0.86306  -0.82559  -0.79407  -0.78115  -0.77565
 Alpha  occ. eigenvalues --   -0.72186  -0.71308  -0.70619  -0.65166  -0.65122
 Alpha  occ. eigenvalues --   -0.64735  -0.62230  -0.60779  -0.59186  -0.57417
 Alpha  occ. eigenvalues --   -0.55427  -0.55112  -0.53243  -0.52992  -0.52511
 Alpha  occ. eigenvalues --   -0.52241  -0.49793  -0.48971  -0.48938  -0.47715
 Alpha  occ. eigenvalues --   -0.46452  -0.45693  -0.45570  -0.44743  -0.43612
 Alpha  occ. eigenvalues --   -0.37454  -0.36456
 Alpha virt. eigenvalues --    0.04899   0.11048   0.16371   0.20127   0.23057
 Alpha virt. eigenvalues --    0.24018   0.26003   0.26824   0.27605   0.28050
 Alpha virt. eigenvalues --    0.29511   0.30519   0.31406   0.31806   0.32083

 Mulliken charges:
               1
     1  C   -0.170265
     2  C   -0.220261
     3  C   -0.175359
     4  C    0.160455
     5  C   -0.170706
     6  C   -0.218437
     7  H    0.226460
     8  H    0.224503
     9  H    0.280683
    10  H    0.276262
    11  H    0.224239
    12  N    0.489776
    13  O   -0.458742
    14  O   -0.461987
    15  C   -0.299122
    16  C   -0.306001
    17  C   -0.475418
    18  H    0.149950
    19  H    0.138995
    20  H    0.157108
    21  H    0.163985
    22  H    0.149774
    23  H    0.153958
    24  H    0.162846
    25  C   -0.303970
    26  C   -0.297449
    27  C   -0.476891
    28  H    0.154664
    29  H    0.153764
    30  H    0.151875
    31  H    0.144529
    32  H    0.155501
    33  H    0.157845
    34  H    0.157434
 Sum of Mulliken charges =  -0.00000

 Dipole moment (field-independent basis, Debye):
    X=             -1.6736    Y=              3.7941    Z=              2.9127  Tot=              5.0676
 Quadrupole moment (field-independent basis, Debye-Ang):
   XX=            -85.3973   YY=           -101.2558   ZZ=            -93.3859
   XY=             -7.0608   XZ=             -4.9562   YZ=             -1.6172

 Normal termination of Gaussian 16 at Thu May  6 06:24:32 2021.
