 Gaussian 16, Revision A.03,
 Gaussian 16:  EM64L-G16RevA.03 25-Dec-2016

 -------------
 #p 6-31g* mp2
 -------------

 ------------------------------------------------------
 Input file generated by CHIRIPA (05-May-2021 14:55:24)
 ------------------------------------------------------
 Symbolic Z-matrix:
 Charge =  0 Multiplicity = 1

                         Standard orientation:
 ---------------------------------------------------------------------
 Center     Atomic      Atomic             Coordinates (Angstroms)
 Number     Number       Type             X           Y           Z
 ---------------------------------------------------------------------
      1          6           0        5.131415   -0.326542   -0.680990
      2          6           0        4.181373   -1.279932   -1.061764
      3          6           0        2.861850   -1.187499   -0.609145
      4          6           0        2.525444   -0.123890    0.226831
      5          6           0        3.449172    0.841726    0.623825
      6          6           0        4.762932    0.729383    0.159109
      7          1           0        6.154214   -0.406079   -1.037294
      8          1           0        4.464700   -2.101046   -1.714100
      9          1           0        2.106221   -1.911702   -0.888381
     10          1           0        3.136795    1.648982    1.275114
     11          1           0        5.498636    1.471252    0.456452
     12          7           0        1.131575   -0.015496    0.712402
     13          8           0        0.860480    0.931061    1.448047
     14          8           0        0.336549   -0.879147    0.348153
     15          6           0       -3.980589   -0.417307   -0.325163
     16          6           0       -3.534114   -1.693189    0.389521
     17          6           0       -4.452281   -2.882252    0.105104
     18          1           0       -5.006361   -0.172126   -0.017553
     19          1           0       -4.015096   -0.604478   -1.407369
     20          1           0       -3.499127   -1.503261    1.469946
     21          1           0       -2.509217   -1.935254    0.080320
     22          1           0       -4.479521   -3.100026   -0.967480
     23          1           0       -5.475055   -2.665579    0.430042
     24          1           0       -4.114662   -3.783746    0.625855
     25          6           0       -3.072649    0.780198   -0.050654
     26          6           0       -3.519123    2.056080   -0.765337
     27          6           0       -2.600957    3.245143   -0.480919
     28          1           0       -3.038142    0.967369    1.031553
     29          1           0       -2.046877    0.535017   -0.358263
     30          1           0       -4.544020    2.298146   -0.456136
     31          1           0       -3.554111    1.866153   -1.845762
     32          1           0       -1.578182    3.028470   -0.805858
     33          1           0       -2.573716    3.462918    0.591663
     34          1           0       -2.938575    4.146637   -1.001671
 ---------------------------------------------------------------------

 SCF Done:  E(RHF) =  -669.536259119     A.U. after   15 cycles
 E2 =    -0.2091994381D+01 EUMP2 =    -0.67162825349991D+03

 The electronic state is 1-A.
 Alpha  occ. eigenvalues --  -20.61061 -20.61056 -15.86077 -11.31370 -11.27928
 Alpha  occ. eigenvalues --  -11.27921 -11.27656 -11.26924 -11.26914 -11.20328
 Alpha  occ. eigenvalues --  -11.20040 -11.19962 -11.19934 -11.19917 -11.19593
 Alpha  occ. eigenvalues --   -1.60108  -1.39666  -1.19532  -1.08942  -1.06953
 Alpha  occ. eigenvalues --   -1.04922  -1.02204  -0.95788  -0.94669  -0.86324
 Alpha  occ. eigenvalues --   -0.85693  -0.82625  -0.78236  -0.77680  -0.76702
 Alpha  occ. eigenvalues --   -0.72289  -0.71421  -0.70639  -0.65188  -0.64924
 Alpha  occ. eigenvalues --   -0.63595  -0.62269  -0.59620  -0.58038  -0.56267
 Alpha  occ. eigenvalues --   -0.55427  -0.53977  -0.53256  -0.53013  -0.51429
 Alpha  occ. eigenvalues --   -0.51087  -0.49109  -0.49047  -0.48618  -0.46558
 Alpha  occ. eigenvalues --   -0.45271  -0.45106  -0.44260  -0.44018  -0.42408
 Alpha  occ. eigenvalues --   -0.37507  -0.36522
 Alpha virt. eigenvalues --    0.04816   0.11134   0.16318   0.21262   0.24278
 Alpha virt. eigenvalues --    0.25483   0.27197   0.27901   0.28272   0.28982
 Alpha virt. eigenvalues --    0.29408   0.30908   0.32321   0.32622   0.32978

 Mulliken charges:
               1
     1  C   -0.170431
     2  C   -0.218542
     3  C   -0.170728
     4  C    0.158072
     5  C   -0.170522
     6  C   -0.218598
     7  H    0.226298
     8  H    0.224077
     9  H    0.275587
    10  H    0.276201
    11  H    0.224150
    12  N    0.490678
    13  O   -0.457350
    14  O   -0.462226
    15  C   -0.297660
    16  C   -0.302591
    17  C   -0.475063
    18  H    0.142959
    19  H    0.142940
    20  H    0.151469
    21  H    0.169480
    22  H    0.150522
    23  H    0.150929
    24  H    0.156429
    25  C   -0.301655
    26  C   -0.299486
    27  C   -0.472461
    28  H    0.152095
    29  H    0.168091
    30  H    0.146723
    31  H    0.145922
    32  H    0.154339
    33  H    0.157443
    34  H    0.152910
 Sum of Mulliken charges =  -0.00000

 Dipole moment (field-independent basis, Debye):
    X=              5.3954    Y=             -0.4177    Z=             -1.5720  Tot=              5.6352
 Quadrupole moment (field-independent basis, Debye-Ang):
   XX=            -71.9665   YY=            -93.1611   ZZ=            -94.3969
   XY=             -1.1647   XZ=             -3.6094   YZ=              2.9887

 Normal termination of Gaussian 16 at Wed May  5 23:57:57 2021.
