 Gaussian 16, Revision A.03,
 Gaussian 16:  EM64L-G16RevA.03 25-Dec-2016

 -------------
 #p 6-31g* mp2
 -------------

 ------------------------------------------------------
 Input file generated by CHIRIPA (05-May-2021 14:53:14)
 ------------------------------------------------------
 Symbolic Z-matrix:
 Charge =  0 Multiplicity = 1

                         Standard orientation:
 ---------------------------------------------------------------------
 Center     Atomic      Atomic             Coordinates (Angstroms)
 Number     Number       Type             X           Y           Z
 ---------------------------------------------------------------------
      1          6           0        3.577016   -0.171546   -0.496688
      2          6           0        3.189285   -1.527129    0.094956
      3          6           0        3.955556   -2.689204   -0.537660
      4          1           0        3.395233   -0.185951   -1.580059
      5          1           0        4.656536   -0.016181   -0.362926
      6          1           0        2.110575   -1.679281   -0.038649
      7          1           0        3.371831   -1.509431    1.177074
      8          1           0        5.033461   -2.564520   -0.392145
      9          1           0        3.765038   -2.735336   -1.614775
     10          1           0        3.662875   -3.648694   -0.099966
     11          6           0        2.819456    1.000050    0.125560
     12          6           0        3.207187    2.355634   -0.466084
     13          6           0        2.440915    3.517709    0.166532
     14          1           0        1.739935    0.844686   -0.008203
     15          1           0        3.001238    1.014455    1.208931
     16          1           0        3.024640    2.337935   -1.548202
     17          1           0        4.285897    2.507786   -0.332479
     18          1           0        2.631433    3.563840    1.243647
     19          1           0        1.363010    3.393025    0.021017
     20          1           0        2.733596    4.477199   -0.271163
     21          6           0       -0.606656   -1.823837    0.876944
     22          6           0       -1.613523   -2.322769    0.043993
     23          6           0       -2.666609   -1.500598   -0.367822
     24          6           0       -2.681530   -0.178601    0.074207
     25          6           0       -1.693133    0.347833    0.904405
     26          6           0       -0.649598   -0.492476    1.303738
     27          1           0        0.207696   -2.469564    1.192003
     28          1           0       -1.582751   -3.356308   -0.289015
     29          1           0       -3.459124   -1.860971   -1.012392
     30          1           0       -1.750964    1.382473    1.219989
     31          1           0        0.130982   -0.102285    1.950647
     32          7           0       -3.791329    0.701395   -0.355156
     33          8           0       -3.781548    1.862398    0.048099
     34          8           0       -4.649956    0.213472   -1.086816
 ---------------------------------------------------------------------

 SCF Done:  E(RHF) =  -669.534812614     A.U. after   15 cycles
 E2 =    -0.2093606952D+01 EUMP2 =    -0.67162841956650D+03

 The electronic state is 1-A.
 Alpha  occ. eigenvalues --  -20.60798 -20.60792 -15.85851 -11.31234 -11.27798
 Alpha  occ. eigenvalues --  -11.27789 -11.27491 -11.26814 -11.26773 -11.22471
 Alpha  occ. eigenvalues --  -11.22082 -11.22059 -11.21984 -11.21869 -11.21477
 Alpha  occ. eigenvalues --   -1.59873  -1.39426  -1.19409  -1.09117  -1.08787
 Alpha  occ. eigenvalues --   -1.04806  -1.04185  -0.96613  -0.95631  -0.87631
 Alpha  occ. eigenvalues --   -0.86199  -0.82463  -0.80281  -0.78962  -0.77491
 Alpha  occ. eigenvalues --   -0.72068  -0.71197  -0.70518  -0.65741  -0.65051
 Alpha  occ. eigenvalues --   -0.64781  -0.62147  -0.61576  -0.60015  -0.58250
 Alpha  occ. eigenvalues --   -0.55898  -0.55289  -0.53346  -0.53145  -0.53083
 Alpha  occ. eigenvalues --   -0.52826  -0.50546  -0.48834  -0.48823  -0.48567
 Alpha  occ. eigenvalues --   -0.47298  -0.46460  -0.46364  -0.44828  -0.44429
 Alpha  occ. eigenvalues --   -0.37315  -0.36374
 Alpha virt. eigenvalues --    0.04969   0.11170   0.16312   0.20612   0.22629
 Alpha virt. eigenvalues --    0.23353   0.25396   0.26359   0.26851   0.27830
 Alpha virt. eigenvalues --    0.29184   0.30367   0.30955   0.31462   0.31802

 Mulliken charges:
               1
     1  C   -0.296472
     2  C   -0.309548
     3  C   -0.475331
     4  H    0.153125
     5  H    0.151680
     6  H    0.152822
     7  H    0.147688
     8  H    0.158763
     9  H    0.158196
    10  H    0.156839
    11  C   -0.306685
    12  C   -0.299519
    13  C   -0.476899
    14  H    0.154923
    15  H    0.144173
    16  H    0.155003
    17  H    0.152990
    18  H    0.153341
    19  H    0.155847
    20  H    0.164051
    21  C   -0.172644
    22  C   -0.220545
    23  C   -0.170798
    24  C    0.158988
    25  C   -0.173735
    26  C   -0.217432
    27  H    0.229588
    28  H    0.223857
    29  H    0.275750
    30  H    0.276150
    31  H    0.228334
    32  N    0.488041
    33  O   -0.460235
    34  O   -0.460306
 Sum of Mulliken charges =  -0.00000

 Dipole moment (field-independent basis, Debye):
    X=              3.9464    Y=             -3.0497    Z=              1.4274  Tot=              5.1877
 Quadrupole moment (field-independent basis, Debye-Ang):
   XX=           -115.0986   YY=            -91.7664   ZZ=            -93.3671
   XY=             10.0805   XZ=             -2.2644   YZ=              1.4473

 Normal termination of Gaussian 16 at Thu May  6 18:47:40 2021.
