 Gaussian 16, Revision A.03,
 Gaussian 16:  EM64L-G16RevA.03 25-Dec-2016

 -------------
 #p 6-31g* mp2
 -------------

 ------------------------------------------------------
 Input file generated by CHIRIPA (05-May-2021 14:53:11)
 ------------------------------------------------------
 Symbolic Z-matrix:
 Charge =  0 Multiplicity = 1

                         Standard orientation:
 ---------------------------------------------------------------------
 Center     Atomic      Atomic             Coordinates (Angstroms)
 Number     Number       Type             X           Y           Z
 ---------------------------------------------------------------------
      1          6           0        4.256407   -0.091273   -0.422207
      2          6           0        5.668627   -0.262630    0.138379
      3          6           0        6.723873    0.482115   -0.679915
      4          1           0        4.235482   -0.447558   -1.461230
      5          1           0        4.009290    0.978930   -0.453713
      6          1           0        5.912483   -1.332277    0.170110
      7          1           0        5.686146    0.093926    1.176250
      8          1           0        6.507983    1.555207   -0.701493
      9          1           0        6.735605    0.120900   -1.713349
     10          1           0        7.726031    0.346022   -0.261562
     11          6           0        3.190396   -0.829955    0.385070
     12          6           0        1.778176   -0.658598   -0.175515
     13          6           0        0.722930   -1.403344    0.642778
     14          1           0        3.437513   -1.900159    0.416576
     15          1           0        3.211321   -0.473671    1.424093
     16          1           0        1.760657   -1.015155   -1.213387
     17          1           0        1.534320    0.411048   -0.207247
     18          1           0        0.711198   -1.042129    1.676213
     19          1           0        0.938820   -2.476436    0.664357
     20          1           0       -0.279228   -1.267251    0.224425
     21          6           0       -1.389770    2.267558    0.661666
     22          6           0       -1.651499    1.240520    1.574470
     23          6           0       -2.491648    0.178558    1.226714
     24          6           0       -3.055772    0.175425   -0.048058
     25          6           0       -2.814291    1.183957   -0.979639
     26          6           0       -1.970977    2.236053   -0.610234
     27          1           0       -0.735893    3.088684    0.940221
     28          1           0       -1.201509    1.262373    2.562942
     29          1           0       -2.711287   -0.629540    1.913850
     30          1           0       -3.277429    1.134635   -1.957640
     31          1           0       -1.769498    3.032301   -1.321176
     32          7           0       -3.946876   -0.943604   -0.427673
     33          8           0       -4.431572   -0.923116   -1.556958
     34          8           0       -4.143753   -1.820000    0.411260
 ---------------------------------------------------------------------

 SCF Done:  E(RHF) =  -669.534240091     A.U. after   15 cycles
 E2 =    -0.2093417887D+01 EUMP2 =    -0.67162765797834D+03

 The electronic state is 1-A.
 Alpha  occ. eigenvalues --  -20.60800 -20.60794 -15.85855 -11.31224 -11.27809
 Alpha  occ. eigenvalues --  -11.27774 -11.27568 -11.26825 -11.26796 -11.21864
 Alpha  occ. eigenvalues --  -11.21813 -11.21681 -11.21615 -11.21322 -11.21153
 Alpha  occ. eigenvalues --   -1.59877  -1.39429  -1.19423  -1.08811  -1.08683
 Alpha  occ. eigenvalues --   -1.04825  -1.03750  -0.96206  -0.95638  -0.87226
 Alpha  occ. eigenvalues --   -0.86216  -0.82466  -0.79825  -0.78504  -0.77508
 Alpha  occ. eigenvalues --   -0.72070  -0.71209  -0.70523  -0.65327  -0.65065
 Alpha  occ. eigenvalues --   -0.64815  -0.62163  -0.61168  -0.59622  -0.57852
 Alpha  occ. eigenvalues --   -0.55544  -0.55320  -0.53548  -0.52905  -0.52690
 Alpha  occ. eigenvalues --   -0.52312  -0.50148  -0.48831  -0.48824  -0.48140
 Alpha  occ. eigenvalues --   -0.46871  -0.46044  -0.45981  -0.44832  -0.44025
 Alpha  occ. eigenvalues --   -0.37386  -0.36308
 Alpha virt. eigenvalues --    0.05017   0.11164   0.16444   0.21075   0.22645
 Alpha virt. eigenvalues --    0.24066   0.26203   0.26660   0.27311   0.28068
 Alpha virt. eigenvalues --    0.28404   0.30269   0.31258   0.31657   0.31943

 Mulliken charges:
               1
     1  C   -0.297748
     2  C   -0.299642
     3  C   -0.475683
     4  H    0.150940
     5  H    0.146309
     6  H    0.153294
     7  H    0.150959
     8  H    0.153970
     9  H    0.155983
    10  H    0.160950
    11  C   -0.298247
    12  C   -0.299816
    13  C   -0.475137
    14  H    0.151560
    15  H    0.146571
    16  H    0.153850
    17  H    0.147549
    18  H    0.145068
    19  H    0.156739
    20  H    0.167233
    21  C   -0.171785
    22  C   -0.211596
    23  C   -0.173439
    24  C    0.159436
    25  C   -0.171797
    26  C   -0.218061
    27  H    0.225730
    28  H    0.223427
    29  H    0.276351
    30  H    0.275912
    31  H    0.223785
    32  N    0.487855
    33  O   -0.460466
    34  O   -0.460054
 Sum of Mulliken charges =  -0.00000

 Dipole moment (field-independent basis, Debye):
    X=              3.0834    Y=              3.9333    Z=              1.3169  Tot=              5.1684
 Quadrupole moment (field-independent basis, Debye-Ang):
   XX=           -115.4708   YY=            -92.5913   ZZ=            -90.8816
   XY=            -12.5029   XZ=             -3.3767   YZ=             -1.2981

 Normal termination of Gaussian 16 at Wed May  5 21:41:10 2021.
