 Gaussian 16, Revision A.03,
 Gaussian 16:  EM64L-G16RevA.03 25-Dec-2016

 -------------
 #p 6-31g* mp2
 -------------

 ------------------------------------------------------
 Input file generated by CHIRIPA (05-May-2021 14:55:24)
 ------------------------------------------------------
 Symbolic Z-matrix:
 Charge =  0 Multiplicity = 1

                         Standard orientation:
 ---------------------------------------------------------------------
 Center     Atomic      Atomic             Coordinates (Angstroms)
 Number     Number       Type             X           Y           Z
 ---------------------------------------------------------------------
      1          6           0        4.325811    0.624526   -0.591694
      2          6           0        3.676471    0.994517    0.590671
      3          6           0        2.531576    0.313531    1.014960
      4          6           0        2.061270   -0.737333    0.228967
      5          6           0        2.685997   -1.129663   -0.953862
      6          6           0        3.829377   -0.434516   -1.358834
      7          1           0        5.214605    1.159032   -0.913789
      8          1           0        4.059761    1.816587    1.188446
      9          1           0        2.009267    0.579056    1.926062
     10          1           0        2.280230   -1.953318   -1.528633
     11          1           0        4.331607   -0.724048   -2.277518
     12          7           0        0.850023   -1.465758    0.667918
     13          8           0        0.455680   -2.388046   -0.042376
     14          8           0        0.317926   -1.100617    1.713949
     15          6           0       -2.209753    1.084401   -0.369902
     16          6           0       -2.013594    2.506021    0.157832
     17          6           0       -0.640009    3.081094   -0.189081
     18          1           0       -1.424465    0.435684    0.041721
     19          1           0       -2.075802    1.083873   -1.460522
     20          1           0       -2.149241    2.504117    1.246966
     21          1           0       -2.799554    3.151388   -0.254943
     22          1           0       -0.498208    3.112036   -1.274225
     23          1           0        0.155800    2.461087    0.236219
     24          1           0       -0.521181    4.098011    0.197724
     25          6           0       -3.578147    0.495836   -0.031051
     26          6           0       -3.774306   -0.925784   -0.558785
     27          6           0       -5.147890   -1.500857   -0.211872
     28          1           0       -3.712098    0.496364    1.059569
     29          1           0       -4.363435    1.144553   -0.442675
     30          1           0       -2.988346   -1.571151   -0.146009
     31          1           0       -3.638659   -0.923880   -1.647919
     32          1           0       -5.943700   -0.880850   -0.637172
     33          1           0       -5.289692   -1.531799    0.873272
     34          1           0       -5.266719   -2.517775   -0.598678
 ---------------------------------------------------------------------

 SCF Done:  E(RHF) =  -669.536469136     A.U. after   15 cycles
 E2 =    -0.2092898431D+01 EUMP2 =    -0.67162936756683D+03

 The electronic state is 1-A.
 Alpha  occ. eigenvalues --  -20.61034 -20.61015 -15.86032 -11.31330 -11.27892
 Alpha  occ. eigenvalues --  -11.27874 -11.27605 -11.26886 -11.26874 -11.21065
 Alpha  occ. eigenvalues --  -11.20817 -11.20560 -11.20476 -11.20419 -11.20134
 Alpha  occ. eigenvalues --   -1.60082  -1.39636  -1.19491  -1.08900  -1.07603
 Alpha  occ. eigenvalues --   -1.04882  -1.02777  -0.95749  -0.95265  -0.86306
 Alpha  occ. eigenvalues --   -0.86268  -0.82584  -0.78852  -0.77645  -0.77390
 Alpha  occ. eigenvalues --   -0.72259  -0.71406  -0.70597  -0.65146  -0.64881
 Alpha  occ. eigenvalues --   -0.64205  -0.62231  -0.60167  -0.58660  -0.56863
 Alpha  occ. eigenvalues --   -0.55385  -0.54580  -0.53201  -0.52970  -0.51993
 Alpha  occ. eigenvalues --   -0.51691  -0.49219  -0.49030  -0.49027  -0.47182
 Alpha  occ. eigenvalues --   -0.45928  -0.45143  -0.44925  -0.44602  -0.43011
 Alpha  occ. eigenvalues --   -0.37455  -0.36460
 Alpha virt. eigenvalues --    0.04838   0.11110   0.16335   0.21224   0.23572
 Alpha virt. eigenvalues --    0.24884   0.26877   0.27385   0.27970   0.28568
 Alpha virt. eigenvalues --    0.28693   0.30952   0.31566   0.32163   0.32724

 Mulliken charges:
               1
     1  C   -0.170217
     2  C   -0.218259
     3  C   -0.170997
     4  C    0.158297
     5  C   -0.170343
     6  C   -0.218236
     7  H    0.226307
     8  H    0.224498
     9  H    0.276098
    10  H    0.276041
    11  H    0.224049
    12  N    0.487356
    13  O   -0.457895
    14  O   -0.459254
    15  C   -0.303671
    16  C   -0.298202
    17  C   -0.477006
    18  H    0.160077
    19  H    0.144575
    20  H    0.153564
    21  H    0.149677
    22  H    0.153405
    23  H    0.151002
    24  H    0.156508
    25  C   -0.296592
    26  C   -0.304865
    27  C   -0.475344
    28  H    0.151954
    29  H    0.144307
    30  H    0.171086
    31  H    0.147027
    32  H    0.150327
    33  H    0.155435
    34  H    0.159291
 Sum of Mulliken charges =  -0.00000

 Dipole moment (field-independent basis, Debye):
    X=              4.4800    Y=              2.3494    Z=             -1.4675  Tot=              5.2672
 Quadrupole moment (field-independent basis, Debye-Ang):
   XX=            -78.9370   YY=            -97.8790   ZZ=            -91.8284
   XY=              1.6650   XZ=             -2.4889   YZ=              4.3474

 Normal termination of Gaussian 16 at Thu May  6 01:34:28 2021.
