 Gaussian 16, Revision A.03,
 Gaussian 16:  EM64L-G16RevA.03 25-Dec-2016

 -------------
 #p 6-31g* mp2
 -------------

 ------------------------------------------------------
 Input file generated by CHIRIPA (05-May-2021 14:55:22)
 ------------------------------------------------------
 Symbolic Z-matrix:
 Charge =  0 Multiplicity = 1

                         Standard orientation:
 ---------------------------------------------------------------------
 Center     Atomic      Atomic             Coordinates (Angstroms)
 Number     Number       Type             X           Y           Z
 ---------------------------------------------------------------------
      1          6           0       -2.815989    2.635908   -0.386516
      2          6           0       -2.609802    1.697465   -1.403046
      3          6           0       -2.607769    0.329120   -1.116383
      4          6           0       -2.816008   -0.067404    0.203729
      5          6           0       -3.024238    0.843275    1.238424
      6          6           0       -3.022185    2.206575    0.928656
      7          1           0       -2.815981    3.696912   -0.618177
      8          1           0       -2.449409    2.028003   -2.425329
      9          1           0       -2.450618   -0.418846   -1.884021
     10          1           0       -3.181396    0.483342    2.247962
     11          1           0       -3.182571    2.933133    1.720132
     12          7           0       -2.816018   -1.513340    0.519436
     13          8           0       -3.001781   -1.836982    1.690498
     14          8           0       -2.630262   -2.295643   -0.410152
     15          6           0        2.928474   -0.097115   -0.528298
     16          6           0        2.072776   -1.359134   -0.642646
     17          6           0        0.723401   -1.099678   -1.313216
     18          1           0        2.375191    0.663117    0.039918
     19          1           0        3.090858    0.319560   -1.531994
     20          1           0        1.913211   -1.774077    0.360836
     21          1           0        2.628237   -2.116518   -1.210492
     22          1           0        0.865332   -0.707327   -2.325400
     23          1           0        0.146243   -0.362939   -0.745144
     24          1           0        0.127958   -2.015214   -1.384647
     25          6           0        4.280502   -0.340397    0.139955
     26          6           0        5.136200    0.921622    0.254303
     27          6           0        6.485574    0.662166    0.924874
     28          1           0        4.118117   -0.757072    1.143652
     29          1           0        4.833784   -1.100629   -0.428261
     30          1           0        4.580738    1.679006    0.822150
     31          1           0        5.295765    1.336565   -0.749179
     32          1           0        7.062732   -0.074573    0.356801
     33          1           0        6.343643    0.269814    1.937058
     34          1           0        7.081017    1.577702    0.996304
 ---------------------------------------------------------------------

 SCF Done:  E(RHF) =  -669.535044918     A.U. after   15 cycles
 E2 =    -0.2092898202D+01 EUMP2 =    -0.67162794311957D+03

 The electronic state is 1-A.
 Alpha  occ. eigenvalues --  -20.60836 -20.60823 -15.85863 -11.31180 -11.27788
 Alpha  occ. eigenvalues --  -11.27745 -11.27524 -11.26776 -11.26755 -11.21559
 Alpha  occ. eigenvalues --  -11.21304 -11.21266 -11.21204 -11.21029 -11.20650
 Alpha  occ. eigenvalues --   -1.59892  -1.39449  -1.19385  -1.08778  -1.08278
 Alpha  occ. eigenvalues --   -1.04782  -1.03352  -0.95829  -0.95602  -0.86855
 Alpha  occ. eigenvalues --   -0.86162  -0.82451  -0.79443  -0.78101  -0.77490
 Alpha  occ. eigenvalues --   -0.72093  -0.71213  -0.70489  -0.65035  -0.64915
 Alpha  occ. eigenvalues --   -0.64774  -0.62125  -0.60768  -0.59152  -0.57415
 Alpha  occ. eigenvalues --   -0.55301  -0.55154  -0.53216  -0.52885  -0.52443
 Alpha  occ. eigenvalues --   -0.52144  -0.49765  -0.48847  -0.48845  -0.47733
 Alpha  occ. eigenvalues --   -0.46480  -0.45640  -0.45569  -0.44862  -0.43533
 Alpha  occ. eigenvalues --   -0.37341  -0.36327
 Alpha virt. eigenvalues --    0.04996   0.11256   0.16482   0.21338   0.22992
 Alpha virt. eigenvalues --    0.24484   0.26701   0.27002   0.27654   0.27850
 Alpha virt. eigenvalues --    0.28619   0.30696   0.31477   0.31813   0.32057

 Mulliken charges:
               1
     1  C   -0.170557
     2  C   -0.218495
     3  C   -0.168935
     4  C    0.158276
     5  C   -0.171517
     6  C   -0.219092
     7  H    0.225763
     8  H    0.223873
     9  H    0.278006
    10  H    0.275531
    11  H    0.223362
    12  N    0.489494
    13  O   -0.460232
    14  O   -0.459947
    15  C   -0.297666
    16  C   -0.299632
    17  C   -0.489218
    18  H    0.147503
    19  H    0.146903
    20  H    0.155389
    21  H    0.152093
    22  H    0.146768
    23  H    0.152704
    24  H    0.180271
    25  C   -0.298243
    26  C   -0.299205
    27  C   -0.475601
    28  H    0.150613
    29  H    0.150088
    30  H    0.150441
    31  H    0.150784
    32  H    0.155545
    33  H    0.155649
    34  H    0.159285
 Sum of Mulliken charges =  -0.00000

 Dipole moment (field-independent basis, Debye):
    X=             -0.1142    Y=              5.0004    Z=             -1.0972  Tot=              5.1206
 Quadrupole moment (field-independent basis, Debye-Ang):
   XX=            -96.5355   YY=            -95.5881   ZZ=            -90.0786
   XY=            -14.8912   XZ=              1.5239   YZ=              2.5053

 Normal termination of Gaussian 16 at Thu May  6 17:34:05 2021.
