 Gaussian 16, Revision A.03,
 Gaussian 16:  EM64L-G16RevA.03 25-Dec-2016

 -------------
 #p 6-31g* mp2
 -------------

 ------------------------------------------------------
 Input file generated by CHIRIPA (05-May-2021 14:51:11)
 ------------------------------------------------------
 Symbolic Z-matrix:
 Charge =  0 Multiplicity = 1

                         Standard orientation:
 ---------------------------------------------------------------------
 Center     Atomic      Atomic             Coordinates (Angstroms)
 Number     Number       Type             X           Y           Z
 ---------------------------------------------------------------------
      1          6           0       -2.982925    0.385518   -0.036319
      2          6           0       -3.940171   -0.393912   -0.938625
      3          6           0       -4.658788    0.499724   -1.949959
      4          1           0       -3.544167    1.165931    0.495572
      5          1           0       -2.241948    0.903844   -0.660568
      6          1           0       -4.678282   -0.911729   -0.312786
      7          1           0       -3.376620   -1.172684   -1.468286
      8          1           0       -3.936382    1.005855   -2.598465
      9          1           0       -5.245439    1.268293   -1.436401
     10          1           0       -5.338026   -0.077894   -2.584667
     11          6           0       -2.257029   -0.494132    0.980056
     12          6           0       -1.299783    0.285298    1.882361
     13          6           0       -0.581166   -0.608338    2.893695
     14          1           0       -2.998005   -1.012458    1.604304
     15          1           0       -1.695787   -1.274545    0.448164
     16          1           0       -1.863334    1.064070    2.412022
     17          1           0       -0.561672    0.803115    1.256523
     18          1           0        0.005485   -1.376907    2.380137
     19          1           0       -1.303572   -1.114469    3.542202
     20          1           0        0.098072   -0.030720    3.528404
     21          6           0        2.628103   -0.572507   -0.908297
     22          6           0        2.588107   -1.872136   -0.103717
     23          6           0        2.604918   -3.117351   -0.990819
     24          1           0        1.770653   -0.547092   -1.594649
     25          1           0        3.530554   -0.565121   -1.535132
     26          1           0        1.686709   -1.876450    0.522447
     27          1           0        3.445646   -1.894371    0.580935
     28          1           0        3.510656   -3.140314   -1.605403
     29          1           0        1.741725   -3.122291   -1.664224
     30          1           0        2.575760   -4.035058   -0.395150
     31          6           0        2.611851    0.681121   -0.035439
     32          6           0        2.651847    1.980750   -0.840020
     33          6           0        2.635036    3.225965    0.047083
     34          1           0        1.709399    0.673734    0.591395
     35          1           0        3.469302    0.655706    0.650912
     36          1           0        1.794308    2.002986   -1.524671
     37          1           0        3.553244    1.985064   -1.466183
     38          1           0        3.498228    3.230905    0.720488
     39          1           0        1.729298    3.248928    0.661666
     40          1           0        2.664193    4.143673   -0.548586
 ---------------------------------------------------------------------

 SCF Done:  E(RHF) =  -470.733056389     A.U. after   11 cycles
 E2 =    -0.1584057796D+01 EUMP2 =    -0.47231711418439D+03

 The electronic state is 1-A.
 Alpha  occ. eigenvalues --  -11.21665 -11.21647 -11.21642 -11.21627 -11.21469
 Alpha  occ. eigenvalues --  -11.21430 -11.21409 -11.21358 -11.21113 -11.21109
 Alpha  occ. eigenvalues --  -11.21106 -11.21087  -1.08511  -1.08445  -1.03587
 Alpha  occ. eigenvalues --   -1.03562  -0.96036  -0.96003  -0.87054  -0.87016
 Alpha  occ. eigenvalues --   -0.79700  -0.79578  -0.78336  -0.78251  -0.65369
 Alpha  occ. eigenvalues --   -0.64890  -0.60995  -0.60962  -0.59424  -0.59351
 Alpha  occ. eigenvalues --   -0.57678  -0.57581  -0.55360  -0.55268  -0.52722
 Alpha  occ. eigenvalues --   -0.52699  -0.52470  -0.52420  -0.50080  -0.49875
 Alpha  occ. eigenvalues --   -0.48008  -0.47957  -0.46913  -0.46443  -0.46051
 Alpha  occ. eigenvalues --   -0.45792  -0.45754  -0.45419  -0.43837  -0.43811
 Alpha virt. eigenvalues --    0.19319   0.22976   0.23492   0.24180   0.25950
 Alpha virt. eigenvalues --    0.26669   0.27287   0.27872   0.28197   0.29633
 Alpha virt. eigenvalues --    0.29700   0.31584   0.31712   0.31867   0.32394

 Mulliken charges:
               1
     1  C   -0.298316
     2  C   -0.299698
     3  C   -0.475747
     4  H    0.150008
     5  H    0.149053
     6  H    0.152155
     7  H    0.151874
     8  H    0.155160
     9  H    0.155318
    10  H    0.160452
    11  C   -0.298385
    12  C   -0.306202
    13  C   -0.480320
    14  H    0.150118
    15  H    0.149255
    16  H    0.152748
    17  H    0.156045
    18  H    0.159560
    19  H    0.155629
    20  H    0.161079
    21  C   -0.297491
    22  C   -0.305874
    23  C   -0.475416
    24  H    0.148732
    25  H    0.149885
    26  H    0.156818
    27  H    0.152521
    28  H    0.155487
    29  H    0.154786
    30  H    0.160462
    31  C   -0.307733
    32  C   -0.299244
    33  C   -0.476255
    34  H    0.158947
    35  H    0.150013
    36  H    0.151187
    37  H    0.152162
    38  H    0.155356
    39  H    0.155475
    40  H    0.160395
 Sum of Mulliken charges =  -0.00000

 Dipole moment (field-independent basis, Debye):
    X=             -0.0046    Y=             -0.0029    Z=              0.0229  Tot=              0.0235
 Quadrupole moment (field-independent basis, Debye-Ang):
   XX=            -83.4023   YY=            -86.0172   ZZ=            -85.1794
   XY=              0.1777   XZ=             -0.9315   YZ=             -0.0003

 Normal termination of Gaussian 16 at Wed May  5 16:45:45 2021.
