 Gaussian 16, Revision A.03,
 Gaussian 16:  EM64L-G16RevA.03 25-Dec-2016

 -------------
 #p 6-31g* mp2
 -------------

 ------------------------------------------------------
 Input file generated by CHIRIPA (05-May-2021 14:55:18)
 ------------------------------------------------------
 Symbolic Z-matrix:
 Charge =  0 Multiplicity = 1

                         Standard orientation:
 ---------------------------------------------------------------------
 Center     Atomic      Atomic             Coordinates (Angstroms)
 Number     Number       Type             X           Y           Z
 ---------------------------------------------------------------------
      1          6           0       -6.377618   -0.870570   -0.044688
      2          6           0       -5.241975   -1.686628   -0.014966
      3          6           0       -3.962681   -1.122883   -0.002831
      4          6           0       -3.855327    0.266876   -0.021136
      5          6           0       -4.967643    1.106616   -0.050829
      6          6           0       -6.237075    0.520995   -0.062493
      7          1           0       -7.367574   -1.316998   -0.053932
      8          1           0       -5.348100   -2.767642   -0.001086
      9          1           0       -3.066603   -1.731106    0.020108
     10          1           0       -4.830010    2.180999   -0.064115
     11          1           0       -7.117259    1.157224   -0.085583
     12          7           0       -2.506216    0.875268   -0.008538
     13          8           0       -2.438520    2.102370   -0.025130
     14          8           0       -1.542025    0.113504    0.017688
     15          6           0        5.817864    0.238552    0.175229
     16          6           0        7.138783   -0.312711   -0.362606
     17          6           0        8.326683    0.602337   -0.063651
     18          1           0        5.637214    1.230592   -0.260851
     19          1           0        5.904716    0.385380    1.260721
     20          1           0        7.049007   -0.459760   -1.446549
     21          1           0        7.316215   -1.303637    0.074658
     22          1           0        8.444636    0.740177    1.016019
     23          1           0        8.175910    1.588850   -0.513830
     24          1           0        9.260716    0.189110   -0.456953
     25          6           0        4.620990   -0.665062   -0.115806
     26          6           0        3.300070   -0.113800    0.422028
     27          6           0        2.112170   -1.028849    0.123073
     28          1           0        4.534138   -0.811891   -1.201299
     29          1           0        4.801639   -1.657104    0.320273
     30          1           0        3.122639    0.877127   -0.015235
     31          1           0        3.389847    0.033249    1.505972
     32          1           0        2.262943   -2.015361    0.573253
     33          1           0        1.994217   -1.166689   -0.956598
     34          1           0        1.178139   -0.615621    0.516376
 ---------------------------------------------------------------------

 SCF Done:  E(RHF) =  -669.536067756     A.U. after   15 cycles
 E2 =    -0.2090548300D+01 EUMP2 =    -0.67162661605694D+03

 The electronic state is 1-A.
 Alpha  occ. eigenvalues --  -20.60913 -20.60908 -15.85955 -11.31275 -11.27839
 Alpha  occ. eigenvalues --  -11.27833 -11.27579 -11.26848 -11.26838 -11.21026
 Alpha  occ. eigenvalues --  -11.20663 -11.20583 -11.20506 -11.20425 -11.19563
 Alpha  occ. eigenvalues --   -1.59979  -1.39535  -1.19444  -1.08849  -1.07602
 Alpha  occ. eigenvalues --   -1.04841  -1.02625  -0.95692  -0.95060  -0.86242
 Alpha  occ. eigenvalues --   -0.86080  -0.82524  -0.78722  -0.77576  -0.77390
 Alpha  occ. eigenvalues --   -0.72181  -0.71294  -0.70553  -0.65101  -0.64844
 Alpha  occ. eigenvalues --   -0.64245  -0.62187  -0.60036  -0.58456  -0.56641
 Alpha  occ. eigenvalues --   -0.55346  -0.54374  -0.53173  -0.52933  -0.51701
 Alpha  occ. eigenvalues --   -0.51496  -0.49053  -0.48929  -0.48905  -0.47012
 Alpha  occ. eigenvalues --   -0.45786  -0.44957  -0.44922  -0.44854  -0.42845
 Alpha  occ. eigenvalues --   -0.37425  -0.36442
 Alpha virt. eigenvalues --    0.04953   0.11213   0.16449   0.21339   0.23638
 Alpha virt. eigenvalues --    0.25271   0.27266   0.27428   0.28142   0.28290
 Alpha virt. eigenvalues --    0.29008   0.30892   0.32242   0.32345   0.32557

 Mulliken charges:
               1
     1  C   -0.170618
     2  C   -0.218575
     3  C   -0.170866
     4  C    0.157416
     5  C   -0.170505
     6  C   -0.218629
     7  H    0.225916
     8  H    0.223843
     9  H    0.276209
    10  H    0.275800
    11  H    0.223721
    12  N    0.493755
    13  O   -0.459330
    14  O   -0.465062
    15  C   -0.297629
    16  C   -0.298936
    17  C   -0.475262
    18  H    0.149769
    19  H    0.148329
    20  H    0.151044
    21  H    0.150496
    22  H    0.154461
    23  H    0.154963
    24  H    0.158315
    25  C   -0.297332
    26  C   -0.299093
    27  C   -0.484051
    28  H    0.147884
    29  H    0.146504
    30  H    0.154827
    31  H    0.148651
    32  H    0.144823
    33  H    0.151554
    34  H    0.187603
 Sum of Mulliken charges =  -0.00000

 Dipole moment (field-independent basis, Debye):
    X=             -5.1023    Y=             -2.0661    Z=             -0.0389  Tot=              5.5049
 Quadrupole moment (field-independent basis, Debye-Ang):
   XX=            -59.9253   YY=            -92.0707   ZZ=            -94.9943
   XY=              4.6670   XZ=              0.3201   YZ=             -0.5916

 Normal termination of Gaussian 16 at Thu May  6 06:03:20 2021.
