 Gaussian 16, Revision A.03,
 Gaussian 16:  EM64L-G16RevA.03 25-Dec-2016

 -------------
 #p 6-31g* mp2
 -------------

 ------------------------------------------------------
 Input file generated by CHIRIPA (05-May-2021 14:51:11)
 ------------------------------------------------------
 Symbolic Z-matrix:
 Charge =  0 Multiplicity = 1

                         Standard orientation:
 ---------------------------------------------------------------------
 Center     Atomic      Atomic             Coordinates (Angstroms)
 Number     Number       Type             X           Y           Z
 ---------------------------------------------------------------------
      1          6           0        2.683769   -0.387665   -0.569188
      2          6           0        3.103978   -1.802161   -0.969951
      3          6           0        1.925655   -2.660703   -1.430662
      4          1           0        1.936049   -0.447697    0.233468
      5          1           0        2.188206    0.095736   -1.422497
      6          1           0        3.599834   -2.282259   -0.116577
      7          1           0        3.850926   -1.738750   -1.771615
      8          1           0        1.434126   -2.207064   -2.297386
      9          1           0        1.181607   -2.753661   -0.632945
     10          1           0        2.248628   -3.667770   -1.712380
     11          6           0        3.850755    0.482741   -0.106301
     12          6           0        3.430546    1.897237    0.294463
     13          6           0        4.608868    2.755780    0.755173
     14          1           0        4.346317   -0.000660    0.747008
     15          1           0        4.598475    0.542773   -0.908957
     16          1           0        2.683598    1.833826    1.096126
     17          1           0        2.934690    2.377335   -0.558912
     18          1           0        5.352916    2.848737   -0.042544
     19          1           0        5.100398    2.302140    1.621898
     20          1           0        4.285896    3.762846    1.036891
     21          6           0       -3.987178    0.141494    0.166223
     22          6           0       -4.089834    1.299635   -0.826829
     23          6           0       -5.536350    1.666151   -1.160073
     24          1           0       -4.502937   -0.735455   -0.248383
     25          1           0       -4.520133    0.410355    1.088757
     26          1           0       -3.555667    1.029217   -1.746696
     27          1           0       -3.573607    2.173872   -0.409893
     28          1           0       -6.077143    1.961645   -0.255182
     29          1           0       -6.059104    0.810486   -1.599581
     30          1           0       -5.586453    2.496291   -1.871563
     31          6           0       -2.547345   -0.236569    0.509265
     32          6           0       -2.444690   -1.394712    1.502318
     33          6           0       -0.998174   -1.761227    1.835562
     34          1           0       -2.014391   -0.505431   -0.413268
     35          1           0       -2.031587    0.640380    0.923873
     36          1           0       -2.960918   -2.268948    1.085382
     37          1           0       -2.978856   -1.124293    2.422185
     38          1           0       -0.475421   -0.905562    2.275070
     39          1           0       -0.457380   -2.056721    0.930671
     40          1           0       -0.948071   -2.591367    2.547052
 ---------------------------------------------------------------------

 SCF Done:  E(RHF) =  -470.733301512     A.U. after   11 cycles
 E2 =    -0.1582895806D+01 EUMP2 =    -0.47231619731851D+03

 The electronic state is 1-A.
 Alpha  occ. eigenvalues --  -11.21625 -11.21596 -11.21578 -11.21575 -11.21401
 Alpha  occ. eigenvalues --  -11.21361 -11.21342 -11.21295 -11.21118 -11.21067
 Alpha  occ. eigenvalues --  -11.21066 -11.21054  -1.08436  -1.08395  -1.03552
 Alpha  occ. eigenvalues --   -1.03502  -0.96004  -0.95953  -0.87027  -0.86967
 Alpha  occ. eigenvalues --   -0.79649  -0.79536  -0.78271  -0.78176  -0.65083
 Alpha  occ. eigenvalues --   -0.65013  -0.61039  -0.60832  -0.59377  -0.59312
 Alpha  occ. eigenvalues --   -0.57636  -0.57546  -0.55429  -0.55120  -0.52692
 Alpha  occ. eigenvalues --   -0.52657  -0.52476  -0.52349  -0.50096  -0.49757
 Alpha  occ. eigenvalues --   -0.48070  -0.47787  -0.46733  -0.46482  -0.45909
 Alpha  occ. eigenvalues --   -0.45731  -0.45689  -0.45494  -0.43795  -0.43757
 Alpha virt. eigenvalues --    0.21176   0.23109   0.23507   0.24685   0.25974
 Alpha virt. eigenvalues --    0.26332   0.27085   0.27753   0.27808   0.29418
 Alpha virt. eigenvalues --    0.30206   0.31703   0.31771   0.31840   0.31967

 Mulliken charges:
               1
     1  C   -0.301583
     2  C   -0.299022
     3  C   -0.482725
     4  H    0.153747
     5  H    0.149071
     6  H    0.152076
     7  H    0.151791
     8  H    0.154695
     9  H    0.161262
    10  H    0.160511
    11  C   -0.298251
    12  C   -0.299484
    13  C   -0.475689
    14  H    0.149522
    15  H    0.149469
    16  H    0.151671
    17  H    0.151941
    18  H    0.155154
    19  H    0.155160
    20  H    0.160080
    21  C   -0.298350
    22  C   -0.299655
    23  C   -0.475715
    24  H    0.149699
    25  H    0.149449
    26  H    0.152014
    27  H    0.152000
    28  H    0.155152
    29  H    0.155189
    30  H    0.160230
    31  C   -0.298638
    32  C   -0.299193
    33  C   -0.484914
    34  H    0.150420
    35  H    0.149688
    36  H    0.152199
    37  H    0.151999
    38  H    0.155237
    39  H    0.163305
    40  H    0.160489
 Sum of Mulliken charges =  -0.00000

 Dipole moment (field-independent basis, Debye):
    X=             -0.0179    Y=             -0.0062    Z=              0.0062  Tot=              0.0199
 Quadrupole moment (field-independent basis, Debye-Ang):
   XX=            -86.3583   YY=            -84.9580   ZZ=            -83.5199
   XY=             -0.1345   XZ=             -0.7273   YZ=              0.0617

 Normal termination of Gaussian 16 at Wed May  5 23:04:39 2021.
