 Gaussian 16, Revision A.03,
 Gaussian 16:  EM64L-G16RevA.03 25-Dec-2016

 -------------
 #p 6-31g* mp2
 -------------

 ------------------------------------------------------
 Input file generated by CHIRIPA (05-May-2021 14:53:14)
 ------------------------------------------------------
 Symbolic Z-matrix:
 Charge =  0 Multiplicity = 1

                         Standard orientation:
 ---------------------------------------------------------------------
 Center     Atomic      Atomic             Coordinates (Angstroms)
 Number     Number       Type             X           Y           Z
 ---------------------------------------------------------------------
      1          6           0       -3.696775   -0.171071   -0.386997
      2          6           0       -4.400416   -1.075450    0.625412
      3          6           0       -5.060564   -2.290873   -0.026312
      4          1           0       -4.425183    0.164190   -1.137974
      5          1           0       -2.938814   -0.756102   -0.926097
      6          1           0       -5.155874   -0.488543    1.163409
      7          1           0       -3.670289   -1.408442    1.374176
      8          1           0       -4.315581   -2.900486   -0.547823
      9          1           0       -5.809607   -1.975360   -0.759788
     10          1           0       -5.557660   -2.923690    0.715510
     11          6           0       -3.031996    1.048305    0.249335
     12          6           0       -2.328354    1.952684   -0.763074
     13          6           0       -1.668206    3.168108   -0.111350
     14          1           0       -3.789956    1.633337    0.788435
     15          1           0       -2.303587    0.713045    1.000312
     16          1           0       -3.058481    2.285676   -1.511837
     17          1           0       -1.572896    1.365777   -1.301071
     18          1           0       -0.919163    2.852594    0.622126
     19          1           0       -2.413189    3.777720    0.410161
     20          1           0       -1.171110    3.800924   -0.853171
     21          6           0        5.139027   -0.136316   -0.088429
     22          6           0        4.481499    0.134658    1.116043
     23          6           0        3.090798    0.023572    1.206380
     24          6           0        2.385710   -0.362619    0.067521
     25          6           0        3.012005   -0.639380   -1.146747
     26          6           0        4.403479   -0.521789   -1.213995
     27          1           0        6.219657   -0.047494   -0.149637
     28          1           0        5.050168    0.434219    1.991784
     29          1           0        2.556335    0.227364    2.126291
     30          1           0        2.418077   -0.935918   -2.002745
     31          1           0        4.911459   -0.732857   -2.150719
     32          7           0        0.913028   -0.483664    0.150936
     33          8           0        0.314684   -0.825654   -0.866739
     34          8           0        0.384972   -0.234256    1.232411
 ---------------------------------------------------------------------

 SCF Done:  E(RHF) =  -669.537388863     A.U. after   15 cycles
 E2 =    -0.2093011112D+01 EUMP2 =    -0.67163039997501D+03

 The electronic state is 1-A.
 Alpha  occ. eigenvalues --  -20.61306 -20.61301 -15.86277 -11.31475 -11.28016
 Alpha  occ. eigenvalues --  -11.28013 -11.27732 -11.26993 -11.26983 -11.20131
 Alpha  occ. eigenvalues --  -11.19944 -11.19878 -11.19832 -11.19593 -11.19423
 Alpha  occ. eigenvalues --   -1.60322  -1.39884  -1.19625  -1.09055  -1.06736
 Alpha  occ. eigenvalues --   -1.05000  -1.02063  -0.95916  -0.94522  -0.86408
 Alpha  occ. eigenvalues --   -0.85556  -0.82756  -0.78119  -0.77825  -0.76536
 Alpha  occ. eigenvalues --   -0.72486  -0.71622  -0.70733  -0.65282  -0.65010
 Alpha  occ. eigenvalues --   -0.63328  -0.62348  -0.59456  -0.57914  -0.56151
 Alpha  occ. eigenvalues --   -0.55511  -0.53804  -0.53336  -0.53091  -0.51312
 Alpha  occ. eigenvalues --   -0.50980  -0.49306  -0.49265  -0.48412  -0.46452
 Alpha  occ. eigenvalues --   -0.45558  -0.44927  -0.44060  -0.43792  -0.42237
 Alpha  occ. eigenvalues --   -0.37594  -0.36593
 Alpha virt. eigenvalues --    0.04652   0.11064   0.16151   0.21185   0.24602
 Alpha virt. eigenvalues --    0.25627   0.27138   0.27925   0.28609   0.29146
 Alpha virt. eigenvalues --    0.29457   0.30824   0.32276   0.32752   0.33079

 Mulliken charges:
               1
     1  C   -0.301482
     2  C   -0.299364
     3  C   -0.474976
     4  H    0.140116
     5  H    0.165354
     6  H    0.145897
     7  H    0.156604
     8  H    0.155853
     9  H    0.151231
    10  H    0.155017
    11  C   -0.304484
    12  C   -0.304063
    13  C   -0.477250
    14  H    0.138146
    15  H    0.174430
    16  H    0.143340
    17  H    0.164610
    18  H    0.156891
    19  H    0.150716
    20  H    0.151820
    21  C   -0.170055
    22  C   -0.218579
    23  C   -0.170312
    24  C    0.158392
    25  C   -0.170284
    26  C   -0.218611
    27  H    0.226739
    28  H    0.224546
    29  H    0.276162
    30  H    0.276185
    31  H    0.224520
    32  N    0.489614
    33  O   -0.458363
    34  O   -0.458361
 Sum of Mulliken charges =  -0.00000

 Dipole moment (field-independent basis, Debye):
    X=              5.7465    Y=              0.1876    Z=             -0.2375  Tot=              5.7544
 Quadrupole moment (field-independent basis, Debye-Ang):
   XX=            -71.7194   YY=            -97.2328   ZZ=            -90.3005
   XY=             -1.4387   XZ=             -0.3692   YZ=              1.5219

 Normal termination of Gaussian 16 at Thu May  6 02:39:33 2021.
