 Gaussian 16, Revision A.03,
 Gaussian 16:  EM64L-G16RevA.03 25-Dec-2016

 -------------
 #p 6-31g* mp2
 -------------

 ------------------------------------------------------
 Input file generated by CHIRIPA (05-May-2021 14:55:20)
 ------------------------------------------------------
 Symbolic Z-matrix:
 Charge =  0 Multiplicity = 1

                         Standard orientation:
 ---------------------------------------------------------------------
 Center     Atomic      Atomic             Coordinates (Angstroms)
 Number     Number       Type             X           Y           Z
 ---------------------------------------------------------------------
      1          6           0       -3.593788    1.487709    0.234959
      2          6           0       -3.711048    0.610765   -0.848435
      3          6           0       -2.886782   -0.514440   -0.943547
      4          6           0       -1.951908   -0.733181    0.067123
      5          6           0       -1.810975    0.122003    1.158951
      6          6           0       -2.645797    1.240963    1.233433
      7          1           0       -4.238197    2.359370    0.300831
      8          1           0       -4.446379    0.799885   -1.625331
      9          1           0       -2.956292   -1.209696   -1.771319
     10          1           0       -1.068573   -0.092929    1.917938
     11          1           0       -2.552502    1.920295    2.075959
     12          7           0       -1.073707   -1.921080   -0.022649
     13          8           0       -0.258008   -2.091496    0.880806
     14          8           0       -1.217701   -2.659247   -0.994767
     15          6           0        2.541477    1.305940   -0.530527
     16          6           0        2.025290    2.495024    0.280408
     17          6           0        1.745342    3.723948   -0.585136
     18          1           0        3.458574    1.600867   -1.058632
     19          1           0        1.803838    1.050570   -1.303877
     20          1           0        2.763058    2.747195    1.052888
     21          1           0        1.109421    2.197174    0.806796
     22          1           0        0.992767    3.495419   -1.346718
     23          1           0        2.655800    4.048566   -1.099228
     24          1           0        1.377283    4.562109    0.014763
     25          6           0        2.825936    0.069807    0.320817
     26          6           0        3.342124   -1.119277   -0.490119
     27          6           0        3.622072   -2.348202    0.375426
     28          1           0        3.563575    0.325176    1.094167
     29          1           0        1.908839   -0.225121    0.848923
     30          1           0        4.257993   -0.821427   -1.016506
     31          1           0        2.604356   -1.371449   -1.262598
     32          1           0        2.711614   -2.672820    0.889518
     33          1           0        4.374647   -2.119673    1.137008
     34          1           0        3.990131   -3.186362   -0.224473
 ---------------------------------------------------------------------

 SCF Done:  E(RHF) =  -669.536781129     A.U. after   15 cycles
 E2 =    -0.2093064671D+01 EUMP2 =    -0.67162984580009D+03

 The electronic state is 1-A.
 Alpha  occ. eigenvalues --  -20.61120 -20.61109 -15.86121 -11.31395 -11.27953
 Alpha  occ. eigenvalues --  -11.27942 -11.27665 -11.26945 -11.26934 -11.21473
 Alpha  occ. eigenvalues --  -11.21060 -11.20948 -11.20577 -11.20506 -11.19700
 Alpha  occ. eigenvalues --   -1.60158  -1.39718  -1.19554  -1.08966  -1.07837
 Alpha  occ. eigenvalues --   -1.04942  -1.02876  -0.95817  -0.95325  -0.86349
 Alpha  occ. eigenvalues --   -0.86341  -0.82655  -0.79036  -0.77764  -0.77514
 Alpha  occ. eigenvalues --   -0.72351  -0.71471  -0.70657  -0.65215  -0.64941
 Alpha  occ. eigenvalues --   -0.64459  -0.62287  -0.60254  -0.58793  -0.56920
 Alpha  occ. eigenvalues --   -0.55443  -0.54599  -0.53269  -0.53028  -0.52054
 Alpha  occ. eigenvalues --   -0.51751  -0.49393  -0.49100  -0.48969  -0.47319
 Alpha  occ. eigenvalues --   -0.46083  -0.45508  -0.45085  -0.44561  -0.43139
 Alpha  occ. eigenvalues --   -0.37522  -0.36528
 Alpha virt. eigenvalues --    0.04745   0.11069   0.16204   0.20917   0.23190
 Alpha virt. eigenvalues --    0.25046   0.25833   0.27389   0.27738   0.28623
 Alpha virt. eigenvalues --    0.29159   0.30870   0.31960   0.32043   0.32489

 Mulliken charges:
               1
     1  C   -0.170218
     2  C   -0.218429
     3  C   -0.170666
     4  C    0.157726
     5  C   -0.171096
     6  C   -0.218672
     7  H    0.226648
     8  H    0.224318
     9  H    0.276082
    10  H    0.276859
    11  H    0.224875
    12  N    0.489542
    13  O   -0.460605
    14  O   -0.457512
    15  C   -0.297535
    16  C   -0.298115
    17  C   -0.474921
    18  H    0.148717
    19  H    0.147272
    20  H    0.151592
    21  H    0.144301
    22  H    0.154057
    23  H    0.156329
    24  H    0.156073
    25  C   -0.306671
    26  C   -0.295930
    27  C   -0.483147
    28  H    0.145072
    29  H    0.161155
    30  H    0.145605
    31  H    0.154935
    32  H    0.178695
    33  H    0.146836
    34  H    0.156826
 Sum of Mulliken charges =  -0.00000

 Dipole moment (field-independent basis, Debye):
    X=             -3.3763    Y=              3.9786    Z=              0.3282  Tot=              5.2284
 Quadrupole moment (field-independent basis, Debye-Ang):
   XX=            -82.0117   YY=           -102.1646   ZZ=            -91.4707
   XY=             -5.0604   XZ=              1.4501   YZ=              1.8504

 Normal termination of Gaussian 16 at Thu May  6 12:28:19 2021.
