 Gaussian 16, Revision A.03,
 Gaussian 16:  EM64L-G16RevA.03 25-Dec-2016

 -------------
 #p 6-31g* mp2
 -------------

 ------------------------------------------------------
 Input file generated by CHIRIPA (05-May-2021 14:55:19)
 ------------------------------------------------------
 Symbolic Z-matrix:
 Charge =  0 Multiplicity = 1

                         Standard orientation:
 ---------------------------------------------------------------------
 Center     Atomic      Atomic             Coordinates (Angstroms)
 Number     Number       Type             X           Y           Z
 ---------------------------------------------------------------------
      1          6           0       -5.617202    0.828734   -1.071920
      2          6           0       -5.135369   -0.467718   -1.280655
      3          6           0       -4.006937   -0.924993   -0.593568
      4          6           0       -3.382107   -0.055290    0.298897
      5          6           0       -3.838071    1.241888    0.528496
      6          6           0       -4.968160    1.677902   -0.169601
      7          1           0       -6.494439    1.175699   -1.609942
      8          1           0       -5.637405   -1.129380   -1.980803
      9          1           0       -3.612654   -1.923817   -0.736078
     10          1           0       -3.316345    1.878412    1.232808
     11          1           0       -5.340129    2.685252   -0.005494
     12          7           0       -2.186610   -0.528133    1.032114
     13          8           0       -1.654093    0.257540    1.812998
     14          8           0       -1.804733   -1.675467    0.812040
     15          6           0        5.322224   -0.213696   -0.246369
     16          6           0        6.251546    0.993679   -0.117567
     17          6           0        7.730590    0.608023   -0.156202
     18          1           0        5.538897   -0.923238    0.563908
     19          1           0        5.541106   -0.737358   -1.187253
     20          1           0        6.030035    1.515702    0.822135
     21          1           0        6.032505    1.700518   -0.928132
     22          1           0        7.973510    0.106756   -1.098711
     23          1           0        7.971026   -0.079110    0.661503
     24          1           0        8.377040    1.486200   -0.062560
     25          6           0        3.840373    0.155738   -0.209451
     26          6           0        2.911052   -1.051638   -0.338252
     27          6           0        1.432007   -0.665981   -0.299618
     28          1           0        3.621492    0.679400    0.731434
     29          1           0        3.623700    0.865280   -1.019727
     30          1           0        3.130092   -1.758477    0.472312
     31          1           0        3.132563   -1.573661   -1.277955
     32          1           0        1.191572    0.021152   -1.117322
     33          1           0        1.189087   -0.164715    0.642890
     34          1           0        0.785559   -1.544158   -0.393260
 ---------------------------------------------------------------------

 SCF Done:  E(RHF) =  -669.536188715     A.U. after   15 cycles
 E2 =    -0.2091512556D+01 EUMP2 =    -0.67162770127105D+03

 The electronic state is 1-A.
 Alpha  occ. eigenvalues --  -20.60907 -20.60901 -15.85922 -11.31258 -11.27821
 Alpha  occ. eigenvalues --  -11.27817 -11.27562 -11.26832 -11.26822 -11.21031
 Alpha  occ. eigenvalues --  -11.20675 -11.20600 -11.20501 -11.20440 -11.19453
 Alpha  occ. eigenvalues --   -1.59948  -1.39509  -1.19425  -1.08827  -1.07603
 Alpha  occ. eigenvalues --   -1.04824  -1.02622  -0.95672  -0.95045  -0.86224
 Alpha  occ. eigenvalues --   -0.86064  -0.82506  -0.78724  -0.77556  -0.77394
 Alpha  occ. eigenvalues --   -0.72153  -0.71251  -0.70536  -0.65082  -0.64829
 Alpha  occ. eigenvalues --   -0.64242  -0.62172  -0.60024  -0.58468  -0.56649
 Alpha  occ. eigenvalues --   -0.55332  -0.54342  -0.53157  -0.52917  -0.51720
 Alpha  occ. eigenvalues --   -0.51482  -0.49150  -0.48905  -0.48737  -0.47028
 Alpha  occ. eigenvalues --   -0.45768  -0.44984  -0.44890  -0.44795  -0.42816
 Alpha  occ. eigenvalues --   -0.37401  -0.36425
 Alpha virt. eigenvalues --    0.04940   0.11231   0.16414   0.21358   0.23644
 Alpha virt. eigenvalues --    0.25322   0.27275   0.27442   0.28196   0.28275
 Alpha virt. eigenvalues --    0.29078   0.30916   0.32294   0.32398   0.32530

 Mulliken charges:
               1
     1  C   -0.170632
     2  C   -0.218588
     3  C   -0.170677
     4  C    0.159451
     5  C   -0.170688
     6  C   -0.218595
     7  H    0.225841
     8  H    0.223672
     9  H    0.275587
    10  H    0.275775
    11  H    0.223689
    12  N    0.489730
    13  O   -0.459956
    14  O   -0.458865
    15  C   -0.297542
    16  C   -0.298990
    17  C   -0.475231
    18  H    0.149450
    19  H    0.147445
    20  H    0.151844
    21  H    0.150281
    22  H    0.154062
    23  H    0.154939
    24  H    0.158383
    25  C   -0.297582
    26  C   -0.299766
    27  C   -0.484898
    28  H    0.150870
    29  H    0.146111
    30  H    0.152583
    31  H    0.145968
    32  H    0.142075
    33  H    0.170183
    34  H    0.174069
 Sum of Mulliken charges =  -0.00000

 Dipole moment (field-independent basis, Debye):
    X=             -4.5286    Y=              1.6151    Z=             -2.4523  Tot=              5.3973
 Quadrupole moment (field-independent basis, Debye-Ang):
   XX=            -69.1968   YY=            -91.1572   ZZ=            -94.9618
   XY=             -5.1506   XZ=              8.2398   YZ=              2.8757

 Normal termination of Gaussian 16 at Thu May  6 20:37:07 2021.
