 Gaussian 16, Revision A.03,
 Gaussian 16:  EM64L-G16RevA.03 25-Dec-2016

 -------------
 #p 6-31g* mp2
 -------------

 ------------------------------------------------------
 Input file generated by CHIRIPA (05-May-2021 14:51:14)
 ------------------------------------------------------
 Symbolic Z-matrix:
 Charge =  0 Multiplicity = 1

                         Standard orientation:
 ---------------------------------------------------------------------
 Center     Atomic      Atomic             Coordinates (Angstroms)
 Number     Number       Type             X           Y           Z
 ---------------------------------------------------------------------
      1          6           0        3.744389    0.300724    0.096892
      2          6           0        3.660478   -1.187758   -0.242762
      3          6           0        4.976165   -1.925940    0.005932
      4          1           0        4.543600    0.761881   -0.499381
      5          1           0        4.035677    0.413435    1.150383
      6          1           0        3.368088   -1.297635   -1.294927
      7          1           0        2.861247   -1.645386    0.354249
      8          1           0        5.269940   -1.845975    1.057551
      9          1           0        5.779661   -1.496249   -0.600995
     10          1           0        4.893731   -2.988426   -0.243441
     11          6           0        2.436854    1.052291   -0.146475
     12          6           0        2.520766    2.540773    0.193180
     13          6           0        1.205079    3.278955   -0.055515
     14          1           0        2.145567    0.939580   -1.199965
     15          1           0        1.637644    0.591134    0.449799
     16          1           0        3.319997    2.998401   -0.403831
     17          1           0        2.813156    2.650650    1.245345
     18          1           0        0.401582    2.849264    0.551413
     19          1           0        0.911303    3.198991   -1.107134
     20          1           0        1.287512    4.341441    0.193859
     21          6           0       -2.495295   -0.948622    0.418455
     22          6           0       -1.383820   -1.506234   -0.471306
     23          6           0       -0.199712   -2.046890    0.330800
     24          1           0       -2.083977   -0.150170    1.051099
     25          1           0       -2.842176   -1.738882    1.098572
     26          1           0       -1.040092   -0.715551   -1.150486
     27          1           0       -1.797874   -2.303322   -1.102041
     28          1           0       -0.521915   -2.853788    0.996909
     29          1           0        0.240172   -1.256995    0.948189
     30          1           0        0.583157   -2.440531   -0.324962
     31          6           0       -3.685948   -0.404393   -0.368873
     32          6           0       -4.797424    0.153219    0.520889
     33          6           0       -5.981531    0.693875   -0.281217
     34          1           0       -3.339067    0.385867   -1.048990
     35          1           0       -4.097265   -1.202844   -1.001516
     36          1           0       -4.383369    0.950307    1.151624
     37          1           0       -5.141151   -0.637465    1.200069
     38          1           0       -6.421415   -0.096020   -0.898606
     39          1           0       -5.659327    1.500773   -0.947327
     40          1           0       -6.764399    1.087516    0.374545
 ---------------------------------------------------------------------

 SCF Done:  E(RHF) =  -470.732387408     A.U. after   11 cycles
 E2 =    -0.1583879164D+01 EUMP2 =    -0.47231626657213D+03

 The electronic state is 1-A.
 Alpha  occ. eigenvalues --  -11.21616 -11.21593 -11.21579 -11.21501 -11.21398
 Alpha  occ. eigenvalues --  -11.21382 -11.21338 -11.21323 -11.21118 -11.21061
 Alpha  occ. eigenvalues --  -11.21023 -11.21022  -1.08446  -1.08391  -1.03533
 Alpha  occ. eigenvalues --   -1.03501  -0.95994  -0.95953  -0.87013  -0.86974
 Alpha  occ. eigenvalues --   -0.79659  -0.79525  -0.78276  -0.78182  -0.65168
 Alpha  occ. eigenvalues --   -0.64954  -0.60928  -0.60920  -0.59461  -0.59225
 Alpha  occ. eigenvalues --   -0.57647  -0.57521  -0.55397  -0.55151  -0.52776
 Alpha  occ. eigenvalues --   -0.52603  -0.52446  -0.52322  -0.50004  -0.49868
 Alpha  occ. eigenvalues --   -0.48009  -0.47791  -0.46717  -0.46612  -0.45880
 Alpha  occ. eigenvalues --   -0.45758  -0.45695  -0.45383  -0.43788  -0.43696
 Alpha virt. eigenvalues --    0.20995   0.23178   0.24067   0.24159   0.25733
 Alpha virt. eigenvalues --    0.26458   0.27050   0.27776   0.27915   0.29743
 Alpha virt. eigenvalues --    0.30135   0.31241   0.31745   0.31851   0.32343

 Mulliken charges:
               1
     1  C   -0.297867
     2  C   -0.305743
     3  C   -0.475356
     4  H    0.149344
     5  H    0.149028
     6  H    0.150605
     7  H    0.160869
     8  H    0.154942
     9  H    0.154728
    10  H    0.159887
    11  C   -0.303995
    12  C   -0.299209
    13  C   -0.475580
    14  H    0.149161
    15  H    0.155590
    16  H    0.152112
    17  H    0.151826
    18  H    0.154101
    19  H    0.155042
    20  H    0.160541
    21  C   -0.298304
    22  C   -0.300619
    23  C   -0.480670
    24  H    0.148799
    25  H    0.149450
    26  H    0.153324
    27  H    0.151801
    28  H    0.154444
    29  H    0.156919
    30  H    0.164615
    31  C   -0.298370
    32  C   -0.299616
    33  C   -0.475719
    34  H    0.149913
    35  H    0.149603
    36  H    0.151921
    37  H    0.151819
    38  H    0.155121
    39  H    0.155325
    40  H    0.160217
 Sum of Mulliken charges =  -0.00000

 Dipole moment (field-independent basis, Debye):
    X=             -0.0083    Y=             -0.0162    Z=             -0.0027  Tot=              0.0184
 Quadrupole moment (field-independent basis, Debye-Ang):
   XX=            -86.3431   YY=            -84.5444   ZZ=            -84.0831
   XY=              1.4462   XZ=             -0.7568   YZ=              0.0562

 Normal termination of Gaussian 16 at Thu May  6 02:25:28 2021.
