 Gaussian 16, Revision A.03,
 Gaussian 16:  EM64L-G16RevA.03 25-Dec-2016

 -------------
 #p 6-31g* mp2
 -------------

 ------------------------------------------------------
 Input file generated by CHIRIPA (05-May-2021 14:51:13)
 ------------------------------------------------------
 Symbolic Z-matrix:
 Charge =  0 Multiplicity = 1

                         Standard orientation:
 ---------------------------------------------------------------------
 Center     Atomic      Atomic             Coordinates (Angstroms)
 Number     Number       Type             X           Y           Z
 ---------------------------------------------------------------------
      1          6           0       -2.858235   -0.645439   -0.337589
      2          6           0       -2.558877   -1.811399    0.605230
      3          6           0       -1.971443   -3.022393   -0.120174
      4          1           0       -3.555942   -0.981978   -1.116621
      5          1           0       -1.932750   -0.352291   -0.852307
      6          1           0       -3.484369   -2.101357    1.119044
      7          1           0       -1.861950   -1.471993    1.382220
      8          1           0       -1.034083   -2.755382   -0.618836
      9          1           0       -2.665720   -3.388321   -0.883507
     10          1           0       -1.765048   -3.844155    0.572623
     11          6           0       -3.445969    0.572590    0.372835
     12          6           0       -3.745328    1.738550   -0.569983
     13          6           0       -4.332761    2.949543    0.155421
     14          1           0       -4.371454    0.279442    0.887554
     15          1           0       -2.748262    0.909129    1.151868
     16          1           0       -4.442254    1.399144   -1.346973
     17          1           0       -2.819836    2.028507   -1.083798
     18          1           0       -3.638485    3.315472    0.918753
     19          1           0       -5.270121    2.682533    0.654082
     20          1           0       -4.539157    3.771305   -0.537377
     21          6           0        3.697863    0.552777    0.120061
     22          6           0        3.251863    1.991408   -0.143396
     23          6           0        4.354610    3.012857    0.136580
     24          1           0        4.026286    0.462901    1.164573
     25          1           0        4.574163    0.327907   -0.503579
     26          1           0        2.375821    2.213049    0.479536
     27          1           0        2.924283    2.077824   -1.187350
     28          1           0        5.227889    2.819799   -0.494858
     29          1           0        4.676312    2.955793    1.181498
     30          1           0        4.014271    4.034645   -0.058295
     31          6           0        2.606341   -0.479928   -0.155308
     32          6           0        3.052342   -1.918559    0.108149
     33          6           0        1.949594   -2.940007   -0.171827
     34          1           0        1.730041   -0.255058    0.468332
     35          1           0        2.277918   -0.390052   -1.199820
     36          1           0        3.379922   -2.004975    1.152103
     37          1           0        3.928383   -2.140199   -0.514782
     38          1           0        1.627892   -2.882943   -1.216744
     39          1           0        1.076315   -2.746949    0.459611
     40          1           0        2.289934   -3.961796    0.023048
 ---------------------------------------------------------------------

 SCF Done:  E(RHF) =  -470.732767905     A.U. after   11 cycles
 E2 =    -0.1582947822D+01 EUMP2 =    -0.47231571572731D+03

 The electronic state is 1-A.
 Alpha  occ. eigenvalues --  -11.21645 -11.21626 -11.21583 -11.21564 -11.21458
 Alpha  occ. eigenvalues --  -11.21397 -11.21377 -11.21316 -11.21104 -11.21059
 Alpha  occ. eigenvalues --  -11.21057 -11.20912  -1.08476  -1.08397  -1.03579
 Alpha  occ. eigenvalues --   -1.03477  -0.96055  -0.95899  -0.87099  -0.86889
 Alpha  occ. eigenvalues --   -0.79688  -0.79500  -0.78298  -0.78204  -0.65125
 Alpha  occ. eigenvalues --   -0.65015  -0.61048  -0.60835  -0.59383  -0.59301
 Alpha  occ. eigenvalues --   -0.57690  -0.57513  -0.55426  -0.55126  -0.52733
 Alpha  occ. eigenvalues --   -0.52643  -0.52522  -0.52236  -0.50049  -0.49768
 Alpha  occ. eigenvalues --   -0.48043  -0.47748  -0.46679  -0.46539  -0.45878
 Alpha  occ. eigenvalues --   -0.45768  -0.45717  -0.45589  -0.43826  -0.43740
 Alpha virt. eigenvalues --    0.21207   0.23208   0.23603   0.25014   0.26295
 Alpha virt. eigenvalues --    0.26352   0.27096   0.27535   0.28099   0.29142
 Alpha virt. eigenvalues --    0.30537   0.31325   0.31800   0.31879   0.32126

 Mulliken charges:
               1
     1  C   -0.298578
     2  C   -0.300365
     3  C   -0.481339
     4  H    0.149643
     5  H    0.150190
     6  H    0.151860
     7  H    0.150569
     8  H    0.163307
     9  H    0.154365
    10  H    0.159410
    11  C   -0.298105
    12  C   -0.299710
    13  C   -0.475660
    14  H    0.149456
    15  H    0.149184
    16  H    0.151903
    17  H    0.152124
    18  H    0.155051
    19  H    0.155133
    20  H    0.160207
    21  C   -0.298195
    22  C   -0.299662
    23  C   -0.475739
    24  H    0.149822
    25  H    0.149826
    26  H    0.151613
    27  H    0.151935
    28  H    0.155324
    29  H    0.155270
    30  H    0.160365
    31  C   -0.298589
    32  C   -0.299796
    33  C   -0.479990
    34  H    0.148724
    35  H    0.149384
    36  H    0.151954
    37  H    0.151959
    38  H    0.154918
    39  H    0.161617
    40  H    0.160615
 Sum of Mulliken charges =  -0.00000

 Dipole moment (field-independent basis, Debye):
    X=              0.0395    Y=             -0.0152    Z=             -0.0121  Tot=              0.0440
 Quadrupole moment (field-independent basis, Debye-Ang):
   XX=            -84.5283   YY=            -86.2691   ZZ=            -83.9949
   XY=              0.0789   XZ=             -0.0768   YZ=             -0.3555

 Normal termination of Gaussian 16 at Wed May  5 18:22:24 2021.
