 Gaussian 16, Revision A.03,
 Gaussian 16:  EM64L-G16RevA.03 25-Dec-2016

 -------------
 #p 6-31g* mp2
 -------------

 ------------------------------------------------------
 Input file generated by CHIRIPA (05-May-2021 14:53:12)
 ------------------------------------------------------
 Symbolic Z-matrix:
 Charge =  0 Multiplicity = 1

                         Standard orientation:
 ---------------------------------------------------------------------
 Center     Atomic      Atomic             Coordinates (Angstroms)
 Number     Number       Type             X           Y           Z
 ---------------------------------------------------------------------
      1          6           0       -3.144316   -0.005901    0.417555
      2          6           0       -4.231686   -0.958818   -0.080000
      3          6           0       -4.253103   -2.282430    0.685105
      4          1           0       -2.166031   -0.497951    0.329294
      5          1           0       -3.300064    0.190417    1.487414
      6          1           0       -4.074744   -1.152187   -1.148921
      7          1           0       -5.207477   -0.464371    0.009278
      8          1           0       -4.432693   -2.108419    1.750970
      9          1           0       -3.293524   -2.800143    0.586190
     10          1           0       -5.037872   -2.948497    0.313146
     11          6           0       -3.110299    1.321642   -0.337560
     12          6           0       -2.022929    2.274559    0.159995
     13          6           0       -2.001513    3.598172   -0.605110
     14          1           0       -2.954552    1.125325   -1.407418
     15          1           0       -4.088584    1.813693   -0.249298
     16          1           0       -1.047139    1.780112    0.070717
     17          1           0       -2.179871    2.467928    1.228917
     18          1           0       -2.961091    4.115885   -0.506195
     19          1           0       -1.821923    3.424160   -1.670975
     20          1           0       -1.216744    4.264239   -0.233151
     21          6           0        4.352836    0.971610    0.684520
     22          6           0        4.235461    0.577822   -0.652519
     23          6           0        3.181452   -0.245130   -1.060397
     24          6           0        2.258594   -0.657581   -0.100446
     25          6           0        2.348419   -0.282227    1.239080
     26          6           0        3.410602    0.541088    1.624396
     27          1           0        5.174791    1.611040    0.992606
     28          1           0        4.965741    0.910646   -1.384615
     29          1           0        3.066656   -0.564977   -2.088958
     30          1           0        1.604932   -0.630072    1.945939
     31          1           0        3.499248    0.845339    2.663443
     32          7           0        1.138435   -1.528995   -0.520305
     33          8           0        0.338489   -1.878800    0.344773
     34          8           0        1.081611   -1.845706   -1.706519
 ---------------------------------------------------------------------

 SCF Done:  E(RHF) =  -669.536648758     A.U. after   15 cycles
 E2 =    -0.2091567700D+01 EUMP2 =    -0.67162821645776D+03

 The electronic state is 1-A.
 Alpha  occ. eigenvalues --  -20.61058 -20.61047 -15.86069 -11.31347 -11.27899
 Alpha  occ. eigenvalues --  -11.27895 -11.27627 -11.26894 -11.26883 -11.21157
 Alpha  occ. eigenvalues --  -11.20761 -11.20639 -11.20552 -11.20218 -11.19924
 Alpha  occ. eigenvalues --   -1.60107  -1.39663  -1.19505  -1.08920  -1.07596
 Alpha  occ. eigenvalues --   -1.04892  -1.02750  -0.95768  -0.95189  -0.86296
 Alpha  occ. eigenvalues --   -0.86211  -0.82603  -0.78861  -0.77670  -0.77342
 Alpha  occ. eigenvalues --   -0.72290  -0.71415  -0.70612  -0.65162  -0.64894
 Alpha  occ. eigenvalues --   -0.64216  -0.62238  -0.60142  -0.58607  -0.56796
 Alpha  occ. eigenvalues --   -0.55399  -0.54461  -0.53226  -0.52983  -0.51944
 Alpha  occ. eigenvalues --   -0.51609  -0.49145  -0.49061  -0.49033  -0.47167
 Alpha  occ. eigenvalues --   -0.45900  -0.45376  -0.44895  -0.44426  -0.42976
 Alpha  occ. eigenvalues --   -0.37479  -0.36488
 Alpha virt. eigenvalues --    0.04822   0.11150   0.16297   0.21288   0.23593
 Alpha virt. eigenvalues --    0.25132   0.27145   0.27362   0.27918   0.28518
 Alpha virt. eigenvalues --    0.28769   0.30969   0.32129   0.32328   0.32493

 Mulliken charges:
               1
     1  C   -0.309922
     2  C   -0.297644
     3  C   -0.478735
     4  H    0.173418
     5  H    0.142842
     6  H    0.153487
     7  H    0.145854
     8  H    0.149919
     9  H    0.169487
    10  H    0.155642
    11  C   -0.297891
    12  C   -0.297651
    13  C   -0.475000
    14  H    0.150686
    15  H    0.146246
    16  H    0.148166
    17  H    0.149042
    18  H    0.154794
    19  H    0.155307
    20  H    0.155865
    21  C   -0.170345
    22  C   -0.218523
    23  C   -0.170695
    24  C    0.157831
    25  C   -0.170567
    26  C   -0.218457
    27  H    0.226269
    28  H    0.224034
    29  H    0.275871
    30  H    0.276571
    31  H    0.224222
    32  N    0.488003
    33  O   -0.459713
    34  O   -0.458413
 Sum of Mulliken charges =  -0.00000

 Dipole moment (field-independent basis, Debye):
    X=              4.2279    Y=              2.8910    Z=              1.4346  Tot=              5.3190
 Quadrupole moment (field-independent basis, Debye-Ang):
   XX=            -77.3390   YY=           -100.7794   ZZ=            -90.4790
   XY=              4.4163   XZ=              1.0099   YZ=             -0.5478

 Normal termination of Gaussian 16 at Thu May  6 02:33:21 2021.
