 Gaussian 16, Revision A.03,
 Gaussian 16:  EM64L-G16RevA.03 25-Dec-2016

 -------------
 #p 6-31g* mp2
 -------------

 ------------------------------------------------------
 Input file generated by CHIRIPA (05-May-2021 14:57:25)
 ------------------------------------------------------
 Symbolic Z-matrix:
 Charge =  0 Multiplicity = 1

                         Standard orientation:
 ---------------------------------------------------------------------
 Center     Atomic      Atomic             Coordinates (Angstroms)
 Number     Number       Type             X           Y           Z
 ---------------------------------------------------------------------
      1          6           0       -5.612103    0.345310    0.013289
      2          6           0       -4.772744    1.397037   -0.368639
      3          6           0       -3.389638    1.208941   -0.447277
      4          6           0       -2.877475   -0.049567   -0.135605
      5          6           0       -3.687659   -1.117129    0.248065
      6          6           0       -5.067841   -0.906210    0.319881
      7          1           0       -6.685398    0.500292    0.071727
      8          1           0       -5.192641    2.370055   -0.607316
      9          1           0       -2.716812    2.005768   -0.740176
     10          1           0       -3.239751   -2.075789    0.479942
     11          1           0       -5.717286   -1.724816    0.616782
     12          7           0       -1.414790   -0.260776   -0.215245
     13          8           0       -0.988339   -1.379056    0.064445
     14          8           0       -0.722484    0.695957   -0.555849
     15          6           0        3.292687    2.521530    0.349822
     16          6           0        4.091481    1.845670   -0.578437
     17          6           0        4.003384    0.456899   -0.712976
     18          6           0        3.101707   -0.227589    0.100501
     19          6           0        2.292380    0.417277    1.034539
     20          6           0        2.397265    1.806437    1.151933
     21          1           0        3.367644    3.600512    0.447676
     22          1           0        4.787761    2.398432   -1.202690
     23          1           0        4.609899   -0.091486   -1.423493
     24          1           0        1.607597   -0.161010    1.642876
     25          1           0        1.775666    2.328681    1.873680
     26          7           0        2.999557   -1.698025   -0.032854
     27          8           0        2.197325   -2.278039    0.695598
     28          8           0        3.723658   -2.242695   -0.863306
 ---------------------------------------------------------------------

 SCF Done:  E(RHF) =  -868.337091998     A.U. after   16 cycles
 E2 =    -0.2601470345D+01 EUMP2 =    -0.87093856234303D+03

 The electronic state is 1-A.
 Alpha  occ. eigenvalues --  -20.60929 -20.60846 -20.59184 -20.59065 -15.85895
 Alpha  occ. eigenvalues --  -15.84173 -11.31286 -11.29552 -11.27887 -11.27818
 Alpha  occ. eigenvalues --  -11.27602 -11.26890 -11.26845 -11.26269 -11.26146
 Alpha  occ. eigenvalues --  -11.26073 -11.25316 -11.25226  -1.59968  -1.58190
 Alpha  occ. eigenvalues --   -1.39509  -1.37741  -1.19463  -1.17780  -1.08857
 Alpha  occ. eigenvalues --   -1.07199  -1.04863  -1.03220  -0.95684  -0.94023
 Alpha  occ. eigenvalues --   -0.86260  -0.84638  -0.82505  -0.80875  -0.77562
 Alpha  occ. eigenvalues --   -0.75884  -0.72090  -0.71306  -0.70566  -0.70419
 Alpha  occ. eigenvalues --   -0.69486  -0.68983  -0.65108  -0.64863  -0.63477
 Alpha  occ. eigenvalues --   -0.63298  -0.62206  -0.60602  -0.55367  -0.53819
 Alpha  occ. eigenvalues --   -0.53199  -0.52952  -0.51550  -0.51378  -0.48884
 Alpha  occ. eigenvalues --   -0.48855  -0.47195  -0.47137  -0.44903  -0.43107
 Alpha  occ. eigenvalues --   -0.37450  -0.36469  -0.35794  -0.34721
 Alpha virt. eigenvalues --    0.04925   0.06728   0.11185   0.12875   0.16440
 Alpha virt. eigenvalues --    0.18138   0.21337   0.22694   0.27246   0.28222
 Alpha virt. eigenvalues --    0.28573   0.29604   0.30899   0.32135   0.32494

 Mulliken charges:
               1
     1  C   -0.170766
     2  C   -0.218598
     3  C   -0.171969
     4  C    0.157836
     5  C   -0.171005
     6  C   -0.218638
     7  H    0.225888
     8  H    0.222793
     9  H    0.273458
    10  H    0.279477
    11  H    0.224729
    12  N    0.484581
    13  O   -0.448319
    14  O   -0.466452
    15  C   -0.171214
    16  C   -0.219823
    17  C   -0.171597
    18  C    0.158776
    19  C   -0.147410
    20  C   -0.214537
    21  H    0.218096
    22  H    0.216487
    23  H    0.270762
    24  H    0.275701
    25  H    0.215479
    26  N    0.488472
    27  O   -0.451766
    28  O   -0.470440
 Sum of Mulliken charges =  -0.00000

 Dipole moment (field-independent basis, Debye):
    X=             -5.2356    Y=              5.6147    Z=              0.8297  Tot=              7.7218
 Quadrupole moment (field-independent basis, Debye-Ang):
   XX=            -73.0996   YY=           -103.9190   ZZ=           -103.2894
   XY=             14.7819   XZ=             -1.5517   YZ=             -1.5409

 Normal termination of Gaussian 16 at Thu May  6 19:42:23 2021.
