 Gaussian 16, Revision A.03,
 Gaussian 16:  EM64L-G16RevA.03 25-Dec-2016

 -------------
 #p 6-31g* mp2
 -------------

 ------------------------------------------------------
 Input file generated by CHIRIPA (05-May-2021 14:55:25)
 ------------------------------------------------------
 Symbolic Z-matrix:
 Charge =  0 Multiplicity = 1

                         Standard orientation:
 ---------------------------------------------------------------------
 Center     Atomic      Atomic             Coordinates (Angstroms)
 Number     Number       Type             X           Y           Z
 ---------------------------------------------------------------------
      1          6           0        1.357100   -0.374332   -0.255505
      2          6           0        2.112251   -1.449607    0.224132
      3          6           0        3.504030   -1.354686    0.316274
      4          6           0        4.110638   -0.164328   -0.081677
      5          6           0        3.385755    0.924481   -0.563683
      6          6           0        1.995137    0.807197   -0.647191
      7          1           0        0.276383   -0.456755   -0.323730
      8          1           0        1.619433   -2.368416    0.529033
      9          1           0        4.112902   -2.171698    0.683947
     10          1           0        3.905366    1.827560   -0.860116
     11          1           0        1.411220    1.643887   -1.020066
     12          7           0        5.583437   -0.052001    0.011300
     13          8           0        6.093929    1.007542   -0.345634
     14          8           0        6.199438   -1.025631    0.439348
     15          6           0       -4.190806    0.185493    0.181689
     16          6           0       -3.525784    1.508682    0.562353
     17          6           0       -2.005056    1.395506    0.673565
     18          1           0       -3.932124   -0.576171    0.929952
     19          1           0       -3.777196   -0.162889   -0.774841
     20          1           0       -3.941525    1.855163    1.517197
     21          1           0       -3.786236    2.267334   -0.186799
     22          1           0       -1.572041    1.073383   -0.278977
     23          1           0       -1.728212    0.658871    1.434700
     24          1           0       -1.550135    2.352781    0.946573
     25          6           0       -5.711024    0.282578    0.066631
     26          6           0       -6.376046   -1.040611   -0.314032
     27          6           0       -7.896775   -0.927436   -0.425244
     28          1           0       -6.124635    0.630960    1.023162
     29          1           0       -5.969707    1.044242   -0.681630
     30          1           0       -6.115594   -1.799262    0.435120
     31          1           0       -5.960305   -1.387092   -1.268876
     32          1           0       -8.173618   -0.190800   -1.186380
     33          1           0       -8.329789   -0.605312    0.527298
     34          1           0       -8.351696   -1.884709   -0.698252
 ---------------------------------------------------------------------

 SCF Done:  E(RHF) =  -669.535417253     A.U. after   15 cycles
 E2 =    -0.2091083566D+01 EUMP2 =    -0.67162650081852D+03

 The electronic state is 1-A.
 Alpha  occ. eigenvalues --  -20.60688 -20.60683 -15.85742 -11.31082 -11.27657
 Alpha  occ. eigenvalues --  -11.27653 -11.27323 -11.26651 -11.26638 -11.22574
 Alpha  occ. eigenvalues --  -11.22382 -11.22271 -11.22202 -11.22062 -11.21563
 Alpha  occ. eigenvalues --   -1.59765  -1.39319  -1.19252  -1.09240  -1.08643
 Alpha  occ. eigenvalues --   -1.04656  -1.04362  -0.96841  -0.95483  -0.87863
 Alpha  occ. eigenvalues --   -0.86048  -0.82325  -0.80442  -0.79024  -0.77377
 Alpha  occ. eigenvalues --   -0.71960  -0.71088  -0.70362  -0.65866  -0.64901
 Alpha  occ. eigenvalues --   -0.64663  -0.62014  -0.61748  -0.60212  -0.58448
 Alpha  occ. eigenvalues --   -0.56155  -0.55183  -0.53519  -0.53211  -0.52958
 Alpha  occ. eigenvalues --   -0.52743  -0.50781  -0.48763  -0.48717  -0.48686
 Alpha  occ. eigenvalues --   -0.47456  -0.46570  -0.46469  -0.44730  -0.44595
 Alpha  occ. eigenvalues --   -0.37212  -0.36266
 Alpha virt. eigenvalues --    0.05154   0.11378   0.16633   0.20117   0.22296
 Alpha virt. eigenvalues --    0.23771   0.25507   0.26123   0.26789   0.27522
 Alpha virt. eigenvalues --    0.29254   0.30646   0.30735   0.31140   0.32053

 Mulliken charges:
               1
     1  C   -0.172862
     2  C   -0.219874
     3  C   -0.170873
     4  C    0.158087
     5  C   -0.171112
     6  C   -0.220451
     7  H    0.231939
     8  H    0.223047
     9  H    0.275091
    10  H    0.275124
    11  H    0.223343
    12  N    0.488094
    13  O   -0.460797
    14  O   -0.460781
    15  C   -0.299172
    16  C   -0.299713
    17  C   -0.480462
    18  H    0.149357
    19  H    0.147167
    20  H    0.156482
    21  H    0.154626
    22  H    0.145437
    23  H    0.157256
    24  H    0.165465
    25  C   -0.298764
    26  C   -0.300174
    27  C   -0.476138
    28  H    0.151468
    29  H    0.151131
    30  H    0.152163
    31  H    0.151878
    32  H    0.156059
    33  H    0.156212
    34  H    0.161748
 Sum of Mulliken charges =  -0.00000

 Dipole moment (field-independent basis, Debye):
    X=             -5.4758    Y=             -0.3405    Z=             -0.2689  Tot=              5.4929
 Quadrupole moment (field-independent basis, Debye-Ang):
   XX=           -138.5001   YY=            -90.2033   ZZ=            -93.8252
   XY=             -1.2317   XZ=             -1.1769   YZ=             -2.0498

 Normal termination of Gaussian 16 at Wed May  5 17:39:29 2021.
