 Gaussian 16, Revision A.03,
 Gaussian 16:  EM64L-G16RevA.03 25-Dec-2016

 -------------
 #p 6-31g* mp2
 -------------

 ------------------------------------------------------
 Input file generated by CHIRIPA (05-May-2021 14:55:21)
 ------------------------------------------------------
 Symbolic Z-matrix:
 Charge =  0 Multiplicity = 1

                         Standard orientation:
 ---------------------------------------------------------------------
 Center     Atomic      Atomic             Coordinates (Angstroms)
 Number     Number       Type             X           Y           Z
 ---------------------------------------------------------------------
      1          6           0        4.358422   -2.065411   -0.169067
      2          6           0        3.061280   -1.839422   -0.641160
      3          6           0        2.505911   -0.556923   -0.604954
      4          6           0        3.279290    0.481185   -0.087745
      5          6           0        4.574491    0.287870    0.390141
      6          6           0        5.109564   -1.002917    0.344172
      7          1           0        4.781963   -3.064906   -0.200984
      8          1           0        2.475622   -2.662674   -1.040289
      9          1           0        1.504200   -0.353871   -0.963790
     10          1           0        5.133941    1.128490    0.782305
     11          1           0        6.117203   -1.175478    0.711502
     12          7           0        2.702089    1.843296   -0.044248
     13          8           0        3.404007    2.741018    0.416234
     14          8           0        1.558691    1.987404   -0.471460
     15          6           0       -3.782221   -0.704896    0.513152
     16          6           0       -2.403243   -0.653179   -0.145429
     17          6           0       -1.339499   -1.410570    0.649933
     18          1           0       -3.713353   -0.286821    1.526768
     19          1           0       -4.086912   -1.754363    0.627938
     20          1           0       -2.101847    0.395918   -0.260198
     21          1           0       -2.475441   -1.071249   -1.157665
     22          1           0       -1.613912   -2.465401    0.753038
     23          1           0       -1.238194   -0.989897    1.655604
     24          1           0       -0.361483   -1.360653    0.161205
     25          6           0       -4.856294    0.047764   -0.270173
     26          6           0       -6.235272   -0.003953    0.388408
     27          6           0       -7.299017    0.753438   -0.406955
     28          1           0       -4.551603    1.097231   -0.384959
     29          1           0       -4.925162   -0.370311   -1.283789
     30          1           0       -6.163073    0.414117    1.400643
     31          1           0       -6.536668   -1.053050    0.503176
     32          1           0       -7.400320    0.332765   -1.412625
     33          1           0       -7.024603    1.808269   -0.510059
     34          1           0       -8.277031    0.703521    0.081773
 ---------------------------------------------------------------------

 SCF Done:  E(RHF) =  -669.535389783     A.U. after   15 cycles
 E2 =    -0.2091294601D+01 EUMP2 =    -0.67162668438471D+03

 The electronic state is 1-A.
 Alpha  occ. eigenvalues --  -20.60782 -20.60777 -15.85835 -11.31196 -11.27770
 Alpha  occ. eigenvalues --  -11.27754 -11.27510 -11.26788 -11.26777 -11.21505
 Alpha  occ. eigenvalues --  -11.21451 -11.21282 -11.21237 -11.21195 -11.20912
 Alpha  occ. eigenvalues --   -1.59856  -1.39410  -1.19373  -1.08766  -1.08312
 Alpha  occ. eigenvalues --   -1.04780  -1.03454  -0.95930  -0.95600  -0.86949
 Alpha  occ. eigenvalues --   -0.86172  -0.82436  -0.79508  -0.78110  -0.77485
 Alpha  occ. eigenvalues --   -0.72055  -0.71178  -0.70493  -0.65028  -0.64932
 Alpha  occ. eigenvalues --   -0.64788  -0.62180  -0.60835  -0.59297  -0.57537
 Alpha  occ. eigenvalues --   -0.55279  -0.55197  -0.53154  -0.52944  -0.52543
 Alpha  occ. eigenvalues --   -0.52309  -0.49846  -0.48812  -0.48809  -0.47831
 Alpha  occ. eigenvalues --   -0.46515  -0.45663  -0.45561  -0.44816  -0.43714
 Alpha  occ. eigenvalues --   -0.37350  -0.36360
 Alpha virt. eigenvalues --    0.05015   0.11247   0.16491   0.20602   0.23027
 Alpha virt. eigenvalues --    0.24037   0.26430   0.26812   0.27612   0.27947
 Alpha virt. eigenvalues --    0.29078   0.30817   0.31500   0.31660   0.32151

 Mulliken charges:
               1
     1  C   -0.170736
     2  C   -0.218911
     3  C   -0.172050
     4  C    0.158269
     5  C   -0.171001
     6  C   -0.218389
     7  H    0.225745
     8  H    0.224085
     9  H    0.278593
    10  H    0.275628
    11  H    0.223537
    12  N    0.488034
    13  O   -0.460375
    14  O   -0.460716
    15  C   -0.298498
    16  C   -0.302679
    17  C   -0.475410
    18  H    0.151253
    19  H    0.147375
    20  H    0.164200
    21  H    0.148406
    22  H    0.152561
    23  H    0.160282
    24  H    0.149151
    25  C   -0.298861
    26  C   -0.299678
    27  C   -0.475787
    28  H    0.153157
    29  H    0.148683
    30  H    0.152515
    31  H    0.150665
    32  H    0.154636
    33  H    0.156542
    34  H    0.159774
 Sum of Mulliken charges =  -0.00000

 Dipole moment (field-independent basis, Debye):
    X=              2.0283    Y=             -4.7079    Z=             -0.1226  Tot=              5.1277
 Quadrupole moment (field-independent basis, Debye-Ang):
   XX=            -78.5573   YY=            -99.0308   ZZ=            -94.5987
   XY=            -12.9803   XZ=              1.0061   YZ=              1.8745

 Normal termination of Gaussian 16 at Thu May  6 15:49:06 2021.
