 Gaussian 16, Revision A.03,
 Gaussian 16:  EM64L-G16RevA.03 25-Dec-2016

 -------------
 #p 6-31g* mp2
 -------------

 ------------------------------------------------------
 Input file generated by CHIRIPA (05-May-2021 14:53:17)
 ------------------------------------------------------
 Symbolic Z-matrix:
 Charge =  0 Multiplicity = 1

                         Standard orientation:
 ---------------------------------------------------------------------
 Center     Atomic      Atomic             Coordinates (Angstroms)
 Number     Number       Type             X           Y           Z
 ---------------------------------------------------------------------
      1          6           0       -4.297399   -0.208916   -0.086920
      2          6           0       -5.071380    1.033899    0.353930
      3          6           0       -6.481136    0.707978    0.848052
      4          1           0       -4.857600   -0.718872   -0.882574
      5          1           0       -4.238353   -0.913171    0.754467
      6          1           0       -5.127754    1.736197   -0.487626
      7          1           0       -4.509178    1.541061    1.148494
      8          1           0       -6.441414    0.026183    1.703727
      9          1           0       -7.063504    0.222428    0.058312
     10          1           0       -7.016574    1.610751    1.158159
     11          6           0       -2.886274    0.100695   -0.583505
     12          6           0       -2.112292   -1.142120   -1.024356
     13          6           0       -0.702536   -0.816199   -1.518478
     14          1           0       -2.945320    0.804950   -1.424893
     15          1           0       -2.326073    0.610651    0.212148
     16          1           0       -2.674495   -1.649282   -1.818919
     17          1           0       -2.055919   -1.844418   -0.182800
     18          1           0       -0.120168   -0.330649   -0.728737
     19          1           0       -0.742259   -0.134404   -2.374152
     20          1           0       -0.167098   -1.718972   -1.828585
     21          6           0        2.157805   -2.307146    0.914446
     22          6           0        2.141909   -1.285648    1.869858
     23          6           0        2.499192    0.019793    1.519545
     24          6           0        2.868799    0.269407    0.198798
     25          6           0        2.894602   -0.726887   -0.775893
     26          6           0        2.533439   -2.025003   -0.403057
     27          1           0        1.878753   -3.318398    1.195326
     28          1           0        1.850618   -1.501853    2.893797
     29          1           0        2.495677    0.829528    2.239083
     30          1           0        3.189502   -0.480673   -1.788726
     31          1           0        2.546705   -2.816327   -1.147150
     32          7           0        3.249092    1.647541   -0.183985
     33          8           0        3.570894    1.841540   -1.354218
     34          8           0        3.218162    2.507629    0.693471
 ---------------------------------------------------------------------

 SCF Done:  E(RHF) =  -669.534326669     A.U. after   15 cycles
 E2 =    -0.2093146231D+01 EUMP2 =    -0.67162747289919D+03

 The electronic state is 1-A.
 Alpha  occ. eigenvalues --  -20.60778 -20.60773 -15.85832 -11.31209 -11.27798
 Alpha  occ. eigenvalues --  -11.27735 -11.27512 -11.26822 -11.26757 -11.21769
 Alpha  occ. eigenvalues --  -11.21672 -11.21516 -11.21454 -11.21151 -11.21128
 Alpha  occ. eigenvalues --   -1.59853  -1.39406  -1.19394  -1.08780  -1.08541
 Alpha  occ. eigenvalues --   -1.04797  -1.03637  -0.96087  -0.95610  -0.87108
 Alpha  occ. eigenvalues --   -0.86188  -0.82442  -0.79712  -0.78354  -0.77489
 Alpha  occ. eigenvalues --   -0.72049  -0.71179  -0.70487  -0.65177  -0.65037
 Alpha  occ. eigenvalues --   -0.64798  -0.62140  -0.61055  -0.59479  -0.57703
 Alpha  occ. eigenvalues --   -0.55489  -0.55287  -0.53408  -0.52895  -0.52617
 Alpha  occ. eigenvalues --   -0.52366  -0.49919  -0.48811  -0.48803  -0.48015
 Alpha  occ. eigenvalues --   -0.46712  -0.45888  -0.45819  -0.44807  -0.43916
 Alpha  occ. eigenvalues --   -0.37363  -0.36311
 Alpha virt. eigenvalues --    0.05043   0.11202   0.16485   0.21209   0.22759
 Alpha virt. eigenvalues --    0.24175   0.26513   0.26749   0.27349   0.28160
 Alpha virt. eigenvalues --    0.28307   0.30364   0.31219   0.31783   0.32065

 Mulliken charges:
               1
     1  C   -0.298067
     2  C   -0.299821
     3  C   -0.475704
     4  H    0.149543
     5  H    0.147408
     6  H    0.153365
     7  H    0.152344
     8  H    0.154164
     9  H    0.155146
    10  H    0.161034
    11  C   -0.298689
    12  C   -0.299411
    13  C   -0.475725
    14  H    0.151905
    15  H    0.150319
    16  H    0.150951
    17  H    0.147252
    18  H    0.161370
    19  H    0.156664
    20  H    0.151515
    21  C   -0.171221
    22  C   -0.218343
    23  C   -0.173351
    24  C    0.158813
    25  C   -0.169140
    26  C   -0.213457
    27  H    0.225583
    28  H    0.223499
    29  H    0.275710
    30  H    0.275843
    31  H    0.223087
    32  N    0.488043
    33  O   -0.459976
    34  O   -0.460654
 Sum of Mulliken charges =  -0.00000

 Dipole moment (field-independent basis, Debye):
    X=             -1.2873    Y=             -4.8169    Z=              1.3429  Tot=              5.1636
 Quadrupole moment (field-independent basis, Debye-Ang):
   XX=           -104.1466   YY=            -97.5944   ZZ=            -89.1749
   XY=            -15.0410   XZ=              3.4522   YZ=              0.8559

 Normal termination of Gaussian 16 at Wed May  5 17:13:54 2021.
