 Gaussian 16, Revision A.03,
 Gaussian 16:  EM64L-G16RevA.03 25-Dec-2016

 -------------
 #p 6-31g* mp2
 -------------

 ------------------------------------------------------
 Input file generated by CHIRIPA (05-May-2021 14:55:25)
 ------------------------------------------------------
 Symbolic Z-matrix:
 Charge =  0 Multiplicity = 1

                         Standard orientation:
 ---------------------------------------------------------------------
 Center     Atomic      Atomic             Coordinates (Angstroms)
 Number     Number       Type             X           Y           Z
 ---------------------------------------------------------------------
      1          6           0       -3.614433    2.497893   -0.443061
      2          6           0       -4.183794    1.364948   -1.033642
      3          6           0       -3.723206    0.086201   -0.706208
      4          6           0       -2.687043   -0.023364    0.219888
      5          6           0       -2.099326    1.086239    0.825410
      6          6           0       -2.575847    2.355174    0.482948
      7          1           0       -3.978417    3.487443   -0.703257
      8          1           0       -4.990502    1.472767   -1.753116
      9          1           0       -4.145942   -0.807808   -1.148317
     10          1           0       -1.296518    0.946961    1.539216
     11          1           0       -2.131783    3.233260    0.943183
     12          7           0       -2.191006   -1.371923    0.574482
     13          8           0       -1.276999   -1.441604    1.393245
     14          8           0       -2.725611   -2.333706    0.026937
     15          6           0        3.180678   -0.760776   -0.648416
     16          6           0        2.141972   -1.589918    0.107626
     17          6           0        1.423442   -2.598098   -0.789637
     18          1           0        2.687040   -0.231570   -1.474979
     19          1           0        3.916997   -1.436418   -1.105294
     20          1           0        1.408615   -0.912839    0.564097
     21          1           0        2.638106   -2.117062    0.932603
     22          1           0        2.139440   -3.296671   -1.234546
     23          1           0        0.902963   -2.085605   -1.605146
     24          1           0        0.685386   -3.180032   -0.228846
     25          6           0        3.907441    0.251607    0.235114
     26          6           0        4.946146    1.080749   -0.520928
     27          6           0        5.664677    2.088929    0.376335
     28          1           0        3.171123    0.927249    0.691992
     29          1           0        4.401078   -0.277600    1.061677
     30          1           0        4.450013    1.607893   -1.345905
     31          1           0        5.679504    0.403670   -0.977398
     32          1           0        6.185156    1.576436    1.191843
     33          1           0        4.948679    2.787501    0.821244
     34          1           0        6.402733    2.670863   -0.184455
 ---------------------------------------------------------------------

 SCF Done:  E(RHF) =  -669.536281420     A.U. after   15 cycles
 E2 =    -0.2091992364D+01 EUMP2 =    -0.67162827378369D+03

 The electronic state is 1-A.
 Alpha  occ. eigenvalues --  -20.60995 -20.60980 -15.85996 -11.31318 -11.27881
 Alpha  occ. eigenvalues --  -11.27872 -11.27612 -11.26884 -11.26874 -11.21322
 Alpha  occ. eigenvalues --  -11.20963 -11.20900 -11.20705 -11.20478 -11.19809
 Alpha  occ. eigenvalues --   -1.60033  -1.39591  -1.19484  -1.08889  -1.07844
 Alpha  occ. eigenvalues --   -1.04879  -1.02843  -0.95735  -0.95308  -0.86337
 Alpha  occ. eigenvalues --   -0.86279  -0.82567  -0.78960  -0.77678  -0.77533
 Alpha  occ. eigenvalues --   -0.72222  -0.71346  -0.70592  -0.65141  -0.64882
 Alpha  occ. eigenvalues --   -0.64492  -0.62227  -0.60259  -0.58717  -0.56863
 Alpha  occ. eigenvalues --   -0.55382  -0.54643  -0.53209  -0.52971  -0.51958
 Alpha  occ. eigenvalues --   -0.51740  -0.49325  -0.48991  -0.48960  -0.47239
 Alpha  occ. eigenvalues --   -0.46061  -0.45311  -0.45135  -0.44666  -0.43089
 Alpha  occ. eigenvalues --   -0.37459  -0.36479
 Alpha virt. eigenvalues --    0.04863   0.11160   0.16336   0.21183   0.23298
 Alpha virt. eigenvalues --    0.24906   0.26563   0.27372   0.27727   0.28635
 Alpha virt. eigenvalues --    0.28668   0.30647   0.31698   0.32134   0.32909

 Mulliken charges:
               1
     1  C   -0.170549
     2  C   -0.218556
     3  C   -0.170784
     4  C    0.158853
     5  C   -0.171474
     6  C   -0.218558
     7  H    0.226119
     8  H    0.223962
     9  H    0.276018
    10  H    0.275984
    11  H    0.223955
    12  N    0.489233
    13  O   -0.459156
    14  O   -0.458853
    15  C   -0.298022
    16  C   -0.300124
    17  C   -0.479734
    18  H    0.145031
    19  H    0.147657
    20  H    0.158930
    21  H    0.150665
    22  H    0.148385
    23  H    0.146203
    24  H    0.181299
    25  C   -0.296213
    26  C   -0.298888
    27  C   -0.474982
    28  H    0.144470
    29  H    0.150200
    30  H    0.149752
    31  H    0.152217
    32  H    0.155588
    33  H    0.152468
    34  H    0.158903
 Sum of Mulliken charges =  -0.00000

 Dipole moment (field-independent basis, Debye):
    X=             -2.0345    Y=              4.6474    Z=             -1.1455  Tot=              5.2009
 Quadrupole moment (field-independent basis, Debye-Ang):
   XX=            -84.0189   YY=            -94.5496   ZZ=            -94.2879
   XY=            -12.4678   XZ=              5.5999   YZ=              1.7507

 Normal termination of Gaussian 16 at Wed May  5 17:38:32 2021.
