 Gaussian 16, Revision A.03,
 Gaussian 16:  EM64L-G16RevA.03 25-Dec-2016

 -------------
 #p 6-31g* mp2
 -------------

 ------------------------------------------------------
 Input file generated by CHIRIPA (05-May-2021 14:55:21)
 ------------------------------------------------------
 Symbolic Z-matrix:
 Charge =  0 Multiplicity = 1

                         Standard orientation:
 ---------------------------------------------------------------------
 Center     Atomic      Atomic             Coordinates (Angstroms)
 Number     Number       Type             X           Y           Z
 ---------------------------------------------------------------------
      1          6           0        1.352675    1.521960    1.521078
      2          6           0        1.431648    0.195903    1.959095
      3          6           0        2.219563   -0.732843    1.272679
      4          6           0        2.918381   -0.299296    0.147077
      5          6           0        2.860093    1.014930   -0.314119
      6          6           0        2.065892    1.926528    0.387867
      7          1           0        0.738163    2.236772    2.060350
      8          1           0        0.878843   -0.121107    2.838843
      9          1           0        2.298695   -1.765570    1.589904
     10          1           0        3.422634    1.301251   -1.194451
     11          1           0        2.006448    2.955717    0.045405
     12          7           0        3.755839   -1.273441   -0.587843
     13          8           0        4.361808   -0.866419   -1.576666
     14          8           0        3.790412   -2.425553   -0.161134
     15          6           0       -4.098930   -0.100424    0.119802
     16          6           0       -4.835439   -1.306884   -0.463286
     17          6           0       -5.912843   -1.851779    0.474842
     18          1           0       -3.643024   -0.385139    1.077941
     19          1           0       -4.826792    0.691863    0.343175
     20          1           0       -4.106234   -2.096141   -0.686780
     21          1           0       -5.289484   -1.019317   -1.420242
     22          1           0       -6.662060   -1.082733    0.688950
     23          1           0       -5.472086   -2.165676    1.426580
     24          1           0       -6.426741   -2.713845    0.038252
     25          6           0       -3.018786    0.455612   -0.806394
     26          6           0       -2.282278    1.662072   -0.223306
     27          6           0       -1.204874    2.206968   -1.161435
     28          1           0       -2.290924   -0.336675   -1.029768
     29          1           0       -3.474693    0.740328   -1.764534
     30          1           0       -1.828233    1.374505    0.733650
     31          1           0       -3.011483    2.451330    0.000187
     32          1           0       -1.645631    2.520864   -2.113172
     33          1           0       -0.455658    1.437921   -1.375543
     34          1           0       -0.690976    3.069034   -0.724844
 ---------------------------------------------------------------------

 SCF Done:  E(RHF) =  -669.534881631     A.U. after   15 cycles
 E2 =    -0.2092913769D+01 EUMP2 =    -0.67162779540078D+03

 The electronic state is 1-A.
 Alpha  occ. eigenvalues --  -20.60802 -20.60796 -15.85856 -11.31240 -11.27791
 Alpha  occ. eigenvalues --  -11.27774 -11.27525 -11.26833 -11.26796 -11.22163
 Alpha  occ. eigenvalues --  -11.21892 -11.21803 -11.21743 -11.21590 -11.21337
 Alpha  occ. eigenvalues --   -1.59877  -1.39430  -1.19410  -1.08866  -1.08775
 Alpha  occ. eigenvalues --   -1.04813  -1.03941  -0.96393  -0.95627  -0.87417
 Alpha  occ. eigenvalues --   -0.86199  -0.82461  -0.80016  -0.78646  -0.77507
 Alpha  occ. eigenvalues --   -0.72073  -0.71202  -0.70509  -0.65472  -0.65058
 Alpha  occ. eigenvalues --   -0.64819  -0.62162  -0.61350  -0.59782  -0.58007
 Alpha  occ. eigenvalues --   -0.55722  -0.55304  -0.53287  -0.52991  -0.52818
 Alpha  occ. eigenvalues --   -0.52794  -0.50292  -0.48834  -0.48827  -0.48329
 Alpha  occ. eigenvalues --   -0.47043  -0.46192  -0.46102  -0.44832  -0.44210
 Alpha  occ. eigenvalues --   -0.37340  -0.36368
 Alpha virt. eigenvalues --    0.04992   0.11194   0.16437   0.20398   0.22656
 Alpha virt. eigenvalues --    0.24096   0.25916   0.26331   0.26839   0.27951
 Alpha virt. eigenvalues --    0.28605   0.30093   0.31078   0.31592   0.31863

 Mulliken charges:
               1
     1  C   -0.168368
     2  C   -0.219731
     3  C   -0.171642
     4  C    0.158562
     5  C   -0.173587
     6  C   -0.213808
     7  H    0.226398
     8  H    0.223566
     9  H    0.275595
    10  H    0.275950
    11  H    0.224314
    12  N    0.488046
    13  O   -0.460119
    14  O   -0.460376
    15  C   -0.297959
    16  C   -0.300220
    17  C   -0.475800
    18  H    0.146834
    19  H    0.149430
    20  H    0.153548
    21  H    0.153127
    22  H    0.155131
    23  H    0.154363
    24  H    0.161855
    25  C   -0.299045
    26  C   -0.300121
    27  C   -0.474334
    28  H    0.152678
    29  H    0.151501
    30  H    0.145593
    31  H    0.151351
    32  H    0.156564
    33  H    0.162905
    34  H    0.147797
 Sum of Mulliken charges =  -0.00000

 Dipole moment (field-independent basis, Debye):
    X=             -2.9587    Y=              3.3800    Z=              2.5366  Tot=              5.1588
 Quadrupole moment (field-independent basis, Debye-Ang):
   XX=           -112.4388   YY=            -94.6560   ZZ=            -92.4316
   XY=             11.4816   XZ=              7.0893   YZ=             -2.8786

 Normal termination of Gaussian 16 at Thu May  6 15:50:46 2021.
