 Gaussian 16, Revision A.03,
 Gaussian 16:  EM64L-G16RevA.03 25-Dec-2016

 -------------
 #p 6-31g* mp2
 -------------

 ------------------------------------------------------
 Input file generated by CHIRIPA (05-May-2021 14:53:15)
 ------------------------------------------------------
 Symbolic Z-matrix:
 Charge =  0 Multiplicity = 1

                         Standard orientation:
 ---------------------------------------------------------------------
 Center     Atomic      Atomic             Coordinates (Angstroms)
 Number     Number       Type             X           Y           Z
 ---------------------------------------------------------------------
      1          6           0       -2.428910   -0.174199    0.504415
      2          6           0       -1.817547    0.021505    1.892190
      3          6           0       -0.296008   -0.129181    1.894479
      4          1           0       -2.157062   -1.169889    0.128059
      5          1           0       -1.986379    0.553805   -0.189539
      6          1           0       -2.262110   -0.705739    2.583636
      7          1           0       -2.091042    1.016771    2.265367
      8          1           0        0.164921    0.605945    1.226846
      9          1           0       -0.007119   -1.126352    1.546923
     10          1           0        0.120157    0.014627    2.896470
     11          6           0       -3.949307   -0.026623    0.485908
     12          6           0       -4.560670   -0.222327   -0.901867
     13          6           0       -6.082209   -0.071641   -0.904156
     14          1           0       -4.391838   -0.754627    1.179862
     15          1           0       -4.221155    0.969067    0.862264
     16          1           0       -4.287175   -1.217593   -1.275044
     17          1           0       -4.116107    0.504917   -1.593313
     18          1           0       -6.371098    0.925530   -0.556600
     19          1           0       -6.543138   -0.806767   -0.236522
     20          1           0       -6.498374   -0.215448   -1.906147
     21          6           0        2.073004    2.565879   -0.445764
     22          6           0        2.954181    2.026431    0.497127
     23          6           0        3.193639    0.649675    0.538955
     24          6           0        2.531949   -0.162029   -0.381149
     25          6           0        1.648332    0.345362   -1.332498
     26          6           0        1.424036    1.725105   -1.355963
     27          1           0        1.892876    3.636536   -0.471125
     28          1           0        3.459576    2.676985    1.205224
     29          1           0        3.870808    0.205518    1.258390
     30          1           0        1.159254   -0.328460   -2.025451
     31          1           0        0.739177    2.141266   -2.089327
     32          7           0        2.777427   -1.621121   -0.346587
     33          8           0        2.182046   -2.314858   -1.168103
     34          8           0        3.560566   -2.043390    0.501362
 ---------------------------------------------------------------------

 SCF Done:  E(RHF) =  -669.534614900     A.U. after   15 cycles
 E2 =    -0.2094186475D+01 EUMP2 =    -0.67162880137507D+03

 The electronic state is 1-A.
 Alpha  occ. eigenvalues --  -20.60773 -20.60768 -15.85824 -11.31164 -11.27781
 Alpha  occ. eigenvalues --  -11.27765 -11.27580 -11.26841 -11.26826 -11.21724
 Alpha  occ. eigenvalues --  -11.21580 -11.21480 -11.21416 -11.21175 -11.20872
 Alpha  occ. eigenvalues --   -1.59847  -1.39401  -1.19411  -1.08796  -1.08487
 Alpha  occ. eigenvalues --   -1.04811  -1.03558  -0.96009  -0.95619  -0.87030
 Alpha  occ. eigenvalues --   -0.86201  -0.82453  -0.79644  -0.78315  -0.77491
 Alpha  occ. eigenvalues --   -0.72048  -0.71168  -0.70514  -0.65125  -0.65052
 Alpha  occ. eigenvalues --   -0.64813  -0.62150  -0.60975  -0.59382  -0.57676
 Alpha  occ. eigenvalues --   -0.55406  -0.55315  -0.53518  -0.52898  -0.52684
 Alpha  occ. eigenvalues --   -0.52076  -0.49860  -0.48806  -0.48799  -0.47870
 Alpha  occ. eigenvalues --   -0.46629  -0.45820  -0.45758  -0.44805  -0.43826
 Alpha  occ. eigenvalues --   -0.37368  -0.36406
 Alpha virt. eigenvalues --    0.05030   0.11211   0.16474   0.21263   0.22845
 Alpha virt. eigenvalues --    0.24305   0.26366   0.26919   0.27658   0.28041
 Alpha virt. eigenvalues --    0.28385   0.30803   0.31434   0.31797   0.31881

 Mulliken charges:
               1
     1  C   -0.298838
     2  C   -0.298782
     3  C   -0.484140
     4  H    0.154298
     5  H    0.142559
     6  H    0.153297
     7  H    0.148589
     8  H    0.162579
     9  H    0.157593
    10  H    0.157941
    11  C   -0.298088
    12  C   -0.299395
    13  C   -0.475663
    14  H    0.151388
    15  H    0.147971
    16  H    0.154216
    17  H    0.147930
    18  H    0.154278
    19  H    0.156482
    20  H    0.160294
    21  C   -0.171993
    22  C   -0.217645
    23  C   -0.170066
    24  C    0.163255
    25  C   -0.171303
    26  C   -0.219623
    27  H    0.226019
    28  H    0.223898
    29  H    0.275978
    30  H    0.276143
    31  H    0.223878
    32  N    0.488333
    33  O   -0.461045
    34  O   -0.460339
 Sum of Mulliken charges =  -0.00000

 Dipole moment (field-independent basis, Debye):
    X=             -0.7735    Y=              5.1028    Z=             -0.1326  Tot=              5.1628
 Quadrupole moment (field-independent basis, Debye-Ang):
   XX=            -98.7923   YY=            -95.9286   ZZ=            -92.2267
   XY=             14.2011   XZ=              2.6823   YZ=             -1.6224

 Normal termination of Gaussian 16 at Thu May  6 10:34:32 2021.
