 Gaussian 16, Revision A.03,
 Gaussian 16:  EM64L-G16RevA.03 25-Dec-2016

 -------------
 #p 6-31g* mp2
 -------------

 ------------------------------------------------------
 Input file generated by CHIRIPA (05-May-2021 14:53:12)
 ------------------------------------------------------
 Symbolic Z-matrix:
 Charge =  0 Multiplicity = 1

                         Standard orientation:
 ---------------------------------------------------------------------
 Center     Atomic      Atomic             Coordinates (Angstroms)
 Number     Number       Type             X           Y           Z
 ---------------------------------------------------------------------
      1          6           0       -4.099812    0.169179   -0.089568
      2          6           0       -3.216497    0.341675    1.146548
      3          6           0       -1.802520    0.810422    0.801965
      4          1           0       -3.628759   -0.552203   -0.771230
      5          1           0       -4.150813    1.123805   -0.631308
      6          1           0       -3.168300   -0.612629    1.686545
      7          1           0       -3.689803    1.062585    1.825434
      8          1           0       -1.831830    1.774096    0.283240
      9          1           0       -1.307364    0.089363    0.143562
     10          1           0       -1.188209    0.927188    1.700212
     11          6           0       -5.516414   -0.299031    0.238681
     12          6           0       -6.399729   -0.471527   -0.997436
     13          6           0       -7.813706   -0.940275   -0.652853
     14          1           0       -5.465414   -1.253658    0.780420
     15          1           0       -5.987468    0.422350    0.920342
     16          1           0       -5.926423   -1.192438   -1.676322
     17          1           0       -6.447926    0.482777   -1.537433
     18          1           0       -8.308863   -0.219215    0.005550
     19          1           0       -7.784397   -1.903948   -0.134128
     20          1           0       -8.428017   -1.057041   -1.551100
     21          6           0        1.996200    1.850961    0.106015
     22          6           0        1.974585    0.768007    0.991037
     23          6           0        2.944798   -0.235260    0.909242
     24          6           0        3.926502   -0.123316   -0.074127
     25          6           0        3.974797    0.943301   -0.970388
     26          6           0        2.994477    1.935004   -0.870152
     27          1           0        1.238590    2.625831    0.176718
     28          1           0        1.200504    0.700128    1.750139
     29          1           0        2.951676   -1.084551    1.581609
     30          1           0        4.759015    0.983473   -1.716583
     31          1           0        3.013739    2.774898   -1.558812
     32          7           0        4.958973   -1.179309   -0.170481
     33          8           0        5.813237   -1.057476   -1.045710
     34          8           0        4.894409   -2.108834    0.631051
 ---------------------------------------------------------------------

 SCF Done:  E(RHF) =  -669.535277268     A.U. after   15 cycles
 E2 =    -0.2091306052D+01 EUMP2 =    -0.67162658331980D+03

 The electronic state is 1-A.
 Alpha  occ. eigenvalues --  -20.60708 -20.60703 -15.85761 -11.31107 -11.27674
 Alpha  occ. eigenvalues --  -11.27657 -11.27389 -11.26685 -11.26630 -11.22390
 Alpha  occ. eigenvalues --  -11.22185 -11.22002 -11.21989 -11.21847 -11.21390
 Alpha  occ. eigenvalues --   -1.59784  -1.39338  -1.19273  -1.09016  -1.08668
 Alpha  occ. eigenvalues --   -1.04676  -1.04159  -0.96640  -0.95506  -0.87677
 Alpha  occ. eigenvalues --   -0.86062  -0.82341  -0.80237  -0.78789  -0.77395
 Alpha  occ. eigenvalues --   -0.71979  -0.71108  -0.70371  -0.65639  -0.64922
 Alpha  occ. eigenvalues --   -0.64710  -0.62070  -0.61544  -0.60013  -0.58224
 Alpha  occ. eigenvalues --   -0.55922  -0.55155  -0.53494  -0.53126  -0.52919
 Alpha  occ. eigenvalues --   -0.52630  -0.50555  -0.48738  -0.48735  -0.48538
 Alpha  occ. eigenvalues --   -0.47236  -0.46342  -0.46238  -0.44749  -0.44406
 Alpha  occ. eigenvalues --   -0.37235  -0.36269
 Alpha virt. eigenvalues --    0.05134   0.11324   0.16631   0.20276   0.22454
 Alpha virt. eigenvalues --    0.23857   0.25944   0.25960   0.26619   0.27576
 Alpha virt. eigenvalues --    0.28854   0.29447   0.31017   0.31632   0.32047

 Mulliken charges:
               1
     1  C   -0.299384
     2  C   -0.299757
     3  C   -0.479961
     4  H    0.151698
     5  H    0.149407
     6  H    0.154562
     7  H    0.153310
     8  H    0.152993
     9  H    0.162435
    10  H    0.151205
    11  C   -0.298834
    12  C   -0.300102
    13  C   -0.476036
    14  H    0.150856
    15  H    0.150099
    16  H    0.153014
    17  H    0.151964
    18  H    0.155408
    19  H    0.156022
    20  H    0.161476
    21  C   -0.171966
    22  C   -0.218225
    23  C   -0.173065
    24  C    0.158616
    25  C   -0.171350
    26  C   -0.218884
    27  H    0.226812
    28  H    0.227575
    29  H    0.275314
    30  H    0.275199
    31  H    0.222980
    32  N    0.488039
    33  O   -0.460717
    34  O   -0.460704
 Sum of Mulliken charges =  -0.00000

 Dipole moment (field-independent basis, Debye):
    X=             -3.8526    Y=              3.6855    Z=              0.3009  Tot=              5.3400
 Quadrupole moment (field-independent basis, Debye-Ang):
   XX=           -123.5985   YY=            -94.2702   ZZ=            -92.2961
   XY=             15.8195   XZ=             -0.1466   YZ=             -2.4296

 Normal termination of Gaussian 16 at Thu May  6 15:20:30 2021.
