 Gaussian 16, Revision A.03,
 Gaussian 16:  EM64L-G16RevA.03 25-Dec-2016

 -------------
 #p 6-31g* mp2
 -------------

 ------------------------------------------------------
 Input file generated by CHIRIPA (05-May-2021 14:53:18)
 ------------------------------------------------------
 Symbolic Z-matrix:
 Charge =  0 Multiplicity = 1

                         Standard orientation:
 ---------------------------------------------------------------------
 Center     Atomic      Atomic             Coordinates (Angstroms)
 Number     Number       Type             X           Y           Z
 ---------------------------------------------------------------------
      1          6           0       -3.579873   -0.374816    0.071352
      2          6           0       -2.830725   -1.280711   -0.906459
      3          6           0       -1.440987   -1.672270   -0.403363
      4          1           0       -2.984891    0.530999    0.251466
      5          1           0       -3.670167   -0.887063    1.039260
      6          1           0       -2.743084   -0.767467   -1.872645
      7          1           0       -3.427648   -2.184388   -1.084414
      8          1           0       -1.512672   -2.206954    0.549304
      9          1           0       -0.824219   -0.781983   -0.243406
     10          1           0       -0.923147   -2.319861   -1.117736
     11          6           0       -4.970798    0.025203   -0.417565
     12          6           0       -5.719947    0.931099    0.560246
     13          6           0       -7.109685    1.322657    0.057150
     14          1           0       -4.880504    0.537450   -1.385473
     15          1           0       -5.565780   -0.880612   -0.597678
     16          1           0       -5.123024    1.834775    0.738201
     17          1           0       -5.807588    0.417854    1.526432
     18          1           0       -7.726453    0.432370   -0.102807
     19          1           0       -7.038000    1.857341   -0.895517
     20          1           0       -7.627524    1.970248    0.771523
     21          6           0        2.575741   -2.226168    0.581501
     22          6           0        3.741632   -1.995126   -0.155952
     23          6           0        4.174608   -0.690176   -0.409300
     24          6           0        3.414002    0.364988    0.092096
     25          6           0        2.248050    0.167182    0.830147
     26          6           0        1.833978   -1.146180    1.071334
     27          1           0        2.246738   -3.243152    0.773584
     28          1           0        4.319690   -2.831931   -0.537598
     29          1           0        5.073368   -0.482734   -0.977292
     30          1           0        1.692835    1.021674    1.197567
     31          1           0        0.928129   -1.322615    1.644355
     32          7           0        3.862367    1.750933   -0.169674
     33          8           0        3.174527    2.663375    0.283052
     34          8           0        4.893148    1.898553   -0.822620
 ---------------------------------------------------------------------

 SCF Done:  E(RHF) =  -669.535132591     A.U. after   15 cycles
 E2 =    -0.2091761474D+01 EUMP2 =    -0.67162689406527D+03

 The electronic state is 1-A.
 Alpha  occ. eigenvalues --  -20.60749 -20.60744 -15.85801 -11.31161 -11.27708
 Alpha  occ. eigenvalues --  -11.27700 -11.27432 -11.26741 -11.26686 -11.22090
 Alpha  occ. eigenvalues --  -11.21844 -11.21821 -11.21777 -11.21676 -11.21252
 Alpha  occ. eigenvalues --   -1.59824  -1.39378  -1.19323  -1.08817  -1.08714
 Alpha  occ. eigenvalues --   -1.04729  -1.03929  -0.96404  -0.95554  -0.87441
 Alpha  occ. eigenvalues --   -0.86107  -0.82390  -0.80011  -0.78616  -0.77434
 Alpha  occ. eigenvalues --   -0.72019  -0.71147  -0.70421  -0.65440  -0.64972
 Alpha  occ. eigenvalues --   -0.64728  -0.62085  -0.61325  -0.59769  -0.58003
 Alpha  occ. eigenvalues --   -0.55707  -0.55215  -0.53327  -0.53007  -0.52912
 Alpha  occ. eigenvalues --   -0.52539  -0.50339  -0.48781  -0.48775  -0.48303
 Alpha  occ. eigenvalues --   -0.47026  -0.46160  -0.46068  -0.44785  -0.44179
 Alpha  occ. eigenvalues --   -0.37282  -0.36277
 Alpha virt. eigenvalues --    0.05066   0.11294   0.16508   0.20875   0.22577
 Alpha virt. eigenvalues --    0.23953   0.25956   0.26303   0.27268   0.28119
 Alpha virt. eigenvalues --    0.28867   0.30301   0.31156   0.31529   0.32066

 Mulliken charges:
               1
     1  C   -0.298960
     2  C   -0.300143
     3  C   -0.478381
     4  H    0.150082
     5  H    0.147541
     6  H    0.155631
     7  H    0.152502
     8  H    0.146537
     9  H    0.157399
    10  H    0.161697
    11  C   -0.298568
    12  C   -0.300114
    13  C   -0.475980
    14  H    0.151400
    15  H    0.149885
    16  H    0.153204
    17  H    0.151308
    18  H    0.155106
    19  H    0.156249
    20  H    0.161214
    21  C   -0.172766
    22  C   -0.218395
    23  C   -0.171481
    24  C    0.158995
    25  C   -0.174358
    26  C   -0.213104
    27  H    0.225689
    28  H    0.223230
    29  H    0.275343
    30  H    0.275114
    31  H    0.227206
    32  N    0.488059
    33  O   -0.460678
    34  O   -0.460462
 Sum of Mulliken charges =  -0.00000

 Dipole moment (field-independent basis, Debye):
    X=             -1.6616    Y=             -4.8754    Z=              0.8737  Tot=              5.2244
 Quadrupole moment (field-independent basis, Debye-Ang):
   XX=           -103.3461   YY=            -97.8100   ZZ=            -93.7678
   XY=            -18.5092   XZ=              0.4432   YZ=              0.6374

 Normal termination of Gaussian 16 at Thu May  6 17:21:03 2021.
