 Gaussian 16, Revision A.03,
 Gaussian 16:  EM64L-G16RevA.03 25-Dec-2016

 -------------
 #p 6-31g* mp2
 -------------

 ------------------------------------------------------
 Input file generated by CHIRIPA (05-May-2021 14:57:24)
 ------------------------------------------------------
 Symbolic Z-matrix:
 Charge =  0 Multiplicity = 1

                         Standard orientation:
 ---------------------------------------------------------------------
 Center     Atomic      Atomic             Coordinates (Angstroms)
 Number     Number       Type             X           Y           Z
 ---------------------------------------------------------------------
      1          6           0        1.946030    1.576846    0.987697
      2          6           0        2.825049    2.155152    0.066063
      3          6           0        3.868494    1.406305   -0.486203
      4          6           0        4.004249    0.075896   -0.092663
      5          6           0        3.144739   -0.528719    0.823292
      6          6           0        2.108395    0.239115    1.362709
      7          1           0        1.138215    2.165943    1.411720
      8          1           0        2.701361    3.193829   -0.227018
      9          1           0        4.563364    1.828920   -1.201724
     10          1           0        3.293389   -1.566469    1.096049
     11          1           0        1.427243   -0.212635    2.078250
     12          7           0        5.105139   -0.726925   -0.670520
     13          8           0        5.203335   -1.897037   -0.307432
     14          8           0        5.848975   -0.170863   -1.475592
     15          6           0       -6.053916    0.504294   -0.940881
     16          6           0       -5.125753    1.468232   -0.533625
     17          6           0       -3.886466    1.084954   -0.012268
     18          6           0       -3.607113   -0.277093    0.088136
     19          6           0       -4.510928   -1.261296   -0.309047
     20          6           0       -5.744088   -0.854996   -0.827492
     21          1           0       -7.014245    0.810974   -1.344753
     22          1           0       -5.363656    2.524591   -0.620522
     23          1           0       -3.149437    1.810195    0.310583
     24          1           0       -4.245183   -2.306772   -0.210175
     25          1           0       -6.462976   -1.605805   -1.142980
     26          7           0       -2.298379   -0.695038    0.638533
     27          8           0       -2.076408   -1.901381    0.716649
     28          8           0       -1.519344    0.191634    0.981396
 ---------------------------------------------------------------------

 SCF Done:  E(RHF) =  -868.340018279     A.U. after   16 cycles
 E2 =    -0.2598886996D+01 EUMP2 =    -0.87093890527559D+03

 The electronic state is 1-A.
 Alpha  occ. eigenvalues --  -20.61734 -20.61701 -20.59865 -20.59850 -15.86744
 Alpha  occ. eigenvalues --  -15.84902 -11.31865 -11.30033 -11.28433 -11.28375
 Alpha  occ. eigenvalues --  -11.28088 -11.27372 -11.27336 -11.26627 -11.26464
 Alpha  occ. eigenvalues --  -11.26168 -11.25617 -11.25298  -1.60773  -1.58940
 Alpha  occ. eigenvalues --   -1.40337  -1.38500  -1.20010  -1.18158  -1.09449
 Alpha  occ. eigenvalues --   -1.07577  -1.05379  -1.03514  -0.96329  -0.94463
 Alpha  occ. eigenvalues --   -0.86788  -0.84908  -0.83174  -0.81304  -0.78250
 Alpha  occ. eigenvalues --   -0.76396  -0.72996  -0.72066  -0.71128  -0.71116
 Alpha  occ. eigenvalues --   -0.70261  -0.69232  -0.65670  -0.65380  -0.63794
 Alpha  occ. eigenvalues --   -0.63479  -0.62733  -0.60862  -0.55882  -0.53980
 Alpha  occ. eigenvalues --   -0.53716  -0.53469  -0.51875  -0.51592  -0.49739
 Alpha  occ. eigenvalues --   -0.49697  -0.47895  -0.47857  -0.45790  -0.43959
 Alpha  occ. eigenvalues --   -0.37969  -0.36969  -0.36088  -0.35103
 Alpha virt. eigenvalues --    0.04276   0.06111   0.10690   0.12553   0.15829
 Alpha virt. eigenvalues --    0.17692   0.20820   0.22701   0.26750   0.27619
 Alpha virt. eigenvalues --    0.28673   0.29412   0.30527   0.31825   0.32462

 Mulliken charges:
               1
     1  C   -0.167613
     2  C   -0.220670
     3  C   -0.173715
     4  C    0.157411
     5  C   -0.174295
     6  C   -0.210165
     7  H    0.226845
     8  H    0.216814
     9  H    0.270609
    10  H    0.274108
    11  H    0.236931
    12  N    0.488188
    13  O   -0.462063
    14  O   -0.464741
    15  C   -0.169818
    16  C   -0.218280
    17  C   -0.170049
    18  C    0.158404
    19  C   -0.170034
    20  C   -0.218375
    21  H    0.227922
    22  H    0.224534
    23  H    0.271736
    24  H    0.277279
    25  H    0.225969
    26  N    0.491389
    27  O   -0.456437
    28  O   -0.471884
 Sum of Mulliken charges =  -0.00000

 Dipole moment (field-independent basis, Debye):
    X=             -9.1062    Y=              4.1420    Z=              0.2054  Tot=             10.0061
 Quadrupole moment (field-independent basis, Debye-Ang):
   XX=           -103.6816   YY=            -97.9210   ZZ=           -105.3614
   XY=              9.5681   XZ=             15.2584   YZ=             -1.2039

 Normal termination of Gaussian 16 at Wed May  5 16:23:58 2021.
