 Gaussian 16, Revision A.03,
 Gaussian 16:  EM64L-G16RevA.03 25-Dec-2016

 -------------
 #p 6-31g* mp2
 -------------

 ------------------------------------------------------
 Input file generated by CHIRIPA (05-May-2021 14:57:23)
 ------------------------------------------------------
 Symbolic Z-matrix:
 Charge =  0 Multiplicity = 1

                         Standard orientation:
 ---------------------------------------------------------------------
 Center     Atomic      Atomic             Coordinates (Angstroms)
 Number     Number       Type             X           Y           Z
 ---------------------------------------------------------------------
      1          6           0       -0.829062    0.116927    0.027199
      2          6           0       -1.466976   -0.727411    0.941901
      3          6           0       -2.861291   -0.827350    0.962998
      4          6           0       -3.589957   -0.065222    0.051133
      5          6           0       -2.983575    0.784985   -0.872305
      6          6           0       -1.588059    0.869104   -0.875394
      7          1           0        0.254541    0.188417    0.017805
      8          1           0       -0.880076   -1.312738    1.644031
      9          1           0       -3.380896   -1.473092    1.660455
     10          1           0       -3.595467    1.356077   -1.559954
     11          1           0       -1.095347    1.525658   -1.586883
     12          7           0       -5.066691   -0.162649    0.063935
     13          8           0       -5.685985    0.519249   -0.749777
     14          8           0       -5.576899   -0.919065    0.887439
     15          6           0        3.000693    2.478075    0.539777
     16          6           0        2.603207    1.997877   -0.712395
     17          6           0        2.789963    0.653974   -1.049429
     18          6           0        3.380011   -0.185653   -0.105946
     19          6           0        3.786637    0.262782    1.149781
     20          6           0        3.590101    1.610525    1.465238
     21          1           0        2.851818    3.523543    0.793213
     22          1           0        2.145205    2.669341   -1.433100
     23          1           0        2.491596    0.255752   -2.011622
     24          1           0        4.240461   -0.430672    1.847336
     25          1           0        3.899776    1.980679    2.438445
     26          7           0        3.582899   -1.610415   -0.451327
     27          8           0        4.105040   -2.329776    0.397511
     28          8           0        3.215939   -1.980807   -1.564337
 ---------------------------------------------------------------------

 SCF Done:  E(RHF) =  -868.336988545     A.U. after   16 cycles
 E2 =    -0.2601705922D+01 EUMP2 =    -0.87093869446751D+03

 The electronic state is 1-A.
 Alpha  occ. eigenvalues --  -20.61817 -20.61811 -20.60756 -20.60748 -15.86879
 Alpha  occ. eigenvalues --  -15.85811 -11.32463 -11.31164 -11.29036 -11.28988
 Alpha  occ. eigenvalues --  -11.28724 -11.28085 -11.27982 -11.27791 -11.27727
 Alpha  occ. eigenvalues --  -11.27355 -11.26814 -11.26687  -1.60896  -1.59831
 Alpha  occ. eigenvalues --   -1.40439  -1.39385  -1.20661  -1.19342  -1.09971
 Alpha  occ. eigenvalues --   -1.08727  -1.06067  -1.04758  -0.96774  -0.95563
 Alpha  occ. eigenvalues --   -0.87417  -0.86154  -0.83588  -0.82410  -0.78622
 Alpha  occ. eigenvalues --   -0.77467  -0.73075  -0.72258  -0.72028  -0.71661
 Alpha  occ. eigenvalues --   -0.71155  -0.70447  -0.66255  -0.65998  -0.64993
 Alpha  occ. eigenvalues --   -0.64791  -0.63364  -0.62118  -0.56464  -0.55695
 Alpha  occ. eigenvalues --   -0.54097  -0.53920  -0.53073  -0.52856  -0.49857
 Alpha  occ. eigenvalues --   -0.49828  -0.48786  -0.48783  -0.45792  -0.44793
 Alpha  occ. eigenvalues --   -0.38628  -0.37674  -0.37284  -0.36373
 Alpha virt. eigenvalues --    0.03875   0.05083   0.09914   0.11289   0.15306
 Alpha virt. eigenvalues --    0.16588   0.19824   0.21690   0.25381   0.27232
 Alpha virt. eigenvalues --    0.27718   0.28672   0.29612   0.31221   0.31881

 Mulliken charges:
               1
     1  C   -0.174759
     2  C   -0.221336
     3  C   -0.169877
     4  C    0.157706
     5  C   -0.170246
     6  C   -0.222887
     7  H    0.237875
     8  H    0.225386
     9  H    0.276073
    10  H    0.274487
    11  H    0.214154
    12  N    0.488097
    13  O   -0.461291
    14  O   -0.459991
    15  C   -0.170014
    16  C   -0.219656
    17  C   -0.191758
    18  C    0.160236
    19  C   -0.172605
    20  C   -0.217431
    21  H    0.231176
    22  H    0.225814
    23  H    0.279154
    24  H    0.279581
    25  H    0.228885
    26  N    0.487585
    27  O   -0.457161
    28  O   -0.457199
 Sum of Mulliken charges =  -0.00000

 Dipole moment (field-independent basis, Debye):
    X=              4.8403    Y=              5.3579    Z=              1.3121  Tot=              7.3387
 Quadrupole moment (field-independent basis, Debye-Ang):
   XX=           -146.6750   YY=           -105.0797   ZZ=            -98.5247
   XY=             15.4359   XZ=              7.2096   YZ=             -4.2316

 Normal termination of Gaussian 16 at Thu May  6 19:36:15 2021.
