 Gaussian 16, Revision A.03,
 Gaussian 16:  EM64L-G16RevA.03 25-Dec-2016

 -------------
 #p 6-31g* mp2
 -------------

 ------------------------------------------------------
 Input file generated by CHIRIPA (05-May-2021 14:53:17)
 ------------------------------------------------------
 Symbolic Z-matrix:
 Charge =  0 Multiplicity = 1

                         Standard orientation:
 ---------------------------------------------------------------------
 Center     Atomic      Atomic             Coordinates (Angstroms)
 Number     Number       Type             X           Y           Z
 ---------------------------------------------------------------------
      1          6           0       -4.588393   -0.630333    0.052691
      2          6           0       -5.980266   -0.826614   -0.549096
      3          6           0       -6.322473   -2.298904   -0.779424
      4          1           0       -3.840779   -1.082136   -0.613561
      5          1           0       -4.528171   -1.175068    1.005074
      6          1           0       -6.038297   -0.280534   -1.499383
      7          1           0       -6.724636   -0.374123    0.118572
      8          1           0       -6.292296   -2.853577    0.163989
      9          1           0       -5.602058   -2.759457   -1.463159
     10          1           0       -7.321778   -2.416181   -1.210114
     11          6           0       -4.231773    0.836229    0.288802
     12          6           0       -2.839901    1.032510    0.890589
     13          6           0       -2.497694    2.504800    1.120917
     14          1           0       -4.291996    1.380964   -0.663581
     15          1           0       -4.979387    1.288032    0.955054
     16          1           0       -2.095531    0.580019    0.222921
     17          1           0       -2.781869    0.486430    1.840876
     18          1           0       -3.218109    2.965353    1.804653
     19          1           0       -2.527870    3.059473    0.177504
     20          1           0       -1.498388    2.622077    1.551607
     21          6           0        1.741420    1.655034   -0.804680
     22          6           0        1.340465    0.517943   -0.095609
     23          6           0        2.275944   -0.450147    0.281520
     24          6           0        3.610110   -0.248207   -0.068499
     25          6           0        4.040658    0.874058   -0.774502
     26          6           0        3.087864    1.829155   -1.141270
     27          1           0        1.007991    2.402022   -1.093619
     28          1           0        0.295477    0.380087    0.167147
     29          1           0        1.992951   -1.339839    0.830865
     30          1           0        5.089498    0.983745   -1.022138
     31          1           0        3.402124    2.711250   -1.691901
     32          7           0        4.609626   -1.266202    0.325267
     33          8           0        5.778997   -1.064876    0.004833
     34          8           0        4.204750   -2.246158    0.946878
 ---------------------------------------------------------------------

 SCF Done:  E(RHF) =  -669.535640420     A.U. after   15 cycles
 E2 =    -0.2091118264D+01 EUMP2 =    -0.67162675868378D+03

 The electronic state is 1-A.
 Alpha  occ. eigenvalues --  -20.60727 -20.60722 -15.85780 -11.31138 -11.27709
 Alpha  occ. eigenvalues --  -11.27697 -11.27441 -11.26723 -11.26676 -11.22733
 Alpha  occ. eigenvalues --  -11.22213 -11.22145 -11.22128 -11.22029 -11.21483
 Alpha  occ. eigenvalues --   -1.59803  -1.39357  -1.19308  -1.09215  -1.08704
 Alpha  occ. eigenvalues --   -1.04711  -1.04315  -0.96738  -0.95541  -0.87754
 Alpha  occ. eigenvalues --   -0.86111  -0.82374  -0.80414  -0.78993  -0.77421
 Alpha  occ. eigenvalues --   -0.71999  -0.71126  -0.70415  -0.65872  -0.64959
 Alpha  occ. eigenvalues --   -0.64722  -0.62127  -0.61653  -0.60126  -0.58342
 Alpha  occ. eigenvalues --   -0.56012  -0.55209  -0.53451  -0.53161  -0.53034
 Alpha  occ. eigenvalues --   -0.52810  -0.50676  -0.48789  -0.48754  -0.48673
 Alpha  occ. eigenvalues --   -0.47439  -0.46531  -0.46428  -0.44764  -0.44551
 Alpha  occ. eigenvalues --   -0.37290  -0.36314
 Alpha virt. eigenvalues --    0.05110   0.11308   0.16604   0.19344   0.22533
 Alpha virt. eigenvalues --    0.23834   0.25211   0.26184   0.26841   0.28166
 Alpha virt. eigenvalues --    0.29120   0.30025   0.30799   0.31090   0.31967

 Mulliken charges:
               1
     1  C   -0.299215
     2  C   -0.300237
     3  C   -0.476238
     4  H    0.149033
     5  H    0.151235
     6  H    0.152361
     7  H    0.153159
     8  H    0.156321
     9  H    0.155871
    10  H    0.161980
    11  C   -0.297505
    12  C   -0.305649
    13  C   -0.479010
    14  H    0.150208
    15  H    0.153148
    16  H    0.144144
    17  H    0.156394
    18  H    0.161862
    19  H    0.153858
    20  H    0.159366
    21  C   -0.173810
    22  C   -0.227716
    23  C   -0.173084
    24  C    0.158998
    25  C   -0.171324
    26  C   -0.218560
    27  H    0.226144
    28  H    0.236662
    29  H    0.276150
    30  H    0.275397
    31  H    0.223194
    32  N    0.487995
    33  O   -0.460658
    34  O   -0.460474
 Sum of Mulliken charges =  -0.00000

 Dipole moment (field-independent basis, Debye):
    X=             -3.7705    Y=              3.5952    Z=             -1.3457  Tot=              5.3808
 Quadrupole moment (field-independent basis, Debye-Ang):
   XX=           -116.9159   YY=            -96.4770   ZZ=            -93.3976
   XY=             15.7779   XZ=             -7.2505   YZ=             -1.4969

 Normal termination of Gaussian 16 at Thu May  6 09:07:16 2021.
