 Gaussian 16, Revision A.03,
 Gaussian 16:  EM64L-G16RevA.03 25-Dec-2016

 -------------
 #p 6-31g* mp2
 -------------

 ------------------------------------------------------
 Input file generated by CHIRIPA (05-May-2021 14:53:13)
 ------------------------------------------------------
 Symbolic Z-matrix:
 Charge =  0 Multiplicity = 1

                         Standard orientation:
 ---------------------------------------------------------------------
 Center     Atomic      Atomic             Coordinates (Angstroms)
 Number     Number       Type             X           Y           Z
 ---------------------------------------------------------------------
      1          6           0       -3.276580   -0.056707   -0.073367
      2          6           0       -4.515665   -0.337319   -0.924197
      3          6           0       -5.023281   -1.771762   -0.774223
      4          1           0       -2.480422   -0.760066   -0.353303
      5          1           0       -3.512096   -0.254897    0.981454
      6          1           0       -4.278289   -0.137330   -1.976942
      7          1           0       -5.308902    0.366915   -0.642337
      8          1           0       -5.287313   -1.980023    0.267658
      9          1           0       -4.250843   -2.487134   -1.074531
     10          1           0       -5.909521   -1.950557   -1.391046
     11          6           0       -2.757239    1.373200   -0.212573
     12          6           0       -1.518154    1.653812    0.638256
     13          6           0       -1.010538    3.088256    0.488283
     14          1           0       -2.521723    1.571391   -1.267394
     15          1           0       -3.553397    2.076559    0.067362
     16          1           0       -0.724917    0.949578    0.356396
     17          1           0       -1.755530    1.453824    1.691002
     18          1           0       -1.782976    3.803627    0.788590
     19          1           0       -0.746506    3.296517   -0.553598
     20          1           0       -0.124298    3.267051    1.105106
     21          6           0        0.816649   -1.839342    1.607525
     22          6           0        1.379338   -2.438295    0.475644
     23          6           0        2.234144   -1.713663   -0.360276
     24          6           0        2.505872   -0.386150   -0.032916
     25          6           0        1.960766    0.238662    1.087690
     26          6           0        1.108643   -0.505127    1.909404
     27          1           0        0.153658   -2.409694    2.251370
     28          1           0        1.154347   -3.474298    0.238742
     29          1           0        2.683451   -2.152593   -1.242819
     30          1           0        2.203754    1.273154    1.297931
     31          1           0        0.673086   -0.037376    2.787780
     32          7           0        3.409396    0.391125   -0.910348
     33          8           0        3.632997    1.559185   -0.600063
     34          8           0        3.876869   -0.182423   -1.891749
 ---------------------------------------------------------------------

 SCF Done:  E(RHF) =  -669.534159269     A.U. after   15 cycles
 E2 =    -0.2093721019D+01 EUMP2 =    -0.67162788028774D+03

 The electronic state is 1-A.
 Alpha  occ. eigenvalues --  -20.60812 -20.60807 -15.85865 -11.31253 -11.27797
 Alpha  occ. eigenvalues --  -11.27771 -11.27523 -11.26838 -11.26787 -11.21911
 Alpha  occ. eigenvalues --  -11.21778 -11.21737 -11.21610 -11.21439 -11.21289
 Alpha  occ. eigenvalues --   -1.59887  -1.39440  -1.19426  -1.08816  -1.08718
 Alpha  occ. eigenvalues --   -1.04838  -1.03816  -0.96278  -0.95637  -0.87287
 Alpha  occ. eigenvalues --   -0.86210  -0.82475  -0.79898  -0.78567  -0.77508
 Alpha  occ. eigenvalues --   -0.72081  -0.71213  -0.70507  -0.65367  -0.65061
 Alpha  occ. eigenvalues --   -0.64811  -0.62176  -0.61231  -0.59664  -0.57912
 Alpha  occ. eigenvalues --   -0.55562  -0.55301  -0.53271  -0.52964  -0.52882
 Alpha  occ. eigenvalues --   -0.52675  -0.50197  -0.48843  -0.48836  -0.48200
 Alpha  occ. eigenvalues --   -0.46911  -0.46088  -0.45995  -0.44838  -0.44078
 Alpha  occ. eigenvalues --   -0.37395  -0.36284
 Alpha virt. eigenvalues --    0.04994   0.11170   0.16453   0.20591   0.22705
 Alpha virt. eigenvalues --    0.23849   0.25947   0.26385   0.26920   0.28187
 Alpha virt. eigenvalues --    0.28831   0.29912   0.31368   0.31437   0.31984

 Mulliken charges:
               1
     1  C   -0.298531
     2  C   -0.299771
     3  C   -0.475596
     4  H    0.149171
     5  H    0.145300
     6  H    0.153957
     7  H    0.152936
     8  H    0.153635
     9  H    0.153385
    10  H    0.161883
    11  C   -0.297490
    12  C   -0.308129
    13  C   -0.475425
    14  H    0.152359
    15  H    0.149586
    16  H    0.164041
    17  H    0.141900
    18  H    0.155838
    19  H    0.161629
    20  H    0.154745
    21  C   -0.170842
    22  C   -0.218732
    23  C   -0.172058
    24  C    0.160133
    25  C   -0.174724
    26  C   -0.214562
    27  H    0.226338
    28  H    0.223802
    29  H    0.275665
    30  H    0.276716
    31  H    0.225211
    32  N    0.487985
    33  O   -0.460020
    34  O   -0.460333
 Sum of Mulliken charges =  -0.00000

 Dipole moment (field-independent basis, Debye):
    X=             -3.1498    Y=             -2.7388    Z=              3.0276  Tot=              5.1564
 Quadrupole moment (field-independent basis, Debye-Ang):
   XX=           -111.5090   YY=            -90.5978   ZZ=            -93.0831
   XY=             -6.8526   XZ=              7.2838   YZ=              1.6085

 Normal termination of Gaussian 16 at Thu May  6 10:28:57 2021.
