 Gaussian 16, Revision A.03,
 Gaussian 16:  EM64L-G16RevA.03 25-Dec-2016

 -------------
 #p 6-31g* mp2
 -------------

 ------------------------------------------------------
 Input file generated by CHIRIPA (05-May-2021 14:53:12)
 ------------------------------------------------------
 Symbolic Z-matrix:
 Charge =  0 Multiplicity = 1

                         Standard orientation:
 ---------------------------------------------------------------------
 Center     Atomic      Atomic             Coordinates (Angstroms)
 Number     Number       Type             X           Y           Z
 ---------------------------------------------------------------------
      1          6           0        3.805411    0.625092   -0.217710
      2          6           0        3.184387    1.856009    0.443470
      3          6           0        1.824833    2.223999   -0.151501
      4          1           0        3.913183    0.810614   -1.295166
      5          1           0        3.116684   -0.224815   -0.114236
      6          1           0        3.874690    2.702997    0.339989
      7          1           0        3.078258    1.667608    1.519508
      8          1           0        1.116748    1.397193   -0.034850
      9          1           0        1.917705    2.438465   -1.221071
     10          1           0        1.399003    3.106660    0.335776
     11          6           0        5.164819    0.244711    0.366285
     12          6           0        5.785843   -0.986205   -0.294895
     13          6           0        7.145397   -1.354196    0.300076
     14          1           0        5.853546    1.094619    0.262810
     15          1           0        5.057047    0.059190    1.443741
     16          1           0        5.891972   -0.797804   -1.370933
     17          1           0        5.095540   -1.833194   -0.191414
     18          1           0        7.052525   -1.568662    1.369646
     19          1           0        7.853482   -0.527390    0.183425
     20          1           0        7.571227   -2.236856   -0.187202
     21          6           0       -5.757278    0.722887    0.341223
     22          6           0       -5.581167   -0.647538    0.559031
     23          6           0       -4.337106   -1.246997    0.341063
     24          6           0       -3.286158   -0.442501   -0.096636
     25          6           0       -3.430134    0.925527   -0.322605
     26          6           0       -4.683093    1.503669   -0.098125
     27          1           0       -6.727151    1.180281    0.513076
     28          1           0       -6.413609   -1.256363    0.900233
     29          1           0       -4.172983   -2.305607    0.501775
     30          1           0       -2.581517    1.506525   -0.662765
     31          1           0       -4.816952    2.568203   -0.268106
     32          7           0       -1.964415   -1.065838   -0.330837
     33          8           0       -1.054398   -0.335201   -0.716421
     34          8           0       -1.863479   -2.273242   -0.124383
 ---------------------------------------------------------------------

 SCF Done:  E(RHF) =  -669.536205800     A.U. after   15 cycles
 E2 =    -0.2090690618D+01 EUMP2 =    -0.67162689641748D+03

 The electronic state is 1-A.
 Alpha  occ. eigenvalues --  -20.60934 -20.60921 -15.85967 -11.31272 -11.27839
 Alpha  occ. eigenvalues --  -11.27827 -11.27576 -11.26844 -11.26832 -11.20886
 Alpha  occ. eigenvalues --  -11.20710 -11.20613 -11.20486 -11.20396 -11.19955
 Alpha  occ. eigenvalues --   -1.59995  -1.39551  -1.19442  -1.08850  -1.07587
 Alpha  occ. eigenvalues --   -1.04836  -1.02701  -0.95695  -0.95142  -0.86238
 Alpha  occ. eigenvalues --   -0.86161  -0.82528  -0.78777  -0.77584  -0.77375
 Alpha  occ. eigenvalues --   -0.72194  -0.71308  -0.70551  -0.65099  -0.64840
 Alpha  occ. eigenvalues --   -0.64216  -0.62182  -0.60094  -0.58536  -0.56752
 Alpha  occ. eigenvalues --   -0.55344  -0.54412  -0.53170  -0.52928  -0.51877
 Alpha  occ. eigenvalues --   -0.51550  -0.49107  -0.48949  -0.48898  -0.47080
 Alpha  occ. eigenvalues --   -0.45816  -0.45009  -0.44923  -0.44754  -0.42966
 Alpha  occ. eigenvalues --   -0.37423  -0.36437
 Alpha virt. eigenvalues --    0.04922   0.11217   0.16399   0.21302   0.23702
 Alpha virt. eigenvalues --    0.25131   0.27148   0.27487   0.27873   0.28424
 Alpha virt. eigenvalues --    0.29041   0.30820   0.31963   0.32409   0.32696

 Mulliken charges:
               1
     1  C   -0.299750
     2  C   -0.298096
     3  C   -0.486497
     4  H    0.148260
     5  H    0.159943
     6  H    0.146801
     7  H    0.149178
     8  H    0.180792
     9  H    0.151908
    10  H    0.149763
    11  C   -0.297803
    12  C   -0.299564
    13  C   -0.475273
    14  H    0.146424
    15  H    0.148211
    16  H    0.151150
    17  H    0.154737
    18  H    0.154291
    19  H    0.153379
    20  H    0.158917
    21  C   -0.170579
    22  C   -0.218626
    23  C   -0.170807
    24  C    0.157660
    25  C   -0.170852
    26  C   -0.218638
    27  H    0.225926
    28  H    0.223702
    29  H    0.275697
    30  H    0.276924
    31  H    0.223958
    32  N    0.492410
    33  O   -0.464267
    34  O   -0.459279
 Sum of Mulliken charges =  -0.00000

 Dipole moment (field-independent basis, Debye):
    X=             -4.9309    Y=              2.0440    Z=              0.7912  Tot=              5.3960
 Quadrupole moment (field-independent basis, Debye-Ang):
   XX=            -65.6783   YY=            -93.2147   ZZ=            -95.1228
   XY=             -3.1475   XZ=             -3.7157   YZ=             -2.3439

 Normal termination of Gaussian 16 at Wed May  5 21:44:55 2021.
