 Gaussian 16, Revision A.03,
 Gaussian 16:  EM64L-G16RevA.03 25-Dec-2016

 -------------
 #p 6-31g* mp2
 -------------

 ------------------------------------------------------
 Input file generated by CHIRIPA (05-May-2021 14:57:22)
 ------------------------------------------------------
 Symbolic Z-matrix:
 Charge =  0 Multiplicity = 1

                         Standard orientation:
 ---------------------------------------------------------------------
 Center     Atomic      Atomic             Coordinates (Angstroms)
 Number     Number       Type             X           Y           Z
 ---------------------------------------------------------------------
      1          6           0        3.610424   -2.268685    0.424782
      2          6           0        4.426020   -1.324854    1.057637
      3          6           0        4.247604    0.041178    0.819580
      4          6           0        3.239455    0.429921   -0.061218
      5          6           0        2.410690   -0.486264   -0.707008
      6          6           0        2.607131   -1.847121   -0.453971
      7          1           0        3.756023   -3.327842    0.615529
      8          1           0        5.205981   -1.649353    1.740576
      9          1           0        4.864747    0.793194    1.296050
     10          1           0        1.641512   -0.132310   -1.382655
     11          1           0        1.972232   -2.577877   -0.946866
     12          7           0        3.041032    1.873339   -0.321168
     13          8           0        2.145823    2.190091   -1.101491
     14          8           0        3.784476    2.660606    0.260329
     15          6           0       -5.507860    0.710978    0.761433
     16          6           0       -5.297039    0.382320   -0.581720
     17          6           0       -4.062326   -0.118796   -1.004704
     18          6           0       -3.056017   -0.279328   -0.053460
     19          6           0       -3.235313    0.039010    1.291829
     20          6           0       -4.478140    0.538578    1.692279
     21          1           0       -6.470166    1.099656    1.081264
     22          1           0       -6.094918    0.515169   -1.306831
     23          1           0       -3.871980   -0.381273   -2.038286
     24          1           0       -2.420819   -0.104371    1.991443
     25          1           0       -4.639023    0.792975    2.736043
     26          7           0       -1.744587   -0.809017   -0.489327
     27          8           0       -0.874178   -0.941201    0.368316
     28          8           0       -1.611930   -1.081975   -1.680349
 ---------------------------------------------------------------------

 SCF Done:  E(RHF) =  -868.340383400     A.U. after   16 cycles
 E2 =    -0.2599292310D+01 EUMP2 =    -0.87093967570941D+03

 The electronic state is 1-A.
 Alpha  occ. eigenvalues --  -20.61359 -20.61353 -20.59716 -20.59704 -15.86351
 Alpha  occ. eigenvalues --  -15.84753 -11.31423 -11.29798 -11.27962 -11.27956
 Alpha  occ. eigenvalues --  -11.27666 -11.26919 -11.26908 -11.26467 -11.26194
 Alpha  occ. eigenvalues --  -11.26133 -11.25463 -11.25176  -1.60416  -1.58794
 Alpha  occ. eigenvalues --   -1.39971  -1.38354  -1.19572  -1.17973  -1.09029
 Alpha  occ. eigenvalues --   -1.07455  -1.04933  -1.03302  -0.95912  -0.94327
 Alpha  occ. eigenvalues --   -0.86347  -0.84751  -0.82754  -0.81152  -0.77832
 Alpha  occ. eigenvalues --   -0.76216  -0.72588  -0.71695  -0.70988  -0.70687
 Alpha  occ. eigenvalues --   -0.70108  -0.69128  -0.65232  -0.64943  -0.63632
 Alpha  occ. eigenvalues --   -0.63331  -0.62285  -0.60655  -0.55459  -0.53918
 Alpha  occ. eigenvalues --   -0.53272  -0.53027  -0.51711  -0.51406  -0.49367
 Alpha  occ. eigenvalues --   -0.49318  -0.47749  -0.47716  -0.45432  -0.43829
 Alpha  occ. eigenvalues --   -0.37536  -0.36518  -0.36007  -0.34822
 Alpha virt. eigenvalues --    0.04666   0.06292   0.11142   0.12762   0.16241
 Alpha virt. eigenvalues --    0.17814   0.21284   0.22779   0.27211   0.28145
 Alpha virt. eigenvalues --    0.28772   0.29608   0.30889   0.32267   0.32381

 Mulliken charges:
               1
     1  C   -0.172805
     2  C   -0.220153
     3  C   -0.173552
     4  C    0.153405
     5  C   -0.156946
     6  C   -0.212648
     7  H    0.220406
     8  H    0.217034
     9  H    0.269861
    10  H    0.282608
    11  H    0.229321
    12  N    0.488256
    13  O   -0.462065
    14  O   -0.466524
    15  C   -0.169565
    16  C   -0.218527
    17  C   -0.169574
    18  C    0.159346
    19  C   -0.169362
    20  C   -0.218449
    21  H    0.226904
    22  H    0.224555
    23  H    0.275814
    24  H    0.276156
    25  H    0.224720
    26  N    0.489614
    27  O   -0.462559
    28  O   -0.465271
 Sum of Mulliken charges =  -0.00000

 Dipole moment (field-independent basis, Debye):
    X=             -4.4977    Y=             -3.3023    Z=              2.3567  Tot=              6.0571
 Quadrupole moment (field-independent basis, Debye-Ang):
   XX=            -70.6979   YY=           -111.8572   ZZ=            -99.3369
   XY=            -20.2003   XZ=              2.3686   YZ=              1.4857

 Normal termination of Gaussian 16 at Fri May  7 00:11:48 2021.
