 Gaussian 16, Revision A.03,
 Gaussian 16:  EM64L-G16RevA.03 25-Dec-2016

 -------------
 #p 6-31g* mp2
 -------------

 ------------------------------------------------------
 Input file generated by CHIRIPA (05-May-2021 14:57:27)
 ------------------------------------------------------
 Symbolic Z-matrix:
 Charge =  0 Multiplicity = 1

                         Standard orientation:
 ---------------------------------------------------------------------
 Center     Atomic      Atomic             Coordinates (Angstroms)
 Number     Number       Type             X           Y           Z
 ---------------------------------------------------------------------
      1          6           0        2.788994   -2.270271    0.066578
      2          6           0        2.232344   -1.622219   -1.040982
      3          6           0        2.290168   -0.229782   -1.151989
      4          6           0        2.914985    0.486688   -0.132399
      5          6           0        3.478878   -0.129987    0.983409
      6          6           0        3.409391   -1.523404    1.073464
      7          1           0        2.739545   -3.352331    0.144674
      8          1           0        1.749916   -2.199689   -1.824460
      9          1           0        1.867424    0.297503   -1.998557
     10          1           0        3.953256    0.472613    1.748429
     11          1           0        3.842552   -2.024008    1.934749
     12          7           0        2.982374    1.961317   -0.238827
     13          8           0        3.538351    2.569775    0.672932
     14          8           0        2.477940    2.480751   -1.231989
     15          6           0       -1.064678   -1.970528    0.080771
     16          6           0       -1.325059   -1.248178    1.249930
     17          6           0       -2.341656   -0.288931    1.280310
     18          6           0       -3.081685   -0.076703    0.118154
     19          6           0       -2.846378   -0.780246   -1.062079
     20          6           0       -1.824828   -1.734672   -1.069474
     21          1           0       -0.273037   -2.713822    0.066099
     22          1           0       -0.736318   -1.429242    2.144719
     23          1           0       -2.564514    0.284541    2.171871
     24          1           0       -3.450151   -0.577571   -1.938320
     25          1           0       -1.624844   -2.294164   -1.978880
     26          7           0       -4.160532    0.936257    0.138149
     27          8           0       -4.798242    1.104503   -0.898990
     28          8           0       -4.347995    1.542789    1.190581
 ---------------------------------------------------------------------

 SCF Done:  E(RHF) =  -868.335424478     A.U. after   16 cycles
 E2 =    -0.2602537301D+01 EUMP2 =    -0.87093796177890D+03

 The electronic state is 1-A.
 Alpha  occ. eigenvalues --  -20.61292 -20.61282 -20.60819 -20.60811 -15.86351
 Alpha  occ. eigenvalues --  -15.85880 -11.31959 -11.31349 -11.28534 -11.28531
 Alpha  occ. eigenvalues --  -11.28402 -11.28002 -11.27955 -11.27776 -11.27693
 Alpha  occ. eigenvalues --  -11.27642 -11.27066 -11.26971  -1.60359  -1.59891
 Alpha  occ. eigenvalues --   -1.39905  -1.39442  -1.20173  -1.19569  -1.09555
 Alpha  occ. eigenvalues --   -1.08949  -1.05604  -1.04999  -0.96329  -0.95762
 Alpha  occ. eigenvalues --   -0.87012  -0.86401  -0.83146  -0.82596  -0.78137
 Alpha  occ. eigenvalues --   -0.77608  -0.72567  -0.72099  -0.71684  -0.71314
 Alpha  occ. eigenvalues --   -0.71214  -0.70733  -0.65826  -0.65646  -0.65225
 Alpha  occ. eigenvalues --   -0.65022  -0.62933  -0.62346  -0.56148  -0.55662
 Alpha  occ. eigenvalues --   -0.53996  -0.53705  -0.53149  -0.53104  -0.49344
 Alpha  occ. eigenvalues --   -0.49304  -0.48867  -0.48843  -0.45256  -0.44824
 Alpha  occ. eigenvalues --   -0.38351  -0.37837  -0.36727  -0.36596
 Alpha virt. eigenvalues --    0.04333   0.04955   0.10354   0.11016   0.15652
 Alpha virt. eigenvalues --    0.16509   0.19354   0.21855   0.25552   0.26469
 Alpha virt. eigenvalues --    0.27549   0.29128   0.29806   0.31215   0.32004

 Mulliken charges:
               1
     1  C   -0.179432
     2  C   -0.219170
     3  C   -0.165300
     4  C    0.159782
     5  C   -0.171170
     6  C   -0.219726
     7  H    0.223970
     8  H    0.219559
     9  H    0.278817
    10  H    0.278343
    11  H    0.225328
    12  N    0.487917
    13  O   -0.458284
    14  O   -0.456700
    15  C   -0.161808
    16  C   -0.219876
    17  C   -0.169072
    18  C    0.158808
    19  C   -0.168963
    20  C   -0.224133
    21  H    0.217462
    22  H    0.222483
    23  H    0.277425
    24  H    0.276474
    25  H    0.217644
    26  N    0.488387
    27  O   -0.459914
    28  O   -0.458851
 Sum of Mulliken charges =  -0.00000

 Dipole moment (field-independent basis, Debye):
    X=              3.6473    Y=             -8.4525    Z=              0.3549  Tot=              9.2127
 Quadrupole moment (field-independent basis, Debye-Ang):
   XX=           -129.0842   YY=           -110.9435   ZZ=            -96.6974
   XY=             -4.0855   XZ=              5.3470   YZ=              1.6279

 Normal termination of Gaussian 16 at Thu May  6 06:50:37 2021.
