 Gaussian 16, Revision A.03,
 Gaussian 16:  EM64L-G16RevA.03 25-Dec-2016

 -------------
 #p 6-31g* mp2
 -------------

 ------------------------------------------------------
 Input file generated by CHIRIPA (05-May-2021 14:57:22)
 ------------------------------------------------------
 Symbolic Z-matrix:
 Charge =  0 Multiplicity = 1

                         Standard orientation:
 ---------------------------------------------------------------------
 Center     Atomic      Atomic             Coordinates (Angstroms)
 Number     Number       Type             X           Y           Z
 ---------------------------------------------------------------------
      1          6           0        5.065323    1.187495    0.832589
      2          6           0        3.879464    1.832535    0.466278
      3          6           0        2.800843    1.101490   -0.040375
      4          6           0        2.943184   -0.279359   -0.167988
      5          6           0        4.111698   -0.950902    0.188234
      6          6           0        5.177458   -0.199719    0.692644
      7          1           0        5.898226    1.763210    1.225298
      8          1           0        3.789547    2.909746    0.573868
      9          1           0        1.871332    1.575381   -0.331674
     10          1           0        4.171493   -2.025954    0.069467
     11          1           0        6.097210   -0.703336    0.976317
     12          7           0        1.808104   -1.063943   -0.703171
     13          8           0        1.958699   -2.279431   -0.805876
     14          8           0        0.789326   -0.448556   -1.009810
     15          6           0       -2.932666    2.574222   -0.591239
     16          6           0       -3.469195    2.234364    0.655016
     17          6           0       -3.583452    0.894463    1.037325
     18          6           0       -3.149361   -0.084310    0.144655
     19          6           0       -2.610486    0.222467   -1.103860
     20          6           0       -2.505776    1.568961   -1.465160
     21          1           0       -2.847616    3.617651   -0.880065
     22          1           0       -3.801535    3.012954    1.335746
     23          1           0       -3.995006    0.603269    1.996098
     24          1           0       -2.287741   -0.575885   -1.761043
     25          1           0       -2.088701    1.829955   -2.433651
     26          7           0       -3.265266   -1.506293    0.538266
     27          8           0       -2.875616   -2.349839   -0.266246
     28          8           0       -3.743568   -1.750372    1.643839
 ---------------------------------------------------------------------

 SCF Done:  E(RHF) =  -868.337767840     A.U. after   16 cycles
 E2 =    -0.2599930573D+01 EUMP2 =    -0.87093769841313D+03

 The electronic state is 1-A.
 Alpha  occ. eigenvalues --  -20.60933 -20.60877 -20.59730 -20.59660 -15.85957
 Alpha  occ. eigenvalues --  -15.84752 -11.31330 -11.30140 -11.27929 -11.27873
 Alpha  occ. eigenvalues --  -11.27645 -11.26939 -11.26894 -11.26864 -11.26659
 Alpha  occ. eigenvalues --  -11.26644 -11.25905 -11.25763  -1.59967  -1.58772
 Alpha  occ. eigenvalues --   -1.39527  -1.38321  -1.19503  -1.18375  -1.08895
 Alpha  occ. eigenvalues --   -1.07792  -1.04910  -1.03780  -0.95732  -0.94601
 Alpha  occ. eigenvalues --   -0.86307  -0.85194  -0.82571  -0.81429  -0.77612
 Alpha  occ. eigenvalues --   -0.76436  -0.72197  -0.71287  -0.70979  -0.70613
 Alpha  occ. eigenvalues --   -0.70088  -0.69528  -0.65161  -0.64916  -0.64042
 Alpha  occ. eigenvalues --   -0.63818  -0.62260  -0.61113  -0.55409  -0.54375
 Alpha  occ. eigenvalues --   -0.53235  -0.53006  -0.52120  -0.51893  -0.48939
 Alpha  occ. eigenvalues --   -0.48903  -0.47757  -0.47711  -0.44934  -0.43717
 Alpha  occ. eigenvalues --   -0.37482  -0.36514  -0.36426  -0.35339
 Alpha virt. eigenvalues --    0.04922   0.06104   0.11142   0.12282   0.16422
 Alpha virt. eigenvalues --    0.17521   0.21259   0.22253   0.27158   0.28021
 Alpha virt. eigenvalues --    0.28307   0.29191   0.30813   0.31741   0.32377

 Mulliken charges:
               1
     1  C   -0.170680
     2  C   -0.218389
     3  C   -0.171038
     4  C    0.158609
     5  C   -0.170187
     6  C   -0.218449
     7  H    0.225806
     8  H    0.222043
     9  H    0.272841
    10  H    0.277430
    11  H    0.224437
    12  N    0.491446
    13  O   -0.453125
    14  O   -0.469673
    15  C   -0.173680
    16  C   -0.220916
    17  C   -0.172298
    18  C    0.154126
    19  C   -0.151024
    20  C   -0.221128
    21  H    0.219378
    22  H    0.217865
    23  H    0.272133
    24  H    0.285446
    25  H    0.221347
    26  N    0.488029
    27  O   -0.452928
    28  O   -0.467423
 Sum of Mulliken charges =  -0.00000

 Dipole moment (field-independent basis, Debye):
    X=              4.7114    Y=              7.4226    Z=              0.3276  Tot=              8.7977
 Quadrupole moment (field-independent basis, Debye-Ang):
   XX=            -83.4362   YY=           -104.4732   ZZ=           -103.1220
   XY=            -11.5723   XZ=              8.3764   YZ=              0.9923

 Normal termination of Gaussian 16 at Thu May  6 19:31:23 2021.
