 Gaussian 16, Revision A.03,
 Gaussian 16:  EM64L-G16RevA.03 25-Dec-2016

 -------------
 #p 6-31g* mp2
 -------------

 ------------------------------------------------------
 Input file generated by CHIRIPA (05-May-2021 14:55:22)
 ------------------------------------------------------
 Symbolic Z-matrix:
 Charge =  0 Multiplicity = 1

                         Standard orientation:
 ---------------------------------------------------------------------
 Center     Atomic      Atomic             Coordinates (Angstroms)
 Number     Number       Type             X           Y           Z
 ---------------------------------------------------------------------
      1          6           0       -2.381565   -2.755364    0.395076
      2          6           0       -1.333616   -1.869382    0.665926
      3          6           0       -1.493944   -0.495889    0.460114
      4          6           0       -2.721132   -0.040777   -0.019649
      5          6           0       -3.784121   -0.898320   -0.298868
      6          6           0       -3.601323   -2.267865   -0.085609
      7          1           0       -2.248291   -3.820793    0.557849
      8          1           0       -0.385235   -2.245151    1.039310
      9          1           0       -0.699326    0.212229    0.661533
     10          1           0       -4.717903   -0.493918   -0.670254
     11          1           0       -4.416921   -2.953602   -0.296820
     12          7           0       -2.902758    1.411189   -0.241475
     13          8           0       -3.993715    1.786970   -0.664840
     14          8           0       -1.950720    2.145967    0.012224
     15          6           0        3.565956   -0.362844    0.198352
     16          6           0        4.501745   -1.132194   -0.734592
     17          6           0        4.734513   -2.573742   -0.281214
     18          1           0        3.986366   -0.366156    1.213335
     19          1           0        2.603472   -0.889707    0.256976
     20          1           0        5.461705   -0.603293   -0.792524
     21          1           0        4.079153   -1.126887   -1.747512
     22          1           0        3.788050   -3.122560   -0.241118
     23          1           0        5.178457   -2.595991    0.719296
     24          1           0        5.406324   -3.105308   -0.962365
     25          6           0        3.323511    1.079844   -0.241644
     26          6           0        2.387722    1.849194    0.691300
     27          6           0        2.154954    3.290742    0.237921
     28          1           0        4.285995    1.606707   -0.300269
     29          1           0        2.903101    1.083156   -1.256627
     30          1           0        2.810314    1.843887    1.704219
     31          1           0        1.427762    1.320293    0.749232
     32          1           0        1.711010    3.312992   -0.762588
     33          1           0        3.101417    3.839560    0.197825
     34          1           0        1.483142    3.822308    0.919072
 ---------------------------------------------------------------------

 SCF Done:  E(RHF) =  -669.535592359     A.U. after   15 cycles
 E2 =    -0.2091728993D+01 EUMP2 =    -0.67162732135196D+03

 The electronic state is 1-A.
 Alpha  occ. eigenvalues --  -20.60790 -20.60785 -15.85840 -11.31201 -11.27773
 Alpha  occ. eigenvalues --  -11.27761 -11.27517 -11.26790 -11.26779 -11.21916
 Alpha  occ. eigenvalues --  -11.21758 -11.21632 -11.21477 -11.21460 -11.20621
 Alpha  occ. eigenvalues --   -1.59864  -1.39418  -1.19376  -1.08772  -1.08625
 Alpha  occ. eigenvalues --   -1.04780  -1.03624  -0.96050  -0.95608  -0.87063
 Alpha  occ. eigenvalues --   -0.86180  -0.82439  -0.79721  -0.78452  -0.77483
 Alpha  occ. eigenvalues --   -0.72060  -0.71186  -0.70494  -0.65279  -0.65029
 Alpha  occ. eigenvalues --   -0.64781  -0.62153  -0.60997  -0.59445  -0.57660
 Alpha  occ. eigenvalues --   -0.55349  -0.55277  -0.53109  -0.52891  -0.52699
 Alpha  occ. eigenvalues --   -0.52470  -0.49989  -0.48820  -0.48815  -0.48015
 Alpha  occ. eigenvalues --   -0.46767  -0.45979  -0.45889  -0.44823  -0.43890
 Alpha  occ. eigenvalues --   -0.37358  -0.36382
 Alpha virt. eigenvalues --    0.05040   0.11266   0.16521   0.19275   0.22988
 Alpha virt. eigenvalues --    0.23682   0.24842   0.26966   0.27394   0.28081
 Alpha virt. eigenvalues --    0.29135   0.30574   0.31528   0.31598   0.32334

 Mulliken charges:
               1
     1  C   -0.170403
     2  C   -0.224975
     3  C   -0.181473
     4  C    0.156550
     5  C   -0.169576
     6  C   -0.219145
     7  H    0.225843
     8  H    0.224999
     9  H    0.294038
    10  H    0.275719
    11  H    0.223543
    12  N    0.486226
    13  O   -0.460094
    14  O   -0.461519
    15  C   -0.296308
    16  C   -0.299841
    17  C   -0.475118
    18  H    0.150277
    19  H    0.138346
    20  H    0.154359
    21  H    0.153309
    22  H    0.150471
    23  H    0.155589
    24  H    0.161874
    25  C   -0.298681
    26  C   -0.305534
    27  C   -0.473492
    28  H    0.151550
    29  H    0.152029
    30  H    0.151056
    31  H    0.148937
    32  H    0.161602
    33  H    0.151749
    34  H    0.168090
 Sum of Mulliken charges =  -0.00000

 Dipole moment (field-independent basis, Debye):
    X=              0.6721    Y=             -4.9635    Z=              0.7303  Tot=              5.0617
 Quadrupole moment (field-independent basis, Debye-Ang):
   XX=            -93.1055   YY=            -95.3997   ZZ=            -94.8538
   XY=             15.7072   XZ=             -0.2154   YZ=              0.7155

 Normal termination of Gaussian 16 at Thu May  6 04:39:25 2021.
