 Gaussian 16, Revision A.03,
 Gaussian 16:  EM64L-G16RevA.03 25-Dec-2016

 -------------
 #p 6-31g* mp2
 -------------

 ------------------------------------------------------
 Input file generated by CHIRIPA (05-May-2021 14:55:25)
 ------------------------------------------------------
 Symbolic Z-matrix:
 Charge =  0 Multiplicity = 1

                         Standard orientation:
 ---------------------------------------------------------------------
 Center     Atomic      Atomic             Coordinates (Angstroms)
 Number     Number       Type             X           Y           Z
 ---------------------------------------------------------------------
      1          6           0        0.746466    0.567899    0.640001
      2          6           0        1.774628    0.786181    1.562908
      3          6           0        3.088186    0.412269    1.264069
      4          6           0        3.339032   -0.180161    0.027383
      5          6           0        2.336226   -0.410863   -0.913068
      6          6           0        1.030047   -0.028874   -0.592868
      7          1           0       -0.271071    0.861499    0.880443
      8          1           0        1.557327    1.249444    2.521142
      9          1           0        3.903194    0.569590    1.960079
     10          1           0        2.583729   -0.874761   -1.860147
     11          1           0        0.233558   -0.199618   -1.311546
     12          7           0        4.725731   -0.580280   -0.300291
     13          8           0        4.920650   -1.100444   -1.396682
     14          8           0        5.591449   -0.366154    0.545474
     15          6           0       -4.373068   -0.455531   -0.364886
     16          6           0       -4.638487   -1.515784    0.704412
     17          6           0       -5.422948   -2.713368    0.167560
     18          1           0       -5.331545   -0.112491   -0.777913
     19          1           0       -3.820447   -0.913963   -1.196659
     20          1           0       -5.189236   -1.055160    1.534543
     21          1           0       -3.679276   -1.856202    1.115076
     22          1           0       -4.875211   -3.199076   -0.646487
     23          1           0       -6.393751   -2.393483   -0.224637
     24          1           0       -5.601566   -3.459028    0.948550
     25          6           0       -3.589778    0.747926    0.156533
     26          6           0       -3.324358    1.808180   -0.912765
     27          6           0       -2.539898    3.005763   -0.375913
     28          1           0       -4.142399    1.206358    0.988305
     29          1           0       -2.631301    0.404886    0.569560
     30          1           0       -4.283571    2.148597   -1.323429
     31          1           0       -2.773610    1.347556   -1.742896
     32          1           0       -1.569096    2.685879    0.016284
     33          1           0       -3.087636    3.491472    0.438134
     34          1           0       -2.361280    3.751423   -1.156903
 ---------------------------------------------------------------------

 SCF Done:  E(RHF) =  -669.535005050     A.U. after   15 cycles
 E2 =    -0.2092147051D+01 EUMP2 =    -0.67162715210029D+03

 The electronic state is 1-A.
 Alpha  occ. eigenvalues --  -20.60760 -20.60755 -15.85814 -11.31188 -11.27753
 Alpha  occ. eigenvalues --  -11.27746 -11.27455 -11.26776 -11.26759 -11.22722
 Alpha  occ. eigenvalues --  -11.22586 -11.22384 -11.22302 -11.22183 -11.21691
 Alpha  occ. eigenvalues --   -1.59836  -1.39389  -1.19357  -1.09456  -1.08750
 Alpha  occ. eigenvalues --   -1.04760  -1.04472  -0.96922  -0.95588  -0.87933
 Alpha  occ. eigenvalues --   -0.86156  -0.82426  -0.80543  -0.79261  -0.77463
 Alpha  occ. eigenvalues --   -0.72032  -0.71159  -0.70522  -0.66105  -0.65005
 Alpha  occ. eigenvalues --   -0.64753  -0.62116  -0.61859  -0.60297  -0.58528
 Alpha  occ. eigenvalues --   -0.56250  -0.55287  -0.53571  -0.53356  -0.53070
 Alpha  occ. eigenvalues --   -0.52851  -0.50878  -0.48850  -0.48787  -0.48780
 Alpha  occ. eigenvalues --   -0.47570  -0.46772  -0.46698  -0.44793  -0.44738
 Alpha  occ. eigenvalues --   -0.37326  -0.36364
 Alpha virt. eigenvalues --    0.05032   0.11280   0.16419   0.18443   0.22654
 Alpha virt. eigenvalues --    0.23904   0.25072   0.25331   0.26959   0.27965
 Alpha virt. eigenvalues --    0.29433   0.30040   0.30910   0.31440   0.31683

 Mulliken charges:
               1
     1  C   -0.178012
     2  C   -0.220264
     3  C   -0.170654
     4  C    0.158632
     5  C   -0.170832
     6  C   -0.222207
     7  H    0.237384
     8  H    0.224239
     9  H    0.275585
    10  H    0.275601
    11  H    0.223352
    12  N    0.487973
    13  O   -0.460444
    14  O   -0.460328
    15  C   -0.297841
    16  C   -0.300514
    17  C   -0.476244
    18  H    0.153607
    19  H    0.148463
    20  H    0.153459
    21  H    0.151344
    22  H    0.156000
    23  H    0.156712
    24  H    0.162808
    25  C   -0.303500
    26  C   -0.301528
    27  C   -0.478967
    28  H    0.153951
    29  H    0.141328
    30  H    0.158069
    31  H    0.149425
    32  H    0.148244
    33  H    0.158637
    34  H    0.166524
 Sum of Mulliken charges =  -0.00000

 Dipole moment (field-independent basis, Debye):
    X=             -5.1241    Y=              1.4270    Z=              1.1327  Tot=              5.4384
 Quadrupole moment (field-independent basis, Debye-Ang):
   XX=           -125.8791   YY=            -95.7034   ZZ=            -90.8313
   XY=              5.1970   XZ=              5.0847   YZ=              1.3943

 Normal termination of Gaussian 16 at Thu May  6 09:32:25 2021.
