 Gaussian 16, Revision A.03,
 Gaussian 16:  EM64L-G16RevA.03 25-Dec-2016

 -------------
 #p 6-31g* mp2
 -------------

 ------------------------------------------------------
 Input file generated by CHIRIPA (05-May-2021 14:55:25)
 ------------------------------------------------------
 Symbolic Z-matrix:
 Charge =  0 Multiplicity = 1

                         Standard orientation:
 ---------------------------------------------------------------------
 Center     Atomic      Atomic             Coordinates (Angstroms)
 Number     Number       Type             X           Y           Z
 ---------------------------------------------------------------------
      1          6           0       -1.278897    0.995707    2.361069
      2          6           0       -2.236275    1.466740    1.456594
      3          6           0       -2.602544    0.699546    0.346726
      4          6           0       -1.988581   -0.539624    0.171230
      5          6           0       -1.031445   -1.036374    1.054644
      6          6           0       -0.680592   -0.252147    2.157566
      7          1           0       -1.000358    1.598297    3.220544
      8          1           0       -2.702578    2.435461    1.612117
      9          1           0       -3.340824    1.039984   -0.369139
     10          1           0       -0.584015   -2.006037    0.873046
     11          1           0        0.063224   -0.620496    2.858353
     12          7           0       -2.368173   -1.360834   -1.000062
     13          8           0       -1.812578   -2.449171   -1.132246
     14          8           0       -3.214106   -0.900612   -1.763757
     15          6           0        1.753596    0.773637   -0.572497
     16          6           0        1.698206    2.181042   -1.167584
     17          6           0        0.267640    2.679620   -1.374207
     18          1           0        1.214416    0.081413   -1.233601
     19          1           0        1.220005    0.767966    0.388045
     20          1           0        2.232932    2.184381   -2.126059
     21          1           0        2.237744    2.869960   -0.505084
     22          1           0       -0.272754    2.704923   -0.422401
     23          1           0       -0.277593    2.015448   -2.052586
     24          1           0        0.251400    3.687544   -1.800453
     25          6           0        3.177013    0.261316   -0.360040
     26          6           0        3.232403   -1.146090    0.235046
     27          6           0        4.662970   -1.644668    0.441670
     28          1           0        3.710606    0.266987   -1.320584
     29          1           0        3.716193    0.953539    0.301063
     30          1           0        2.692866   -1.835008   -0.427453
     31          1           0        2.697677   -1.149429    1.193521
     32          1           0        5.208203   -0.980496    1.120048
     33          1           0        5.203364   -1.669970   -0.510136
     34          1           0        4.679210   -2.652591    0.867916
 ---------------------------------------------------------------------

 SCF Done:  E(RHF) =  -669.533635524     A.U. after   15 cycles
 E2 =    -0.2096392454D+01 EUMP2 =    -0.67163002797798D+03

 The electronic state is 1-A.
 Alpha  occ. eigenvalues --  -20.60836 -20.60831 -15.85887 -11.31242 -11.27848
 Alpha  occ. eigenvalues --  -11.27815 -11.27603 -11.26854 -11.26819 -11.21898
 Alpha  occ. eigenvalues --  -11.21613 -11.21505 -11.21297 -11.21248 -11.21020
 Alpha  occ. eigenvalues --   -1.59910  -1.39463  -1.19458  -1.08853  -1.08525
 Alpha  occ. eigenvalues --   -1.04867  -1.03650  -0.96079  -0.95674  -0.87104
 Alpha  occ. eigenvalues --   -0.86255  -0.82508  -0.79739  -0.78370  -0.77537
 Alpha  occ. eigenvalues --   -0.72107  -0.71231  -0.70557  -0.65203  -0.65097
 Alpha  occ. eigenvalues --   -0.64844  -0.62200  -0.61067  -0.59470  -0.57718
 Alpha  occ. eigenvalues --   -0.55380  -0.55359  -0.53378  -0.52943  -0.52766
 Alpha  occ. eigenvalues --   -0.52544  -0.50044  -0.48866  -0.48860  -0.48002
 Alpha  occ. eigenvalues --   -0.46776  -0.45846  -0.45683  -0.44861  -0.43878
 Alpha  occ. eigenvalues --   -0.37409  -0.36288
 Alpha virt. eigenvalues --    0.04973   0.11043   0.16345   0.20587   0.22995
 Alpha virt. eigenvalues --    0.23859   0.25896   0.26280   0.27655   0.28259
 Alpha virt. eigenvalues --    0.28984   0.30378   0.31059   0.31748   0.32131

 Mulliken charges:
               1
     1  C   -0.170130
     2  C   -0.220214
     3  C   -0.166441
     4  C    0.160706
     5  C   -0.164882
     6  C   -0.223505
     7  H    0.226240
     8  H    0.224529
     9  H    0.276500
    10  H    0.276925
    11  H    0.224497
    12  N    0.487468
    13  O   -0.460456
    14  O   -0.460253
    15  C   -0.307163
    16  C   -0.298339
    17  C   -0.481056
    18  H    0.151363
    19  H    0.156652
    20  H    0.153055
    21  H    0.148050
    22  H    0.155092
    23  H    0.157918
    24  H    0.157973
    25  C   -0.297223
    26  C   -0.300522
    27  C   -0.475480
    28  H    0.151632
    29  H    0.146897
    30  H    0.157380
    31  H    0.140530
    32  H    0.154006
    33  H    0.158150
    34  H    0.160101
 Sum of Mulliken charges =  -0.00000

 Dipole moment (field-independent basis, Debye):
    X=              1.2122    Y=              2.8067    Z=              4.1159  Tot=              5.1272
 Quadrupole moment (field-independent basis, Debye-Ang):
   XX=            -99.4284   YY=            -96.1290   ZZ=            -92.6955
   XY=             -8.8917   XZ=             -7.3907   YZ=             -2.2085

 Normal termination of Gaussian 16 at Thu May  6 09:32:13 2021.
