 Gaussian 16, Revision A.03,
 Gaussian 16:  EM64L-G16RevA.03 25-Dec-2016

 -------------
 #p 6-31g* mp2
 -------------

 ------------------------------------------------------
 Input file generated by CHIRIPA (05-May-2021 14:55:18)
 ------------------------------------------------------
 Symbolic Z-matrix:
 Charge =  0 Multiplicity = 1

                         Standard orientation:
 ---------------------------------------------------------------------
 Center     Atomic      Atomic             Coordinates (Angstroms)
 Number     Number       Type             X           Y           Z
 ---------------------------------------------------------------------
      1          6           0       -5.382589   -0.102149    0.578193
      2          6           0       -4.697221   -1.302804    0.790840
      3          6           0       -3.366835   -1.442506    0.384509
      4          6           0       -2.749794   -0.356367   -0.234243
      5          6           0       -3.405857    0.852700   -0.460136
      6          6           0       -4.735859    0.969881   -0.045517
      7          1           0       -6.415916   -0.002372    0.897060
      8          1           0       -5.196954   -2.137026    1.274974
      9          1           0       -2.812611   -2.360697    0.536756
     10          1           0       -2.881082    1.666704   -0.945343
     11          1           0       -5.265648    1.903512   -0.211959
     12          7           0       -1.341577   -0.492343   -0.668794
     13          8           0       -0.820433    0.479396   -1.211721
     14          8           0       -0.785624   -1.568085   -0.458241
     15          6           0        3.317077    0.830236    0.622248
     16          6           0        2.472041    1.791631   -0.214184
     17          6           0        1.477029    2.590283    0.628372
     18          1           0        2.652191    0.139989    1.159305
     19          1           0        3.859442    1.401410    1.388406
     20          1           0        1.932501    1.218983   -0.979421
     21          1           0        3.139024    2.479547   -0.749461
     22          1           0        2.001685    3.186251    1.382135
     23          1           0        0.788307    1.918525    1.150869
     24          1           0        0.883401    3.271188    0.010444
     25          6           0        4.316549    0.024694   -0.205933
     26          6           0        5.161584   -0.936701    0.630500
     27          6           0        6.156596   -1.735352   -0.212056
     28          1           0        3.774184   -0.546480   -0.972090
     29          1           0        4.981435    0.714941   -0.742990
     30          1           0        4.494602   -1.624617    1.165777
     31          1           0        5.701125   -0.364053    1.395736
     32          1           0        6.845319   -1.063595   -0.734553
     33          1           0        5.631941   -2.331321   -0.965819
     34          1           0        6.750224   -2.416257    0.405872
 ---------------------------------------------------------------------

 SCF Done:  E(RHF) =  -669.536436180     A.U. after   15 cycles
 E2 =    -0.2091632517D+01 EUMP2 =    -0.67162806869711D+03

 The electronic state is 1-A.
 Alpha  occ. eigenvalues --  -20.61072 -20.61035 -15.86066 -11.31343 -11.27901
 Alpha  occ. eigenvalues --  -11.27893 -11.27630 -11.26896 -11.26886 -11.20638
 Alpha  occ. eigenvalues --  -11.20251 -11.20204 -11.20072 -11.19962 -11.19818
 Alpha  occ. eigenvalues --   -1.60106  -1.39662  -1.19506  -1.08921  -1.07193
 Alpha  occ. eigenvalues --   -1.04894  -1.02328  -0.95771  -0.94831  -0.86297
 Alpha  occ. eigenvalues --   -0.85862  -0.82604  -0.78417  -0.77663  -0.76984
 Alpha  occ. eigenvalues --   -0.72295  -0.71417  -0.70615  -0.65164  -0.64899
 Alpha  occ. eigenvalues --   -0.63800  -0.62241  -0.59702  -0.58218  -0.56432
 Alpha  occ. eigenvalues --   -0.55402  -0.54126  -0.53226  -0.52985  -0.51563
 Alpha  occ. eigenvalues --   -0.51270  -0.49119  -0.49043  -0.48755  -0.46739
 Alpha  occ. eigenvalues --   -0.45403  -0.45062  -0.44554  -0.44345  -0.42594
 Alpha  occ. eigenvalues --   -0.37483  -0.36492
 Alpha virt. eigenvalues --    0.04848   0.11162   0.16341   0.21275   0.24089
 Alpha virt. eigenvalues --    0.25373   0.27210   0.27804   0.28193   0.28797
 Alpha virt. eigenvalues --    0.29038   0.30925   0.32265   0.32478   0.32945

 Mulliken charges:
               1
     1  C   -0.170403
     2  C   -0.218611
     3  C   -0.170623
     4  C    0.157579
     5  C   -0.170345
     6  C   -0.218560
     7  H    0.226214
     8  H    0.223973
     9  H    0.275808
    10  H    0.276255
    11  H    0.224115
    12  N    0.489002
    13  O   -0.458875
    14  O   -0.459682
    15  C   -0.297351
    16  C   -0.307250
    17  C   -0.468014
    18  H    0.152212
    19  H    0.142198
    20  H    0.179893
    21  H    0.143137
    22  H    0.145743
    23  H    0.151261
    24  H    0.156088
    25  C   -0.298747
    26  C   -0.298937
    27  C   -0.475257
    28  H    0.156460
    29  H    0.145559
    30  H    0.152663
    31  H    0.148349
    32  H    0.153089
    33  H    0.156239
    34  H    0.156820
 Sum of Mulliken charges =  -0.00000

 Dipole moment (field-independent basis, Debye):
    X=             -5.3284    Y=              0.3308    Z=              1.3689  Tot=              5.5114
 Quadrupole moment (field-independent basis, Debye-Ang):
   XX=            -69.3560   YY=            -91.2922   ZZ=            -96.0000
   XY=              1.0061   XZ=             -3.1212   YZ=             -3.0446

 Normal termination of Gaussian 16 at Thu May  6 15:41:36 2021.
