 Gaussian 16, Revision A.03,
 Gaussian 16:  EM64L-G16RevA.03 25-Dec-2016

 -------------
 #p 6-31g* mp2
 -------------

 ------------------------------------------------------
 Input file generated by CHIRIPA (05-May-2021 14:53:17)
 ------------------------------------------------------
 Symbolic Z-matrix:
 Charge =  0 Multiplicity = 1

                         Standard orientation:
 ---------------------------------------------------------------------
 Center     Atomic      Atomic             Coordinates (Angstroms)
 Number     Number       Type             X           Y           Z
 ---------------------------------------------------------------------
      1          6           0        2.917551    1.000121   -0.495521
      2          6           0        1.506253    1.587740   -0.525947
      3          6           0        1.455580    2.970603   -1.176267
      4          1           0        3.582052    1.686537    0.046897
      5          1           0        3.303462    0.937761   -1.522448
      6          1           0        1.122587    1.647687    0.500612
      7          1           0        0.844994    0.899753   -1.068190
      8          1           0        1.813163    2.923534   -2.209959
      9          1           0        2.092334    3.675716   -0.632244
     10          1           0        0.437408    3.371926   -1.187438
     11          6           0        2.984454   -0.382078    0.151611
     12          6           0        4.395752   -0.969697    0.182037
     13          6           0        4.446426   -2.352560    0.832357
     14          1           0        2.598544   -0.319718    1.178538
     15          1           0        2.319954   -1.068495   -0.390807
     16          1           0        5.057011   -0.281711    0.724280
     17          1           0        4.779418   -1.029644   -0.844522
     18          1           0        3.809672   -3.057674    0.288334
     19          1           0        4.088842   -2.305491    1.866049
     20          1           0        5.464598   -2.753884    0.843528
     21          6           0       -2.028670    1.738563    1.673483
     22          6           0       -2.195253    0.455905    2.205987
     23          6           0       -2.349514   -0.648442    1.362679
     24          6           0       -2.332230   -0.432841   -0.014459
     25          6           0       -2.168159    0.832756   -0.575381
     26          6           0       -2.015678    1.922570    0.286942
     27          1           0       -1.909528    2.590801    2.335970
     28          1           0       -2.205744    0.310017    3.282393
     29          1           0       -2.480152   -1.652327    1.748122
     30          1           0       -2.161929    0.946735   -1.652595
     31          1           0       -1.886483    2.917558   -0.129416
     32          7           0       -2.494598   -1.594271   -0.917297
     33          8           0       -2.475802   -1.377773   -2.127013
     34          8           0       -2.637583   -2.699105   -0.398131
 ---------------------------------------------------------------------

 SCF Done:  E(RHF) =  -669.534575668     A.U. after   15 cycles
 E2 =    -0.2093692421D+01 EUMP2 =    -0.67162826808915D+03

 The electronic state is 1-A.
 Alpha  occ. eigenvalues --  -20.60803 -20.60797 -15.85856 -11.31217 -11.27779
 Alpha  occ. eigenvalues --  -11.27767 -11.27526 -11.26809 -11.26778 -11.21777
 Alpha  occ. eigenvalues --  -11.21611 -11.21578 -11.21509 -11.21411 -11.21029
 Alpha  occ. eigenvalues --   -1.59879  -1.39432  -1.19393  -1.08794  -1.08543
 Alpha  occ. eigenvalues --   -1.04805  -1.03681  -0.96159  -0.95624  -0.87174
 Alpha  occ. eigenvalues --   -0.86196  -0.82458  -0.79747  -0.78344  -0.77503
 Alpha  occ. eigenvalues --   -0.72074  -0.71202  -0.70503  -0.65184  -0.65043
 Alpha  occ. eigenvalues --   -0.64815  -0.62177  -0.61079  -0.59572  -0.57787
 Alpha  occ. eigenvalues --   -0.55435  -0.55298  -0.53159  -0.53034  -0.52736
 Alpha  occ. eigenvalues --   -0.52516  -0.50082  -0.48833  -0.48829  -0.48036
 Alpha  occ. eigenvalues --   -0.46773  -0.45871  -0.45804  -0.44836  -0.43940
 Alpha  occ. eigenvalues --   -0.37346  -0.36310
 Alpha virt. eigenvalues --    0.05011   0.11163   0.16426   0.20400   0.22886
 Alpha virt. eigenvalues --    0.24062   0.26194   0.26528   0.27261   0.28194
 Alpha virt. eigenvalues --    0.28713   0.29745   0.31253   0.31774   0.32131

 Mulliken charges:
               1
     1  C   -0.298841
     2  C   -0.300525
     3  C   -0.476573
     4  H    0.147830
     5  H    0.150924
     6  H    0.151388
     7  H    0.155136
     8  H    0.159053
     9  H    0.155645
    10  H    0.147780
    11  C   -0.298614
    12  C   -0.299742
    13  C   -0.476071
    14  H    0.147286
    15  H    0.153560
    16  H    0.150549
    17  H    0.153149
    18  H    0.158358
    19  H    0.153636
    20  H    0.160343
    21  C   -0.172560
    22  C   -0.218397
    23  C   -0.170758
    24  C    0.159009
    25  C   -0.170656
    26  C   -0.213087
    27  H    0.225805
    28  H    0.223506
    29  H    0.275692
    30  H    0.275605
    31  H    0.224683
    32  N    0.487952
    33  O   -0.460858
    34  O   -0.460204
 Sum of Mulliken charges =  -0.00000

 Dipole moment (field-independent basis, Debye):
    X=              0.5579    Y=              4.0054    Z=              3.1851  Tot=              5.1478
 Quadrupole moment (field-independent basis, Debye-Ang):
   XX=            -98.2677   YY=            -97.9699   ZZ=            -91.3034
   XY=             -9.5121   XZ=             -7.9457   YZ=             -3.2156

 Normal termination of Gaussian 16 at Thu May  6 18:55:45 2021.
