 Gaussian 16, Revision A.03,
 Gaussian 16:  EM64L-G16RevA.03 25-Dec-2016

 -------------
 #p 6-31g* mp2
 -------------

 ------------------------------------------------------
 Input file generated by CHIRIPA (05-May-2021 14:57:23)
 ------------------------------------------------------
 Symbolic Z-matrix:
 Charge =  0 Multiplicity = 1

                         Standard orientation:
 ---------------------------------------------------------------------
 Center     Atomic      Atomic             Coordinates (Angstroms)
 Number     Number       Type             X           Y           Z
 ---------------------------------------------------------------------
      1          6           0        1.914006    2.764380    0.292784
      2          6           0        1.724907    1.976126    1.432705
      3          6           0        1.934615    0.594768    1.383514
      4          6           0        2.334868    0.032222    0.172470
      5          6           0        2.531610    0.790828   -0.980396
      6          6           0        2.316045    2.170262   -0.908011
      7          1           0        1.748825    3.836705    0.340006
      8          1           0        1.412707    2.434808    2.366615
      9          1           0        1.795579   -0.039076    2.250884
     10          1           0        2.843128    0.304950   -1.897074
     11          1           0        2.463672    2.779956   -1.794873
     12          7           0        2.559977   -1.429142    0.108116
     13          8           0        2.912346   -1.900566   -0.970880
     14          8           0        2.379785   -2.075464    1.137891
     15          6           0       -1.529645   -2.676290   -0.204377
     16          6           0       -0.943059   -1.746229   -1.068914
     17          6           0       -1.360740   -0.412033   -1.065737
     18          6           0       -2.372026   -0.040738   -0.181017
     19          6           0       -2.975974   -0.943881    0.692408
     20          6           0       -2.542445   -2.272859    0.671979
     21          1           0       -1.199025   -3.710700   -0.213545
     22          1           0       -0.156301   -2.056704   -1.750575
     23          1           0       -0.923846    0.328725   -1.724387
     24          1           0       -3.758101   -0.604511    1.360632
     25          1           0       -2.999800   -2.992984    1.344506
     26          7           0       -2.822595    1.368954   -0.168522
     27          8           0       -3.715358    1.670843    0.620449
     28          8           0       -2.274458    2.145289   -0.947936
 ---------------------------------------------------------------------

 SCF Done:  E(RHF) =  -868.340536259     A.U. after   16 cycles
 E2 =    -0.2601547975D+01 EUMP2 =    -0.87094208423414D+03

 The electronic state is 1-A.
 Alpha  occ. eigenvalues --  -20.61348 -20.61301 -20.60819 -20.60808 -15.86341
 Alpha  occ. eigenvalues --  -15.85861 -11.31399 -11.30978 -11.27961 -11.27899
 Alpha  occ. eigenvalues --  -11.27556 -11.27528 -11.27527 -11.27129 -11.26861
 Alpha  occ. eigenvalues --  -11.26812 -11.26456 -11.26344  -1.60396  -1.59898
 Alpha  occ. eigenvalues --   -1.39959  -1.39457  -1.19535  -1.19125  -1.08960
 Alpha  occ. eigenvalues --   -1.08535  -1.04895  -1.04497  -0.95855  -0.95419
 Alpha  occ. eigenvalues --   -0.86290  -0.85881  -0.82708  -0.82269  -0.77812
 Alpha  occ. eigenvalues --   -0.77369  -0.72575  -0.72089  -0.71720  -0.71217
 Alpha  occ. eigenvalues --   -0.70594  -0.70174  -0.65178  -0.64871  -0.64762
 Alpha  occ. eigenvalues --   -0.64447  -0.62252  -0.61840  -0.55336  -0.54917
 Alpha  occ. eigenvalues --   -0.53375  -0.52967  -0.52720  -0.52518  -0.49353
 Alpha  occ. eigenvalues --   -0.49306  -0.48853  -0.48819  -0.45427  -0.44919
 Alpha  occ. eigenvalues --   -0.37522  -0.37047  -0.36491  -0.36007
 Alpha virt. eigenvalues --    0.04626   0.05198   0.11149   0.11541   0.16267
 Alpha virt. eigenvalues --    0.16715   0.21329   0.21920   0.27119   0.27637
 Alpha virt. eigenvalues --    0.28450   0.28698   0.30876   0.31561   0.32407

 Mulliken charges:
               1
     1  C   -0.163712
     2  C   -0.218818
     3  C   -0.170401
     4  C    0.159700
     5  C   -0.180059
     6  C   -0.217080
     7  H    0.231728
     8  H    0.226840
     9  H    0.274933
    10  H    0.272383
    11  H    0.226104
    12  N    0.488836
    13  O   -0.467825
    14  O   -0.459308
    15  C   -0.164640
    16  C   -0.231635
    17  C   -0.170488
    18  C    0.156343
    19  C   -0.172588
    20  C   -0.219497
    21  H    0.233190
    22  H    0.235903
    23  H    0.272043
    24  H    0.273450
    25  H    0.223550
    26  N    0.488184
    27  O   -0.462402
    28  O   -0.464733
 Sum of Mulliken charges =  -0.00000

 Dipole moment (field-independent basis, Debye):
    X=              0.8834    Y=              0.2271    Z=              0.3018  Tot=              0.9607
 Quadrupole moment (field-independent basis, Debye-Ang):
   XX=           -115.4901   YY=           -103.8740   ZZ=            -97.9037
   XY=             25.6033   XZ=             -3.7165   YZ=              0.5674

 Normal termination of Gaussian 16 at Thu May  6 19:37:46 2021.
