 Gaussian 16, Revision A.03,
 Gaussian 16:  EM64L-G16RevA.03 25-Dec-2016

 -------------
 #p 6-31g* mp2
 -------------

 ------------------------------------------------------
 Input file generated by CHIRIPA (05-May-2021 14:55:20)
 ------------------------------------------------------
 Symbolic Z-matrix:
 Charge =  0 Multiplicity = 1

                         Standard orientation:
 ---------------------------------------------------------------------
 Center     Atomic      Atomic             Coordinates (Angstroms)
 Number     Number       Type             X           Y           Z
 ---------------------------------------------------------------------
      1          6           0       -0.874672   -0.842296    2.084535
      2          6           0       -0.755798    0.427949    1.511065
      3          6           0       -1.622360    0.830057    0.490317
      4          6           0       -2.600715   -0.067491    0.065441
      5          6           0       -2.744432   -1.339700    0.616911
      6          6           0       -1.866860   -1.720519    1.636417
      7          1           0       -0.197229   -1.146394    2.876995
      8          1           0        0.013806    1.112074    1.857082
      9          1           0       -1.552638    1.807585    0.028804
     10          1           0       -3.521539   -1.999690    0.250939
     11          1           0       -1.961517   -2.707621    2.079941
     12          7           0       -3.523934    0.346933   -1.014522
     13          8           0       -4.377485   -0.462363   -1.371070
     14          8           0       -3.376520    1.473209   -1.484000
     15          6           0        2.659832    0.771327   -0.273786
     16          6           0        3.333074    2.049154    0.228100
     17          6           0        2.371312    3.235700    0.298227
     18          1           0        2.230839    0.956688   -1.268045
     19          1           0        1.818598    0.523999    0.388444
     20          1           0        4.173642    2.293233   -0.434083
     21          1           0        3.760679    1.860673    1.221197
     22          1           0        1.538400    3.017039    0.974277
     23          1           0        1.953709    3.452056   -0.690408
     24          1           0        2.873390    4.138641    0.659443
     25          6           0        3.608477   -0.423697   -0.349400
     26          6           0        2.935235   -1.701523   -0.851286
     27          6           0        3.896996   -2.888070   -0.921414
     28          1           0        4.449711   -0.176369   -1.011632
     29          1           0        4.037470   -0.609059    0.644859
     30          1           0        2.507629   -1.513043   -1.844384
     31          1           0        2.094666   -1.945603   -0.189104
     32          1           0        4.314599   -3.104426    0.067221
     33          1           0        4.729908   -2.669408   -1.597464
     34          1           0        3.394918   -3.791011   -1.282630
 ---------------------------------------------------------------------

 SCF Done:  E(RHF) =  -669.534580760     A.U. after   15 cycles
 E2 =    -0.2093260786D+01 EUMP2 =    -0.67162784154528D+03

 The electronic state is 1-A.
 Alpha  occ. eigenvalues --  -20.60782 -20.60777 -15.85836 -11.31222 -11.27786
 Alpha  occ. eigenvalues --  -11.27775 -11.27555 -11.26821 -11.26797 -11.22230
 Alpha  occ. eigenvalues --  -11.21983 -11.21884 -11.21872 -11.21822 -11.21432
 Alpha  occ. eigenvalues --   -1.59857  -1.39409  -1.19401  -1.08967  -1.08790
 Alpha  occ. eigenvalues --   -1.04811  -1.04071  -0.96526  -0.95623  -0.87544
 Alpha  occ. eigenvalues --   -0.86215  -0.82463  -0.80126  -0.78770  -0.77485
 Alpha  occ. eigenvalues --   -0.72055  -0.71179  -0.70505  -0.65712  -0.65054
 Alpha  occ. eigenvalues --   -0.64758  -0.62201  -0.61429  -0.59882  -0.58130
 Alpha  occ. eigenvalues --   -0.55851  -0.55313  -0.53269  -0.53144  -0.52924
 Alpha  occ. eigenvalues --   -0.52902  -0.50494  -0.48824  -0.48807  -0.48430
 Alpha  occ. eigenvalues --   -0.47150  -0.46280  -0.46206  -0.44810  -0.44300
 Alpha  occ. eigenvalues --   -0.37362  -0.36338
 Alpha virt. eigenvalues --    0.05028   0.11131   0.16449   0.19381   0.22809
 Alpha virt. eigenvalues --    0.23527   0.25653   0.26392   0.27170   0.28586
 Alpha virt. eigenvalues --    0.29028   0.29774   0.31217   0.31505   0.32272

 Mulliken charges:
               1
     1  C   -0.172969
     2  C   -0.219140
     3  C   -0.171486
     4  C    0.158695
     5  C   -0.170598
     6  C   -0.218295
     7  H    0.226035
     8  H    0.228169
     9  H    0.276584
    10  H    0.275790
    11  H    0.223673
    12  N    0.488066
    13  O   -0.460406
    14  O   -0.460068
    15  C   -0.305267
    16  C   -0.300560
    17  C   -0.477174
    18  H    0.153643
    19  H    0.148924
    20  H    0.156009
    21  H    0.149888
    22  H    0.143429
    23  H    0.160949
    24  H    0.164798
    25  C   -0.297883
    26  C   -0.300294
    27  C   -0.475980
    28  H    0.151620
    29  H    0.146736
    30  H    0.155329
    31  H    0.150309
    32  H    0.153375
    33  H    0.156780
    34  H    0.161319
 Sum of Mulliken charges =  -0.00000

 Dipole moment (field-independent basis, Debye):
    X=              3.2776    Y=             -1.4526    Z=              3.6986  Tot=              5.1510
 Quadrupole moment (field-independent basis, Debye-Ang):
   XX=           -111.3684   YY=            -91.4452   ZZ=            -94.0160
   XY=              6.7422   XZ=            -10.3246   YZ=             -1.1424

 Normal termination of Gaussian 16 at Thu May  6 02:56:37 2021.
