 Gaussian 16, Revision A.03,
 Gaussian 16:  EM64L-G16RevA.03 25-Dec-2016

 -------------
 #p 6-31g* mp2
 -------------

 ------------------------------------------------------
 Input file generated by CHIRIPA (05-May-2021 14:55:24)
 ------------------------------------------------------
 Symbolic Z-matrix:
 Charge =  0 Multiplicity = 1

                         Standard orientation:
 ---------------------------------------------------------------------
 Center     Atomic      Atomic             Coordinates (Angstroms)
 Number     Number       Type             X           Y           Z
 ---------------------------------------------------------------------
      1          6           0       -5.125126    0.418085    0.402141
      2          6           0       -4.044186    1.246068    0.722351
      3          6           0       -2.731736    0.816041    0.505324
      4          6           0       -2.535805   -0.453611   -0.035864
      5          6           0       -3.591956   -1.301749   -0.365252
      6          6           0       -4.895965   -0.850943   -0.139683
      7          1           0       -6.141391    0.760211    0.574050
      8          1           0       -4.219160    2.232101    1.143264
      9          1           0       -1.876540    1.436567    0.744083
     10          1           0       -3.385970   -2.279522   -0.783518
     11          1           0       -5.733513   -1.496110   -0.389320
     12          7           0       -1.150840   -0.919860   -0.270142
     13          8           0       -1.004873   -2.042776   -0.748044
     14          8           0       -0.237498   -0.153561    0.028569
     15          6           0        3.167534    0.951254   -0.479155
     16          6           0        2.547772    2.160439    0.222094
     17          6           0        1.810064    3.089344   -0.742643
     18          1           0        3.861222    1.301516   -1.255723
     19          1           0        2.376439    0.390865   -0.996387
     20          1           0        3.339597    2.717611    0.738997
     21          1           0        1.855622    1.807258    0.997212
     22          1           0        1.000566    2.554165   -1.249494
     23          1           0        2.492973    3.469690   -1.509176
     24          1           0        1.374820    3.947000   -0.220293
     25          6           0        3.908469    0.013271    0.472121
     26          6           0        4.528231   -1.195915   -0.229129
     27          6           0        5.265939   -2.124819    0.735608
     28          1           0        4.699563    0.573660    0.989353
     29          1           0        3.214780   -0.336990    1.248689
     30          1           0        5.220381   -0.842733   -1.004246
     31          1           0        3.736405   -1.753085   -0.746031
     32          1           0        4.583029   -2.505165    1.502141
     33          1           0        6.075436   -1.589640    1.242459
     34          1           0        5.701183   -2.982475    0.213259
 ---------------------------------------------------------------------

 SCF Done:  E(RHF) =  -669.536573855     A.U. after   15 cycles
 E2 =    -0.2091988700D+01 EUMP2 =    -0.67162856255525D+03

 The electronic state is 1-A.
 Alpha  occ. eigenvalues --  -20.61123 -20.61117 -15.86139 -11.31384 -11.27939
 Alpha  occ. eigenvalues --  -11.27932 -11.27665 -11.26930 -11.26919 -11.20338
 Alpha  occ. eigenvalues --  -11.20310 -11.20097 -11.20042 -11.19992 -11.19757
 Alpha  occ. eigenvalues --   -1.60175  -1.39734  -1.19546  -1.08966  -1.07045
 Alpha  occ. eigenvalues --   -1.04930  -1.02319  -0.95820  -0.94786  -0.86335
 Alpha  occ. eigenvalues --   -0.85817  -0.82658  -0.78385  -0.77719  -0.76857
 Alpha  occ. eigenvalues --   -0.72388  -0.71479  -0.70655  -0.65215  -0.64934
 Alpha  occ. eigenvalues --   -0.63596  -0.62278  -0.59680  -0.58177  -0.56417
 Alpha  occ. eigenvalues --   -0.55439  -0.54063  -0.53267  -0.53019  -0.51559
 Alpha  occ. eigenvalues --   -0.51245  -0.49186  -0.49117  -0.48643  -0.46723
 Alpha  occ. eigenvalues --   -0.45432  -0.45144  -0.44427  -0.44163  -0.42528
 Alpha  occ. eigenvalues --   -0.37522  -0.36528
 Alpha virt. eigenvalues --    0.04779   0.11126   0.16275   0.21033   0.23999
 Alpha virt. eigenvalues --    0.25033   0.27161   0.27622   0.28720   0.28891
 Alpha virt. eigenvalues --    0.29143   0.30857   0.31859   0.32655   0.32922

 Mulliken charges:
               1
     1  C   -0.170314
     2  C   -0.218606
     3  C   -0.171029
     4  C    0.157208
     5  C   -0.170447
     6  C   -0.218637
     7  H    0.226392
     8  H    0.224426
     9  H    0.276834
    10  H    0.275951
    11  H    0.224125
    12  N    0.493373
    13  O   -0.458132
    14  O   -0.465208
    15  C   -0.302004
    16  C   -0.296412
    17  C   -0.477835
    18  H    0.140110
    19  H    0.172678
    20  H    0.143715
    21  H    0.158013
    22  H    0.160028
    23  H    0.151494
    24  H    0.150029
    25  C   -0.297371
    26  C   -0.300643
    27  C   -0.474968
    28  H    0.141731
    29  H    0.154942
    30  H    0.147066
    31  H    0.160055
    32  H    0.155357
    33  H    0.151171
    34  H    0.156905
 Sum of Mulliken charges =  -0.00000

 Dipole moment (field-independent basis, Debye):
    X=             -5.3041    Y=              1.4143    Z=              0.7954  Tot=              5.5468
 Quadrupole moment (field-independent basis, Debye-Ang):
   XX=            -70.9105   YY=            -93.9124   ZZ=            -95.3782
   XY=              0.1820   XZ=             -1.8542   YZ=              1.9116

 Normal termination of Gaussian 16 at Thu May  6 20:54:35 2021.
