 Gaussian 16, Revision A.03,
 Gaussian 16:  EM64L-G16RevA.03 25-Dec-2016

 -------------
 #p 6-31g* mp2
 -------------

 ------------------------------------------------------
 Input file generated by CHIRIPA (05-May-2021 14:55:25)
 ------------------------------------------------------
 Symbolic Z-matrix:
 Charge =  0 Multiplicity = 1

                         Standard orientation:
 ---------------------------------------------------------------------
 Center     Atomic      Atomic             Coordinates (Angstroms)
 Number     Number       Type             X           Y           Z
 ---------------------------------------------------------------------
      1          6           0        2.026078    2.789365    0.116171
      2          6           0        2.696247    2.292352   -1.006492
      3          6           0        3.108695    0.957366   -1.053894
      4          6           0        2.833279    0.143707    0.044011
      5          6           0        2.167536    0.609372    1.176810
      6          6           0        1.764323    1.947773    1.202324
      7          1           0        1.709266    3.827741    0.144493
      8          1           0        2.900882    2.943646   -1.851468
      9          1           0        3.629249    0.546546   -1.910438
     10          1           0        1.977797   -0.064079    2.003781
     11          1           0        1.244043    2.331030    2.075518
     12          7           0        3.265031   -1.271391    0.005414
     13          8           0        3.010358   -1.967787    0.985624
     14          8           0        3.849936   -1.657353   -1.004317
     15          6           0       -2.860190   -0.595880    0.273912
     16          6           0       -1.946722   -1.547543   -0.499329
     17          6           0       -0.599412   -1.764410    0.190250
     18          1           0       -2.351267    0.369626    0.399369
     19          1           0       -3.024423   -0.996213    1.283940
     20          1           0       -1.785381   -1.146232   -1.508057
     21          1           0       -2.457956   -2.510834   -0.623126
     22          1           0       -0.741978   -2.187253    1.189990
     23          1           0       -0.065582   -0.814897    0.300030
     24          1           0        0.037777   -2.447947   -0.379511
     25          6           0       -4.210841   -0.369065   -0.402865
     26          6           0       -5.124308    0.582597    0.370375
     27          6           0       -6.471618    0.799465   -0.319203
     28          1           0       -4.046607    0.031268   -1.412893
     29          1           0       -4.719763   -1.334571   -0.528322
     30          1           0       -4.613074    1.545889    0.494173
     31          1           0       -5.285650    0.181287    1.379105
     32          1           0       -7.005449   -0.150048   -0.428983
     33          1           0       -6.329052    1.222308   -1.318943
     34          1           0       -7.108808    1.483002    0.250557
 ---------------------------------------------------------------------

 SCF Done:  E(RHF) =  -669.534928296     A.U. after   15 cycles
 E2 =    -0.2092969007D+01 EUMP2 =    -0.67162789730283D+03

 The electronic state is 1-A.
 Alpha  occ. eigenvalues --  -20.60804 -20.60775 -15.85825 -11.31198 -11.27797
 Alpha  occ. eigenvalues --  -11.27769 -11.27550 -11.26812 -11.26802 -11.21722
 Alpha  occ. eigenvalues --  -11.21445 -11.21413 -11.21355 -11.21185 -11.20658
 Alpha  occ. eigenvalues --   -1.59852  -1.39406  -1.19406  -1.08788  -1.08424
 Alpha  occ. eigenvalues --   -1.04815  -1.03473  -0.95922  -0.95615  -0.86944
 Alpha  occ. eigenvalues --   -0.86196  -0.82451  -0.79556  -0.78250  -0.77487
 Alpha  occ. eigenvalues --   -0.72052  -0.71169  -0.70510  -0.65068  -0.65047
 Alpha  occ. eigenvalues --   -0.64804  -0.62155  -0.60888  -0.59285  -0.57538
 Alpha  occ. eigenvalues --   -0.55349  -0.55244  -0.53222  -0.52898  -0.52570
 Alpha  occ. eigenvalues --   -0.52260  -0.49846  -0.48816  -0.48807  -0.47855
 Alpha  occ. eigenvalues --   -0.46597  -0.45793  -0.45713  -0.44798  -0.43695
 Alpha  occ. eigenvalues --   -0.37352  -0.36364
 Alpha virt. eigenvalues --    0.05024   0.11198   0.16506   0.21353   0.22856
 Alpha virt. eigenvalues --    0.24379   0.26629   0.27036   0.27573   0.27781
 Alpha virt. eigenvalues --    0.28621   0.30839   0.31483   0.31783   0.32243

 Mulliken charges:
               1
     1  C   -0.170885
     2  C   -0.218690
     3  C   -0.171085
     4  C    0.162518
     5  C   -0.174810
     6  C   -0.218432
     7  H    0.225767
     8  H    0.223541
     9  H    0.275771
    10  H    0.277676
    11  H    0.224084
    12  N    0.489289
    13  O   -0.458968
    14  O   -0.460782
    15  C   -0.297715
    16  C   -0.299623
    17  C   -0.482618
    18  H    0.145277
    19  H    0.149009
    20  H    0.150377
    21  H    0.153001
    22  H    0.156009
    23  H    0.153107
    24  H    0.169246
    25  C   -0.297951
    26  C   -0.299163
    27  C   -0.475591
    28  H    0.148947
    29  H    0.150953
    30  H    0.149097
    31  H    0.151974
    32  H    0.156186
    33  H    0.154824
    34  H    0.159661
 Sum of Mulliken charges =  -0.00000

 Dipole moment (field-independent basis, Debye):
    X=             -1.4145    Y=              4.9216    Z=              0.1406  Tot=              5.1228
 Quadrupole moment (field-independent basis, Debye-Ang):
   XX=           -104.4161   YY=            -93.0926   ZZ=            -90.5870
   XY=             14.9623   XZ=             -2.2587   YZ=             -0.8536

 Normal termination of Gaussian 16 at Thu May  6 07:58:48 2021.
