 Gaussian 16, Revision A.03,
 Gaussian 16:  EM64L-G16RevA.03 25-Dec-2016

 -------------
 #p 6-31g* mp2
 -------------

 ------------------------------------------------------
 Input file generated by CHIRIPA (05-May-2021 14:53:16)
 ------------------------------------------------------
 Symbolic Z-matrix:
 Charge =  0 Multiplicity = 1

                         Standard orientation:
 ---------------------------------------------------------------------
 Center     Atomic      Atomic             Coordinates (Angstroms)
 Number     Number       Type             X           Y           Z
 ---------------------------------------------------------------------
      1          6           0        3.474908    0.794290   -0.178643
      2          6           0        4.715369    1.534176    0.323166
      3          6           0        4.542959    3.053358    0.310701
      4          1           0        3.243103    1.130079   -1.198671
      5          1           0        2.613783    1.071642    0.445002
      6          1           0        5.574182    1.254449   -0.300378
      7          1           0        4.944360    1.196447    1.342047
      8          1           0        3.703876    3.351081    0.947805
      9          1           0        4.337277    3.409412   -0.703952
     10          1           0        5.441484    3.562360    0.673235
     11          6           0        3.631870   -0.725265   -0.172116
     12          6           0        2.391410   -1.465150   -0.673925
     13          6           0        2.563819   -2.984332   -0.661460
     14          1           0        4.492996   -1.002616   -0.795761
     15          1           0        3.863676   -1.061053    0.847913
     16          1           0        2.162418   -1.127421   -1.692805
     17          1           0        1.532596   -1.185423   -0.050380
     18          1           0        2.769502   -3.340387    0.353193
     19          1           0        3.402902   -3.282055   -1.298564
     20          1           0        1.665295   -3.493334   -1.023993
     21          6           0       -1.165240   -1.636465    1.223571
     22          6           0       -1.992987   -0.833312    2.014964
     23          6           0       -2.889306    0.062022    1.423749
     24          6           0       -2.931816    0.128637    0.031971
     25          6           0       -2.120087   -0.658274   -0.783601
     26          6           0       -1.231316   -1.546541   -0.170728
     27          1           0       -0.471890   -2.329238    1.691254
     28          1           0       -1.943829   -0.901025    3.098036
     29          1           0       -3.541569    0.695522    2.012517
     30          1           0       -2.191820   -0.568381   -1.860723
     31          1           0       -0.589678   -2.169051   -0.787839
     32          7           0       -3.876713    1.072748   -0.605387
     33          8           0       -3.894975    1.112530   -1.833686
     34          8           0       -4.581171    1.755083    0.135421
 ---------------------------------------------------------------------

 SCF Done:  E(RHF) =  -669.534281293     A.U. after   15 cycles
 E2 =    -0.2093087034D+01 EUMP2 =    -0.67162736832725D+03

 The electronic state is 1-A.
 Alpha  occ. eigenvalues --  -20.60771 -20.60765 -15.85822 -11.31203 -11.27757
 Alpha  occ. eigenvalues --  -11.27733 -11.27492 -11.26793 -11.26729 -11.22390
 Alpha  occ. eigenvalues --  -11.22165 -11.22023 -11.21965 -11.21819 -11.21327
 Alpha  occ. eigenvalues --   -1.59845  -1.39398  -1.19372  -1.09039  -1.08761
 Alpha  occ. eigenvalues --   -1.04781  -1.04163  -0.96621  -0.95599  -0.87625
 Alpha  occ. eigenvalues --   -0.86183  -0.82427  -0.80253  -0.78803  -0.77465
 Alpha  occ. eigenvalues --   -0.72042  -0.71167  -0.70479  -0.65705  -0.65015
 Alpha  occ. eigenvalues --   -0.64802  -0.62193  -0.61527  -0.59988  -0.58205
 Alpha  occ. eigenvalues --   -0.55891  -0.55264  -0.53350  -0.53192  -0.53020
 Alpha  occ. eigenvalues --   -0.52776  -0.50536  -0.48804  -0.48796  -0.48544
 Alpha  occ. eigenvalues --   -0.47265  -0.46339  -0.46237  -0.44800  -0.44400
 Alpha  occ. eigenvalues --   -0.37306  -0.36329
 Alpha virt. eigenvalues --    0.05033   0.11186   0.16494   0.19719   0.22614
 Alpha virt. eigenvalues --    0.23959   0.25552   0.26208   0.27107   0.27776
 Alpha virt. eigenvalues --    0.29367   0.29685   0.30942   0.31690   0.31971

 Mulliken charges:
               1
     1  C   -0.299141
     2  C   -0.300124
     3  C   -0.476080
     4  H    0.151627
     5  H    0.150959
     6  H    0.152584
     7  H    0.151310
     8  H    0.155988
     9  H    0.156760
    10  H    0.161234
    11  C   -0.297369
    12  C   -0.310670
    13  C   -0.479923
    14  H    0.151324
    15  H    0.148544
    16  H    0.153018
    17  H    0.156474
    18  H    0.154982
    19  H    0.162502
    20  H    0.152535
    21  C   -0.173990
    22  C   -0.218667
    23  C   -0.171470
    24  C    0.158949
    25  C   -0.173745
    26  C   -0.219019
    27  H    0.226554
    28  H    0.223401
    29  H    0.275562
    30  H    0.275887
    31  H    0.232629
    32  N    0.488012
    33  O   -0.460218
    34  O   -0.460420
 Sum of Mulliken charges =  -0.00000

 Dipole moment (field-independent basis, Debye):
    X=              3.4264    Y=             -3.2440    Z=              2.2302  Tot=              5.2190
 Quadrupole moment (field-independent basis, Debye-Ang):
   XX=           -114.0365   YY=            -97.1914   ZZ=            -89.6983
   XY=              9.7953   XZ=             -8.6084   YZ=              1.5950

 Normal termination of Gaussian 16 at Wed May  5 20:21:17 2021.
