 Gaussian 16, Revision A.03,
 Gaussian 16:  EM64L-G16RevA.03 25-Dec-2016

 -------------
 #p 6-31g* mp2
 -------------

 ------------------------------------------------------
 Input file generated by CHIRIPA (05-May-2021 14:53:15)
 ------------------------------------------------------
 Symbolic Z-matrix:
 Charge =  0 Multiplicity = 1

                         Standard orientation:
 ---------------------------------------------------------------------
 Center     Atomic      Atomic             Coordinates (Angstroms)
 Number     Number       Type             X           Y           Z
 ---------------------------------------------------------------------
      1          6           0        5.590248   -0.053430    0.306375
      2          6           0        6.473494    0.740943   -0.656347
      3          6           0        7.913586    0.877746   -0.161157
      4          1           0        5.596460    0.437290    1.289279
      5          1           0        6.025046   -1.051889    0.452749
      6          1           0        6.036413    1.737125   -0.801942
      7          1           0        6.465025    0.248380   -1.637125
      8          1           0        8.372337   -0.108073   -0.033450
      9          1           0        7.941291    1.389130    0.806479
     10          1           0        8.527414    1.449044   -0.864503
     11          6           0        4.147674   -0.198778   -0.174857
     12          6           0        3.264428   -0.993151    0.787865
     13          6           0        1.824336   -1.129955    0.292675
     14          1           0        3.712876    0.799680   -0.321231
     15          1           0        4.141462   -0.689499   -1.157760
     16          1           0        3.272897   -0.500589    1.768643
     17          1           0        3.701508   -1.989334    0.933460
     18          1           0        1.796631   -1.641339   -0.674961
     19          1           0        1.365585   -0.144136    0.164968
     20          1           0        1.210508   -1.701252    0.996021
     21          6           0       -6.285357    0.552866   -0.009627
     22          6           0       -5.814299   -0.737295   -0.274418
     23          6           0       -4.441502   -1.000576   -0.300058
     24          6           0       -3.563976    0.054594   -0.055411
     25          6           0       -4.002390    1.350707    0.211377
     26          6           0       -5.379496    1.590918    0.231999
     27          1           0       -7.353453    0.748427    0.008342
     28          1           0       -6.515490   -1.545396   -0.462430
     29          1           0       -4.049548   -1.989938   -0.502431
     30          1           0       -3.279039    2.135863    0.394985
     31          1           0       -5.742467    2.593862    0.437914
     32          7           0       -2.108376   -0.211918   -0.079899
     33          8           0       -1.355848    0.734912    0.138854
     34          8           0       -1.747566   -1.362594   -0.317381
 ---------------------------------------------------------------------

 SCF Done:  E(RHF) =  -669.536203236     A.U. after   15 cycles
 E2 =    -0.2091603512D+01 EUMP2 =    -0.67162780674759D+03

 The electronic state is 1-A.
 Alpha  occ. eigenvalues --  -20.60983 -20.60974 -15.85989 -11.31317 -11.27875
 Alpha  occ. eigenvalues --  -11.27871 -11.27611 -11.26880 -11.26870 -11.20837
 Alpha  occ. eigenvalues --  -11.20451 -11.20435 -11.20156 -11.20017 -11.18758
 Alpha  occ. eigenvalues --   -1.60016  -1.39575  -1.19480  -1.08883  -1.07311
 Alpha  occ. eigenvalues --   -1.04875  -1.02276  -0.95728  -0.94674  -0.86275
 Alpha  occ. eigenvalues --   -0.85676  -0.82559  -0.78389  -0.77612  -0.77050
 Alpha  occ. eigenvalues --   -0.72202  -0.71329  -0.70587  -0.65135  -0.64877
 Alpha  occ. eigenvalues --   -0.63959  -0.62222  -0.59685  -0.58178  -0.56286
 Alpha  occ. eigenvalues --   -0.55383  -0.53978  -0.53207  -0.52966  -0.51372
 Alpha  occ. eigenvalues --   -0.51130  -0.49143  -0.48917  -0.48424  -0.46637
 Alpha  occ. eigenvalues --   -0.45440  -0.44990  -0.44575  -0.44455  -0.42505
 Alpha  occ. eigenvalues --   -0.37459  -0.36476
 Alpha virt. eigenvalues --    0.04919   0.11180   0.16421   0.21317   0.23880
 Alpha virt. eigenvalues --    0.25623   0.27234   0.27714   0.28194   0.28531
 Alpha virt. eigenvalues --    0.29445   0.30888   0.32383   0.32676   0.32781

 Mulliken charges:
               1
     1  C   -0.296966
     2  C   -0.298744
     3  C   -0.475022
     4  H    0.147702
     5  H    0.147339
     6  H    0.151052
     7  H    0.150810
     8  H    0.154055
     9  H    0.154040
    10  H    0.157836
    11  C   -0.296994
    12  C   -0.301925
    13  C   -0.473597
    14  H    0.149655
    15  H    0.147482
    16  H    0.146609
    17  H    0.144703
    18  H    0.149859
    19  H    0.175205
    20  H    0.159605
    21  C   -0.170572
    22  C   -0.218572
    23  C   -0.170767
    24  C    0.158635
    25  C   -0.170774
    26  C   -0.218548
    27  H    0.226047
    28  H    0.223902
    29  H    0.275952
    30  H    0.275714
    31  H    0.223860
    32  N    0.488841
    33  O   -0.459080
    34  O   -0.457343
 Sum of Mulliken charges =  -0.00000

 Dipole moment (field-independent basis, Debye):
    X=             -5.6285    Y=              0.9834    Z=              0.0458  Tot=              5.7140
 Quadrupole moment (field-independent basis, Debye-Ang):
   XX=            -61.4920   YY=            -89.4913   ZZ=            -95.4224
   XY=             -2.9439   XZ=             -0.2901   YZ=              1.6270

 Normal termination of Gaussian 16 at Thu May  6 01:07:28 2021.
