 Gaussian 16, Revision A.03,
 Gaussian 16:  EM64L-G16RevA.03 25-Dec-2016

 -------------
 #p 6-31g* mp2
 -------------

 ------------------------------------------------------
 Input file generated by CHIRIPA (05-May-2021 14:55:22)
 ------------------------------------------------------
 Symbolic Z-matrix:
 Charge =  0 Multiplicity = 1

                         Standard orientation:
 ---------------------------------------------------------------------
 Center     Atomic      Atomic             Coordinates (Angstroms)
 Number     Number       Type             X           Y           Z
 ---------------------------------------------------------------------
      1          6           0       -0.797454   -0.531995    1.995515
      2          6           0       -0.837944   -1.277783    0.812856
      3          6           0       -1.792449   -0.999156   -0.169913
      4          6           0       -2.695285    0.036929    0.063974
      5          6           0       -2.680414    0.797908    1.231869
      6          6           0       -1.717197    0.501648    2.200885
      7          1           0       -0.052588   -0.755288    2.753611
      8          1           0       -0.124911   -2.081101    0.650656
      9          1           0       -1.846269   -1.560699   -1.094679
     10          1           0       -3.404383    1.592612    1.365031
     11          1           0       -1.688107    1.082495    3.118389
     12          7           0       -3.710389    0.341232   -0.969160
     13          8           0       -4.494660    1.259160   -0.739021
     14          8           0       -3.702534   -0.343945   -1.989507
     15          6           0        3.402451    0.663649    0.070862
     16          6           0        3.497225    1.882101   -0.848038
     17          6           0        3.831199    3.168304   -0.091773
     18          1           0        2.637648    0.849073    0.837439
     19          1           0        4.355459    0.539901    0.603644
     20          1           0        2.544791    2.002697   -1.379960
     21          1           0        4.261757    1.693678   -1.612631
     22          1           0        4.791295    3.072747    0.425611
     23          1           0        3.064573    3.383522    0.659604
     24          1           0        3.894085    4.026720   -0.767812
     25          6           0        3.069189   -0.629795   -0.670533
     26          6           0        2.974414   -1.848248    0.248366
     27          6           0        2.640440   -3.134451   -0.507898
     28          1           0        2.116180   -0.506048   -1.203316
     29          1           0        3.833992   -0.815219   -1.437110
     30          1           0        2.209883   -1.659824    1.012961
     31          1           0        3.926849   -1.968844    0.780290
     32          1           0        3.407066   -3.349669   -1.259275
     33          1           0        1.680345   -3.038894   -1.025282
     34          1           0        2.577555   -3.992866    0.168142
 ---------------------------------------------------------------------

 SCF Done:  E(RHF) =  -669.535253532     A.U. after   15 cycles
 E2 =    -0.2092747486D+01 EUMP2 =    -0.67162800101794D+03

 The electronic state is 1-A.
 Alpha  occ. eigenvalues --  -20.60799 -20.60794 -15.85852 -11.31236 -11.27799
 Alpha  occ. eigenvalues --  -11.27792 -11.27545 -11.26823 -11.26773 -11.22580
 Alpha  occ. eigenvalues --  -11.22089 -11.22059 -11.22000 -11.21924 -11.21423
 Alpha  occ. eigenvalues --   -1.59874  -1.39427  -1.19406  -1.09104  -1.08793
 Alpha  occ. eigenvalues --   -1.04814  -1.04213  -0.96650  -0.95631  -0.87666
 Alpha  occ. eigenvalues --   -0.86210  -0.82460  -0.80295  -0.78870  -0.77510
 Alpha  occ. eigenvalues --   -0.72070  -0.71197  -0.70516  -0.65898  -0.65055
 Alpha  occ. eigenvalues --   -0.64739  -0.62305  -0.61419  -0.60038  -0.58244
 Alpha  occ. eigenvalues --   -0.55960  -0.55289  -0.53355  -0.53132  -0.53076
 Alpha  occ. eigenvalues --   -0.52851  -0.50613  -0.48838  -0.48825  -0.48581
 Alpha  occ. eigenvalues --   -0.47346  -0.46417  -0.46309  -0.44829  -0.44437
 Alpha  occ. eigenvalues --   -0.37375  -0.36399
 Alpha virt. eigenvalues --    0.05000   0.11138   0.16421   0.19384   0.22900
 Alpha virt. eigenvalues --    0.23601   0.25100   0.25876   0.26974   0.28565
 Alpha virt. eigenvalues --    0.28854   0.30533   0.30986   0.31629   0.31996

 Mulliken charges:
               1
     1  C   -0.173435
     2  C   -0.222374
     3  C   -0.173731
     4  C    0.158814
     5  C   -0.171099
     6  C   -0.218658
     7  H    0.226527
     8  H    0.233480
     9  H    0.275601
    10  H    0.275801
    11  H    0.223701
    12  N    0.488044
    13  O   -0.460275
    14  O   -0.460220
    15  C   -0.298495
    16  C   -0.300594
    17  C   -0.475944
    18  H    0.147338
    19  H    0.149594
    20  H    0.155224
    21  H    0.153230
    22  H    0.154952
    23  H    0.154316
    24  H    0.162717
    25  C   -0.298405
    26  C   -0.303036
    27  C   -0.479658
    28  H    0.151803
    29  H    0.152964
    30  H    0.141092
    31  H    0.156401
    32  H    0.163003
    33  H    0.150225
    34  H    0.161098
 Sum of Mulliken charges =  -0.00000

 Dipole moment (field-independent basis, Debye):
    X=              3.6923    Y=             -1.0254    Z=              3.5590  Tot=              5.2299
 Quadrupole moment (field-independent basis, Debye-Ang):
   XX=           -112.6261   YY=            -93.3507   ZZ=            -93.1983
   XY=              0.9872   XZ=            -11.3828   YZ=              2.1897

 Normal termination of Gaussian 16 at Thu May  6 12:33:04 2021.
