 Gaussian 16, Revision A.03,
 Gaussian 16:  EM64L-G16RevA.03 25-Dec-2016

 -------------
 #p 6-31g* mp2
 -------------

 ------------------------------------------------------
 Input file generated by CHIRIPA (05-May-2021 14:57:26)
 ------------------------------------------------------
 Symbolic Z-matrix:
 Charge =  0 Multiplicity = 1

                         Standard orientation:
 ---------------------------------------------------------------------
 Center     Atomic      Atomic             Coordinates (Angstroms)
 Number     Number       Type             X           Y           Z
 ---------------------------------------------------------------------
      1          6           0        1.762831    0.023342    1.961488
      2          6           0        2.156835    1.173032    1.269032
      3          6           0        3.114238    1.096856    0.253097
      4          6           0        3.659460   -0.150842   -0.045686
      5          6           0        3.287555   -1.314313    0.626113
      6          6           0        2.328451   -1.214479    1.638388
      7          1           0        1.018436    0.091706    2.749269
      8          1           0        1.719261    2.135674    1.517817
      9          1           0        3.437485    1.971020   -0.298961
     10          1           0        3.741604   -2.259863    0.355570
     11          1           0        2.024373   -2.109009    2.174483
     12          7           0        4.673920   -0.244009   -1.119273
     13          8           0        5.139188   -1.355104   -1.363470
     14          8           0        4.984577    0.795825   -1.696226
     15          6           0       -2.169603    2.245716    0.273003
     16          6           0       -1.917489    1.103740    1.040369
     17          6           0       -2.644222   -0.071020    0.825091
     18          6           0       -3.620135   -0.068521   -0.170337
     19          6           0       -3.894634    1.053041   -0.951385
     20          6           0       -3.155633    2.216772   -0.718677
     21          1           0       -1.600294    3.154015    0.447006
     22          1           0       -1.152325    1.123320    1.811204
     23          1           0       -2.469612   -0.969408    1.404599
     24          1           0       -4.663715    1.002984   -1.712587
     25          1           0       -3.353584    3.102146   -1.316149
     26          7           0       -4.395988   -1.306350   -0.407468
     27          8           0       -5.250427   -1.278366   -1.290524
     28          8           0       -4.134973   -2.281106    0.294215
 ---------------------------------------------------------------------

 SCF Done:  E(RHF) =  -868.336060612     A.U. after   16 cycles
 E2 =    -0.2600668052D+01 EUMP2 =    -0.87093672866423D+03

 The electronic state is 1-A.
 Alpha  occ. eigenvalues --  -20.61216 -20.61212 -20.61205 -20.61199 -15.86272
 Alpha  occ. eigenvalues --  -15.86268 -11.31793 -11.31731 -11.28408 -11.28369
 Alpha  occ. eigenvalues --  -11.28335 -11.28274 -11.28271 -11.28122 -11.27556
 Alpha  occ. eigenvalues --  -11.27466 -11.27411 -11.27314  -1.60284  -1.60281
 Alpha  occ. eigenvalues --   -1.39833  -1.39833  -1.19996  -1.19920  -1.09399
 Alpha  occ. eigenvalues --   -1.09300  -1.05420  -1.05349  -0.96196  -0.96122
 Alpha  occ. eigenvalues --   -0.86862  -0.86726  -0.83043  -0.82936  -0.78031
 Alpha  occ. eigenvalues --   -0.77971  -0.72494  -0.72482  -0.71607  -0.71603
 Alpha  occ. eigenvalues --   -0.71202  -0.71050  -0.65708  -0.65593  -0.65544
 Alpha  occ. eigenvalues --   -0.65261  -0.62790  -0.62678  -0.56070  -0.55833
 Alpha  occ. eigenvalues --   -0.53837  -0.53614  -0.53529  -0.53387  -0.49262
 Alpha  occ. eigenvalues --   -0.49253  -0.49233  -0.49231  -0.45217  -0.45204
 Alpha  occ. eigenvalues --   -0.38129  -0.37838  -0.37033  -0.36846
 Alpha virt. eigenvalues --    0.04429   0.04637   0.10325   0.10965   0.15738
 Alpha virt. eigenvalues --    0.16150   0.18214   0.22194   0.25035   0.25609
 Alpha virt. eigenvalues --    0.28053   0.28839   0.29995   0.31394   0.32215

 Mulliken charges:
               1
     1  C   -0.173204
     2  C   -0.216359
     3  C   -0.169829
     4  C    0.159718
     5  C   -0.169257
     6  C   -0.217526
     7  H    0.218934
     8  H    0.216237
     9  H    0.276342
    10  H    0.278987
    11  H    0.227013
    12  N    0.488002
    13  O   -0.457586
    14  O   -0.459657
    15  C   -0.171080
    16  C   -0.213305
    17  C   -0.170533
    18  C    0.159340
    19  C   -0.169795
    20  C   -0.217677
    21  H    0.222814
    22  H    0.212462
    23  H    0.272896
    24  H    0.277882
    25  H    0.225796
    26  N    0.488208
    27  O   -0.458052
    28  O   -0.460770
 Sum of Mulliken charges =  -0.00000

 Dipole moment (field-independent basis, Debye):
    X=             -0.7814    Y=              4.5589    Z=              4.3981  Tot=              6.3826
 Quadrupole moment (field-independent basis, Debye-Ang):
   XX=           -149.5527   YY=            -99.9696   ZZ=           -104.0429
   XY=            -16.4423   XZ=             12.9563   YZ=             -4.5233

 Normal termination of Gaussian 16 at Thu May  6 14:48:09 2021.
