 Gaussian 16, Revision A.03,
 Gaussian 16:  EM64L-G16RevA.03 25-Dec-2016

 -------------
 #p 6-31g* mp2
 -------------

 ------------------------------------------------------
 Input file generated by CHIRIPA (05-May-2021 14:51:13)
 ------------------------------------------------------
 Symbolic Z-matrix:
 Charge =  0 Multiplicity = 1

                         Standard orientation:
 ---------------------------------------------------------------------
 Center     Atomic      Atomic             Coordinates (Angstroms)
 Number     Number       Type             X           Y           Z
 ---------------------------------------------------------------------
      1          6           0       -3.556537    0.203915    0.545883
      2          6           0       -4.772291   -0.444716   -0.116843
      3          6           0       -5.596916   -1.287335    0.856697
      4          1           0       -2.922743   -0.580291    0.982084
      5          1           0       -3.894881    0.832849    1.380964
      6          1           0       -4.431862   -1.071150   -0.951292
      7          1           0       -5.403167    0.341111   -0.551684
      8          1           0       -5.964457   -0.671205    1.683679
      9          1           0       -4.987633   -2.091490    1.281799
     10          1           0       -6.461046   -1.741682    0.362018
     11          6           0       -2.722188    1.049527   -0.414601
     12          6           0       -1.506434    1.698158    0.248125
     13          6           0       -0.681809    2.540777   -0.725415
     14          1           0       -2.383844    0.420593   -1.249681
     15          1           0       -3.355982    1.833732   -0.850802
     16          1           0       -0.875558    0.912331    0.682966
     17          1           0       -1.846863    2.324591    1.082575
     18          1           0       -1.291092    3.344931   -1.150517
     19          1           0       -0.314268    1.924646   -1.552396
     20          1           0        0.182321    2.995123   -0.230736
     21          6           0        3.893283   -0.715984    0.018429
     22          6           0        4.602765    0.547455    0.506636
     23          6           0        6.110525    0.353093    0.669957
     24          1           0        4.084418   -1.533290    0.727246
     25          1           0        4.330039   -1.025829   -0.941069
     26          1           0        4.163864    0.855610    1.464249
     27          1           0        4.409760    1.361898   -0.203326
     28          1           0        6.567706    0.068233   -0.283166
     29          1           0        6.320413   -0.440933    1.393884
     30          1           0        6.597764    1.268574    1.019750
     31          6           0        2.385442   -0.537458   -0.149711
     32          6           0        1.675961   -1.800896   -0.637918
     33          6           0        0.168200   -1.606535   -0.801239
     34          1           0        1.948686   -0.227613    0.809787
     35          1           0        2.194307    0.279849   -0.858529
     36          1           0        1.868965   -2.615341    0.072045
     37          1           0        2.114860   -2.109052   -1.595532
     38          1           0       -0.041688   -0.812510   -1.525167
     39          1           0       -0.288980   -1.321674    0.151883
     40          1           0       -0.319039   -2.522015   -1.151032
 ---------------------------------------------------------------------

 SCF Done:  E(RHF) =  -470.732364043     A.U. after   11 cycles
 E2 =    -0.1584645876D+01 EUMP2 =    -0.47231700991878D+03

 The electronic state is 1-A.
 Alpha  occ. eigenvalues --  -11.21667 -11.21619 -11.21540 -11.21460 -11.21440
 Alpha  occ. eigenvalues --  -11.21380 -11.21319 -11.21241 -11.21154 -11.21084
 Alpha  occ. eigenvalues --  -11.21028 -11.21011  -1.08486  -1.08335  -1.03607
 Alpha  occ. eigenvalues --   -1.03430  -0.96037  -0.95907  -0.87079  -0.86906
 Alpha  occ. eigenvalues --   -0.79661  -0.79516  -0.78295  -0.78160  -0.65109
 Alpha  occ. eigenvalues --   -0.65003  -0.60996  -0.60916  -0.59377  -0.59270
 Alpha  occ. eigenvalues --   -0.57619  -0.57515  -0.55351  -0.55192  -0.52724
 Alpha  occ. eigenvalues --   -0.52606  -0.52463  -0.52334  -0.50008  -0.49851
 Alpha  occ. eigenvalues --   -0.48090  -0.47720  -0.46889  -0.46447  -0.45955
 Alpha  occ. eigenvalues --   -0.45819  -0.45530  -0.45342  -0.43829  -0.43702
 Alpha virt. eigenvalues --    0.20385   0.22801   0.23515   0.24301   0.25432
 Alpha virt. eigenvalues --    0.25921   0.26735   0.27698   0.28598   0.29687
 Alpha virt. eigenvalues --    0.30283   0.31325   0.31770   0.31919   0.32284

 Mulliken charges:
               1
     1  C   -0.299704
     2  C   -0.299553
     3  C   -0.475696
     4  H    0.150441
     5  H    0.149077
     6  H    0.152278
     7  H    0.151718
     8  H    0.154971
     9  H    0.155069
    10  H    0.160035
    11  C   -0.300474
    12  C   -0.303556
    13  C   -0.476689
    14  H    0.153157
    15  H    0.149100
    16  H    0.157066
    17  H    0.151145
    18  H    0.154621
    19  H    0.155005
    20  H    0.160420
    21  C   -0.298321
    22  C   -0.299736
    23  C   -0.475732
    24  H    0.149674
    25  H    0.149663
    26  H    0.151949
    27  H    0.152235
    28  H    0.155224
    29  H    0.155179
    30  H    0.160362
    31  C   -0.300963
    32  C   -0.300304
    33  C   -0.481530
    34  H    0.150030
    35  H    0.152336
    36  H    0.152030
    37  H    0.152107
    38  H    0.158117
    39  H    0.158983
    40  H    0.160268
 Sum of Mulliken charges =  -0.00000

 Dipole moment (field-independent basis, Debye):
    X=              0.0427    Y=             -0.0255    Z=             -0.0099  Tot=              0.0508
 Quadrupole moment (field-independent basis, Debye-Ang):
   XX=            -86.2483   YY=            -84.5458   ZZ=            -84.1573
   XY=             -0.8344   XZ=             -0.0249   YZ=              0.2735

 Normal termination of Gaussian 16 at Wed May  5 15:19:32 2021.
