 Gaussian 16, Revision A.03,
 Gaussian 16:  EM64L-G16RevA.03 25-Dec-2016

 -------------
 #p 6-31g* mp2
 -------------

 ------------------------------------------------------
 Input file generated by CHIRIPA (05-May-2021 14:51:10)
 ------------------------------------------------------
 Symbolic Z-matrix:
 Charge =  0 Multiplicity = 1

                         Standard orientation:
 ---------------------------------------------------------------------
 Center     Atomic      Atomic             Coordinates (Angstroms)
 Number     Number       Type             X           Y           Z
 ---------------------------------------------------------------------
      1          6           0       -4.857416   -0.657423   -0.023209
      2          6           0       -6.032491    0.306306   -0.191758
      3          6           0       -7.370019   -0.415665   -0.357806
      4          1           0       -4.810141   -1.323985   -0.895221
      5          1           0       -5.040200   -1.298221    0.850497
      6          1           0       -5.846897    0.946027   -1.064070
      7          1           0       -6.076858    0.970777    0.680667
      8          1           0       -7.581579   -1.040527    0.515916
      9          1           0       -7.350311   -1.065418   -1.238734
     10          1           0       -8.196262    0.292173   -0.476749
     11          6           0       -3.513435    0.049342    0.143905
     12          6           0       -2.338359   -0.914387    0.312454
     13          6           0       -1.000832   -0.192416    0.478502
     14          1           0       -3.330651    0.690141   -0.729801
     15          1           0       -3.560710    0.715904    1.015917
     16          1           0       -2.293993   -1.578858   -0.559971
     17          1           0       -2.523954   -1.554108    1.184766
     18          1           0       -1.020539    0.457337    1.359430
     19          1           0       -0.789272    0.432447   -0.395220
     20          1           0       -0.174589   -0.900254    0.597444
     21          6           0        4.471362   -0.399572    0.020902
     22          6           0        5.970458   -0.482068   -0.268730
     23          6           0        6.527837   -1.896034   -0.101933
     24          1           0        4.282196   -0.751447    1.044302
     25          1           0        3.937076   -1.086781   -0.649678
     26          1           0        6.501631    0.206115    0.401253
     27          1           0        6.156101   -0.129775   -1.291492
     28          1           0        6.024203   -2.591281   -0.781334
     29          1           0        6.371697   -2.253483    0.921029
     30          1           0        7.600990   -1.932121   -0.313828
     31          6           0        3.899489    1.007653   -0.141599
     32          6           0        2.400392    1.090148    0.148034
     33          6           0        1.843014    2.504115   -0.018763
     34          1           0        4.433774    1.694861    0.528982
     35          1           0        4.088655    1.359528   -1.164997
     36          1           0        2.214750    0.737856    1.170797
     37          1           0        1.869220    0.401965   -0.521949
     38          1           0        1.999154    2.861564   -1.041725
     39          1           0        2.346647    3.199362    0.660638
     40          1           0        0.769860    2.540201    0.193132
 ---------------------------------------------------------------------

 SCF Done:  E(RHF) =  -470.732620620     A.U. after   11 cycles
 E2 =    -0.1583101106D+01 EUMP2 =    -0.47231572172630D+03

 The electronic state is 1-A.
 Alpha  occ. eigenvalues --  -11.21600 -11.21576 -11.21566 -11.21439 -11.21402
 Alpha  occ. eigenvalues --  -11.21343 -11.21342 -11.21267 -11.21070 -11.21047
 Alpha  occ. eigenvalues --  -11.21022 -11.20945  -1.08430  -1.08354  -1.03558
 Alpha  occ. eigenvalues --   -1.03420  -0.96028  -0.95857  -0.86999  -0.86925
 Alpha  occ. eigenvalues --   -0.79690  -0.79433  -0.78266  -0.78132  -0.65073
 Alpha  occ. eigenvalues --   -0.64978  -0.60999  -0.60788  -0.59420  -0.59226
 Alpha  occ. eigenvalues --   -0.57692  -0.57433  -0.55319  -0.55140  -0.52727
 Alpha  occ. eigenvalues --   -0.52645  -0.52449  -0.52159  -0.49947  -0.49828
 Alpha  occ. eigenvalues --   -0.47949  -0.47761  -0.46712  -0.46463  -0.45798
 Alpha  occ. eigenvalues --   -0.45731  -0.45698  -0.45587  -0.43792  -0.43639
 Alpha virt. eigenvalues --    0.21993   0.23040   0.23499   0.24867   0.26478
 Alpha virt. eigenvalues --    0.26624   0.26811   0.27162   0.27897   0.29215
 Alpha virt. eigenvalues --    0.30800   0.31194   0.31429   0.31501   0.32589

 Mulliken charges:
               1
     1  C   -0.298203
     2  C   -0.299618
     3  C   -0.475697
     4  H    0.149597
     5  H    0.149530
     6  H    0.151912
     7  H    0.151927
     8  H    0.155176
     9  H    0.155158
    10  H    0.160253
    11  C   -0.298501
    12  C   -0.301162
    13  C   -0.476270
    14  H    0.149373
    15  H    0.149473
    16  H    0.151589
    17  H    0.151665
    18  H    0.154737
    19  H    0.157210
    20  H    0.162817
    21  C   -0.298196
    22  C   -0.299495
    23  C   -0.475659
    24  H    0.149317
    25  H    0.149031
    26  H    0.151902
    27  H    0.151847
    28  H    0.155035
    29  H    0.155072
    30  H    0.160135
    31  C   -0.298198
    32  C   -0.299561
    33  C   -0.479604
    34  H    0.148934
    35  H    0.149014
    36  H    0.152163
    37  H    0.154850
    38  H    0.153944
    39  H    0.154437
    40  H    0.164067
 Sum of Mulliken charges =  -0.00000

 Dipole moment (field-independent basis, Debye):
    X=             -0.0282    Y=             -0.0126    Z=              0.0072  Tot=              0.0317
 Quadrupole moment (field-independent basis, Debye-Ang):
   XX=            -86.4407   YY=            -85.9257   ZZ=            -82.7762
   XY=              0.1152   XZ=             -0.0985   YZ=              0.2511

 Normal termination of Gaussian 16 at Wed May  5 16:43:14 2021.
