 Gaussian 16, Revision A.03,
 Gaussian 16:  EM64L-G16RevA.03 25-Dec-2016

 -------------
 #p 6-31g* mp2
 -------------

 ------------------------------------------------------
 Input file generated by CHIRIPA (05-May-2021 14:55:23)
 ------------------------------------------------------
 Symbolic Z-matrix:
 Charge =  0 Multiplicity = 1

                         Standard orientation:
 ---------------------------------------------------------------------
 Center     Atomic      Atomic             Coordinates (Angstroms)
 Number     Number       Type             X           Y           Z
 ---------------------------------------------------------------------
      1          6           0        3.277713    0.587136   -1.655109
      2          6           0        2.727915    1.464184   -0.714347
      3          6           0        1.979439    0.974695    0.360237
      4          6           0        1.799737   -0.403806    0.463832
      5          6           0        2.334718   -1.303131   -0.457200
      6          6           0        3.079708   -0.791292   -1.523764
      7          1           0        3.857793    0.976064   -2.486756
      8          1           0        2.880063    2.535164   -0.813830
      9          1           0        1.542515    1.631175    1.102900
     10          1           0        2.165924   -2.365729   -0.331458
     11          1           0        3.505505   -1.474777   -2.252866
     12          7           0        1.009204   -0.933837    1.597201
     13          8           0        0.865345   -2.152527    1.666033
     14          8           0        0.548412   -0.120550    2.395243
     15          6           0       -2.252589    1.100784   -0.582513
     16          6           0       -2.092591    2.093690    0.569235
     17          6           0       -1.656397    3.481092    0.097386
     18          1           0       -1.300821    1.022498   -1.125610
     19          1           0       -2.988752    1.494317   -1.297070
     20          1           0       -1.357971    1.697754    1.282105
     21          1           0       -3.044797    2.169476    1.109769
     22          1           0       -2.391528    3.900600   -0.597018
     23          1           0       -0.695119    3.426199   -0.423703
     24          1           0       -1.548114    4.174974    0.936828
     25          6           0       -2.688277   -0.290669   -0.126706
     26          6           0       -2.848275   -1.283575   -1.278455
     27          6           0       -3.284470   -2.670979   -0.806605
     28          1           0       -1.952115   -0.684202    0.587850
     29          1           0       -3.640045   -0.212384    0.416391
     30          1           0       -1.896070   -1.359362   -1.818989
     31          1           0       -3.582895   -0.887640   -1.991325
     32          1           0       -4.245747   -2.616084   -0.285517
     33          1           0       -2.549338   -3.090487   -0.112203
     34          1           0       -3.392752   -3.364859   -1.646048
 ---------------------------------------------------------------------

 SCF Done:  E(RHF) =  -669.536547751     A.U. after   15 cycles
 E2 =    -0.2093932628D+01 EUMP2 =    -0.67163048037983D+03

 The electronic state is 1-A.
 Alpha  occ. eigenvalues --  -20.61084 -20.61079 -15.86088 -11.31375 -11.27931
 Alpha  occ. eigenvalues --  -11.27927 -11.27651 -11.26925 -11.26915 -11.21150
 Alpha  occ. eigenvalues --  -11.21071 -11.20982 -11.20961 -11.20772 -11.20498
 Alpha  occ. eigenvalues --   -1.60136  -1.39692  -1.19537  -1.08947  -1.07966
 Alpha  occ. eigenvalues --   -1.04924  -1.03112  -0.95797  -0.95587  -0.86599
 Alpha  occ. eigenvalues --   -0.86324  -0.82631  -0.79160  -0.77786  -0.77659
 Alpha  occ. eigenvalues --   -0.72314  -0.71467  -0.70639  -0.65194  -0.64934
 Alpha  occ. eigenvalues --   -0.64580  -0.62278  -0.60511  -0.58950  -0.57179
 Alpha  occ. eigenvalues --   -0.55426  -0.54892  -0.53255  -0.53007  -0.52291
 Alpha  occ. eigenvalues --   -0.51998  -0.49555  -0.49081  -0.49060  -0.47480
 Alpha  occ. eigenvalues --   -0.46223  -0.45432  -0.45305  -0.44757  -0.43352
 Alpha  occ. eigenvalues --   -0.37503  -0.36510
 Alpha virt. eigenvalues --    0.04762   0.11080   0.16219   0.20697   0.23028
 Alpha virt. eigenvalues --    0.24308   0.26676   0.27206   0.27585   0.28159
 Alpha virt. eigenvalues --    0.29055   0.30665   0.31451   0.32009   0.32179

 Mulliken charges:
               1
     1  C   -0.170166
     2  C   -0.219731
     3  C   -0.170801
     4  C    0.157643
     5  C   -0.170884
     6  C   -0.218511
     7  H    0.226586
     8  H    0.224974
     9  H    0.278076
    10  H    0.276076
    11  H    0.224301
    12  N    0.488311
    13  O   -0.458461
    14  O   -0.458874
    15  C   -0.299141
    16  C   -0.311492
    17  C   -0.475825
    18  H    0.144784
    19  H    0.146708
    20  H    0.170856
    21  H    0.153043
    22  H    0.154942
    23  H    0.144682
    24  H    0.159717
    25  C   -0.303682
    26  C   -0.298208
    27  C   -0.477851
    28  H    0.160781
    29  H    0.150717
    30  H    0.146856
    31  H    0.149031
    32  H    0.155025
    33  H    0.164333
    34  H    0.156185
 Sum of Mulliken charges =  -0.00000

 Dipole moment (field-independent basis, Debye):
    X=              2.9241    Y=              1.7179    Z=             -3.8097  Tot=              5.1006
 Quadrupole moment (field-independent basis, Debye-Ang):
   XX=            -84.3619   YY=            -93.4286   ZZ=            -98.6047
   XY=              1.0203   XZ=             -6.7078   YZ=              4.4103

 Normal termination of Gaussian 16 at Thu May  6 12:36:36 2021.
