 Gaussian 16, Revision A.03,
 Gaussian 16:  EM64L-G16RevA.03 25-Dec-2016

 -------------
 #p 6-31g* mp2
 -------------

 ------------------------------------------------------
 Input file generated by CHIRIPA (05-May-2021 14:55:22)
 ------------------------------------------------------
 Symbolic Z-matrix:
 Charge =  0 Multiplicity = 1

                         Standard orientation:
 ---------------------------------------------------------------------
 Center     Atomic      Atomic             Coordinates (Angstroms)
 Number     Number       Type             X           Y           Z
 ---------------------------------------------------------------------
      1          6           0        2.198088    2.160049    0.752383
      2          6           0        2.075694    1.694002   -0.560758
      3          6           0        2.612197    0.456258   -0.927778
      4          6           0        3.267671   -0.292792    0.048218
      5          6           0        3.405942    0.144245    1.364717
      6          6           0        2.861651    1.385050    1.709243
      7          1           0        1.778295    3.122748    1.028756
      8          1           0        1.560885    2.293740   -1.305963
      9          1           0        2.531850    0.071372   -1.937147
     10          1           0        3.924636   -0.476118    2.085498
     11          1           0        2.958214    1.744464    2.729803
     12          7           0        3.839765   -1.604757   -0.328423
     13          8           0        4.412590   -2.245663    0.550069
     14          8           0        3.704515   -1.967326   -1.494994
     15          6           0       -3.364849    0.194983   -0.437998
     16          6           0       -2.913811    1.655798   -0.461844
     17          6           0       -1.517312    1.833643   -1.058462
     18          1           0       -2.640298   -0.396479    0.138322
     19          1           0       -3.349191   -0.203093   -1.462052
     20          1           0       -2.931641    2.051405    0.561774
     21          1           0       -3.639621    2.243885   -1.038012
     22          1           0       -1.488878    1.465175   -2.089008
     23          1           0       -0.776876    1.271602   -0.480132
     24          1           0       -1.214832    2.885457   -1.065773
     25          6           0       -4.759012    0.001023    0.155648
     26          6           0       -5.210050   -1.459793    0.179494
     27          6           0       -6.606549   -1.637637    0.776113
     28          1           0       -4.774670    0.399098    1.179702
     29          1           0       -5.483563    0.592484   -0.420671
     30          1           0       -4.484241   -2.047880    0.755663
     31          1           0       -5.192220   -1.855400   -0.844124
     32          1           0       -7.346986   -1.075596    0.197782
     33          1           0       -6.634983   -1.269171    1.806658
     34          1           0       -6.909029   -2.689452    0.783424
 ---------------------------------------------------------------------

 SCF Done:  E(RHF) =  -669.534971706     A.U. after   15 cycles
 E2 =    -0.2091864070D+01 EUMP2 =    -0.67162683577600D+03

 The electronic state is 1-A.
 Alpha  occ. eigenvalues --  -20.60758 -20.60753 -15.85810 -11.31181 -11.27736
 Alpha  occ. eigenvalues --  -11.27716 -11.27468 -11.26770 -11.26708 -11.22118
 Alpha  occ. eigenvalues --  -11.21784 -11.21748 -11.21735 -11.21638 -11.21221
 Alpha  occ. eigenvalues --   -1.59833  -1.39386  -1.19352  -1.08782  -1.08735
 Alpha  occ. eigenvalues --   -1.04755  -1.03904  -0.96379  -0.95576  -0.87424
 Alpha  occ. eigenvalues --   -0.86132  -0.82406  -0.79986  -0.78558  -0.77449
 Alpha  occ. eigenvalues --   -0.72028  -0.71156  -0.70447  -0.65404  -0.64996
 Alpha  occ. eigenvalues --   -0.64749  -0.62104  -0.61297  -0.59763  -0.57974
 Alpha  occ. eigenvalues --   -0.55685  -0.55243  -0.53331  -0.53079  -0.52805
 Alpha  occ. eigenvalues --   -0.52602  -0.50284  -0.48786  -0.48783  -0.48287
 Alpha  occ. eigenvalues --   -0.46990  -0.46107  -0.46013  -0.44790  -0.44162
 Alpha  occ. eigenvalues --   -0.37307  -0.36304
 Alpha virt. eigenvalues --    0.05069   0.11265   0.16546   0.20932   0.22566
 Alpha virt. eigenvalues --    0.23983   0.26112   0.26435   0.27184   0.28106
 Alpha virt. eigenvalues --    0.28514   0.30387   0.31101   0.31460   0.31870

 Mulliken charges:
               1
     1  C   -0.172469
     2  C   -0.216905
     3  C   -0.173097
     4  C    0.158715
     5  C   -0.171558
     6  C   -0.218474
     7  H    0.225859
     8  H    0.229504
     9  H    0.275814
    10  H    0.275435
    11  H    0.223302
    12  N    0.488070
    13  O   -0.460533
    14  O   -0.460276
    15  C   -0.299209
    16  C   -0.298980
    17  C   -0.484312
    18  H    0.151675
    19  H    0.150965
    20  H    0.151006
    21  H    0.152879
    22  H    0.155661
    23  H    0.164028
    24  H    0.150723
    25  C   -0.298567
    26  C   -0.300117
    27  C   -0.475916
    28  H    0.149119
    29  H    0.149826
    30  H    0.153192
    31  H    0.152976
    32  H    0.155152
    33  H    0.154971
    34  H    0.161540
 Sum of Mulliken charges =  -0.00000

 Dipole moment (field-independent basis, Debye):
    X=             -2.0741    Y=              4.5676    Z=              1.3365  Tot=              5.1915
 Quadrupole moment (field-independent basis, Debye-Ang):
   XX=           -108.8017   YY=            -98.3330   ZZ=            -89.6370
   XY=             15.4899   XZ=              6.7794   YZ=             -0.7458

 Normal termination of Gaussian 16 at Wed May  5 23:52:40 2021.
