 Gaussian 16, Revision A.03,
 Gaussian 16:  EM64L-G16RevA.03 25-Dec-2016

 -------------
 #p 6-31g* mp2
 -------------

 ------------------------------------------------------
 Input file generated by CHIRIPA (05-May-2021 14:55:20)
 ------------------------------------------------------
 Symbolic Z-matrix:
 Charge =  0 Multiplicity = 1

                         Standard orientation:
 ---------------------------------------------------------------------
 Center     Atomic      Atomic             Coordinates (Angstroms)
 Number     Number       Type             X           Y           Z
 ---------------------------------------------------------------------
      1          6           0        1.245879    0.801136    1.876517
      2          6           0        1.469101    1.492232    0.681076
      3          6           0        2.387598    1.010759   -0.256525
      4          6           0        3.068485   -0.170195    0.035074
      5          6           0        2.868040   -0.881456    1.217115
      6          6           0        1.944829   -0.381417    2.140256
      7          1           0        0.530538    1.182367    2.599252
      8          1           0        0.927720    2.410872    0.473586
      9          1           0        2.579782    1.525748   -1.189944
     10          1           0        3.422814   -1.794525    1.395854
     11          1           0        1.773503   -0.920231    3.067819
     12          7           0        4.043352   -0.689736   -0.949868
     13          8           0        4.630466   -1.732418   -0.669249
     14          8           0        4.201879   -0.044432   -1.983836
     15          6           0       -4.276768   -0.377284   -0.452495
     16          6           0       -4.124582   -1.763322    0.174981
     17          6           0       -5.241982   -2.723409   -0.234221
     18          1           0       -5.248947    0.044570   -0.162924
     19          1           0       -4.292942   -0.477540   -1.546607
     20          1           0       -4.107309   -1.660343    1.267552
     21          1           0       -3.152570   -2.181846   -0.115961
     22          1           0       -5.257500   -2.855698   -1.320895
     23          1           0       -6.217663   -2.331232    0.070479
     24          1           0       -5.113543   -3.708241    0.225635
     25          6           0       -3.167238    0.593779   -0.052861
     26          6           0       -3.319425    1.979817   -0.680337
     27          6           0       -2.202026    2.939903   -0.271134
     28          1           0       -3.151064    0.694035    1.041252
     29          1           0       -2.195059    0.171926   -0.342431
     30          1           0       -4.291436    2.398341   -0.389395
     31          1           0       -3.336697    1.876838   -1.772908
     32          1           0       -1.226342    2.547727   -0.575834
     33          1           0       -2.186506    3.072193    0.815540
     34          1           0       -2.330463    3.924736   -0.730991
 ---------------------------------------------------------------------

 SCF Done:  E(RHF) =  -669.535567853     A.U. after   15 cycles
 E2 =    -0.2091361934D+01 EUMP2 =    -0.67162692978641D+03

 The electronic state is 1-A.
 Alpha  occ. eigenvalues --  -20.60755 -20.60750 -15.85809 -11.31169 -11.27742
 Alpha  occ. eigenvalues --  -11.27734 -11.27472 -11.26749 -11.26703 -11.22288
 Alpha  occ. eigenvalues --  -11.22034 -11.21997 -11.21976 -11.21821 -11.21378
 Alpha  occ. eigenvalues --   -1.59831  -1.39385  -1.19341  -1.08977  -1.08732
 Alpha  occ. eigenvalues --   -1.04745  -1.04103  -0.96574  -0.95569  -0.87603
 Alpha  occ. eigenvalues --   -0.86136  -0.82403  -0.80181  -0.78771  -0.77452
 Alpha  occ. eigenvalues --   -0.72026  -0.71155  -0.70441  -0.65609  -0.64990
 Alpha  occ. eigenvalues --   -0.64759  -0.62130  -0.61477  -0.59937  -0.58167
 Alpha  occ. eigenvalues --   -0.55884  -0.55228  -0.53278  -0.53174  -0.53047
 Alpha  occ. eigenvalues --   -0.52675  -0.50507  -0.48794  -0.48782  -0.48470
 Alpha  occ. eigenvalues --   -0.47191  -0.46318  -0.46218  -0.44792  -0.44340
 Alpha  occ. eigenvalues --   -0.37308  -0.36338
 Alpha virt. eigenvalues --    0.05076   0.11220   0.16516   0.20643   0.22488
 Alpha virt. eigenvalues --    0.23926   0.25623   0.26074   0.27075   0.27993
 Alpha virt. eigenvalues --    0.29091   0.29965   0.31206   0.31390   0.31910

 Mulliken charges:
               1
     1  C   -0.171103
     2  C   -0.220894
     3  C   -0.172852
     4  C    0.158564
     5  C   -0.170988
     6  C   -0.218656
     7  H    0.226059
     8  H    0.229324
     9  H    0.275449
    10  H    0.275517
    11  H    0.223356
    12  N    0.488088
    13  O   -0.460532
    14  O   -0.460543
    15  C   -0.298721
    16  C   -0.300106
    17  C   -0.476010
    18  H    0.150218
    19  H    0.151822
    20  H    0.150016
    21  H    0.153571
    22  H    0.156775
    23  H    0.155370
    24  H    0.161174
    25  C   -0.299714
    26  C   -0.299251
    27  C   -0.480873
    28  H    0.145192
    29  H    0.152875
    30  H    0.154248
    31  H    0.155647
    32  H    0.152257
    33  H    0.150495
    34  H    0.164226
 Sum of Mulliken charges =  -0.00000

 Dipole moment (field-independent basis, Debye):
    X=             -3.5625    Y=              1.7905    Z=              3.4241  Tot=              5.2556
 Quadrupole moment (field-independent basis, Debye-Ang):
   XX=           -116.3519   YY=            -93.2459   ZZ=            -92.4872
   XY=              4.6286   XZ=             10.9276   YZ=             -3.2095

 Normal termination of Gaussian 16 at Thu May  6 01:23:02 2021.
