 Gaussian 16, Revision A.03,
 Gaussian 16:  EM64L-G16RevA.03 25-Dec-2016

 -------------
 #p 6-31g* mp2
 -------------

 ------------------------------------------------------
 Input file generated by CHIRIPA (05-May-2021 14:53:13)
 ------------------------------------------------------
 Symbolic Z-matrix:
 Charge =  0 Multiplicity = 1

                         Standard orientation:
 ---------------------------------------------------------------------
 Center     Atomic      Atomic             Coordinates (Angstroms)
 Number     Number       Type             X           Y           Z
 ---------------------------------------------------------------------
      1          6           0       -2.100829   -0.573196    0.462059
      2          6           0       -1.642300   -1.448921    1.628611
      3          6           0       -0.120135   -1.510030    1.759276
      4          1           0       -1.666524   -0.958854   -0.470460
      5          1           0       -1.702336    0.442012    0.596035
      6          1           0       -2.042687   -2.461822    1.493190
      7          1           0       -2.077902   -1.061247    2.558437
      8          1           0        0.293312   -0.508943    1.918922
      9          1           0        0.328727   -1.917475    0.847623
     10          1           0        0.185667   -2.141323    2.599403
     11          6           0       -3.620061   -0.502179    0.318463
     12          6           0       -4.078590    0.373546   -0.848088
     13          6           0       -5.600755    0.434654   -0.978754
     14          1           0       -4.018554   -1.517388    0.184487
     15          1           0       -4.054366   -0.116521    1.250982
     16          1           0       -3.642988   -0.014128   -1.777914
     17          1           0       -3.678204    1.386447   -0.712667
     18          1           0       -6.049618    0.842100   -0.067100
     19          1           0       -6.014202   -0.566433   -1.138400
     20          1           0       -5.906557    1.065948   -1.818881
     21          6           0        1.096151    2.532664    0.473900
     22          6           0        0.509311    1.748512   -0.524722
     23          6           0        1.131232    0.575992   -0.963994
     24          6           0        2.344796    0.215830   -0.380183
     25          6           0        2.954570    0.975988    0.616625
     26          6           0        2.314759    2.144584    1.040388
     27          1           0        0.606078    3.441981    0.809113
     28          1           0       -0.437024    2.047450   -0.966459
     29          1           0        0.699060   -0.049701   -1.735456
     30          1           0        3.898474    0.652173    1.038059
     31          1           0        2.772826    2.751614    1.816102
     32          7           0        3.012666   -1.023387   -0.837010
     33          8           0        4.081352   -1.318891   -0.306705
     34          8           0        2.454808   -1.675715   -1.716726
 ---------------------------------------------------------------------

 SCF Done:  E(RHF) =  -669.533264699     A.U. after   15 cycles
 E2 =    -0.2096347817D+01 EUMP2 =    -0.67162961251585D+03

 The electronic state is 1-A.
 Alpha  occ. eigenvalues --  -20.60805 -20.60796 -15.85836 -11.31141 -11.27743
 Alpha  occ. eigenvalues --  -11.27690 -11.27513 -11.26803 -11.26729 -11.22175
 Alpha  occ. eigenvalues --  -11.21761 -11.21735 -11.21657 -11.21505 -11.20965
 Alpha  occ. eigenvalues --   -1.59867  -1.39423  -1.19367  -1.08801  -1.08752
 Alpha  occ. eigenvalues --   -1.04773  -1.03809  -0.96247  -0.95601  -0.87274
 Alpha  occ. eigenvalues --   -0.86166  -0.82441  -0.79919  -0.78672  -0.77447
 Alpha  occ. eigenvalues --   -0.72065  -0.71184  -0.70480  -0.65465  -0.65016
 Alpha  occ. eigenvalues --   -0.64735  -0.62120  -0.61214  -0.59651  -0.57896
 Alpha  occ. eigenvalues --   -0.55536  -0.55275  -0.53361  -0.52923  -0.52857
 Alpha  occ. eigenvalues --   -0.52555  -0.50189  -0.48825  -0.48817  -0.48142
 Alpha  occ. eigenvalues --   -0.46948  -0.46122  -0.46011  -0.44811  -0.44075
 Alpha  occ. eigenvalues --   -0.37307  -0.36236
 Alpha virt. eigenvalues --    0.05038   0.11124   0.16506   0.20303   0.22887
 Alpha virt. eigenvalues --    0.23818   0.25369   0.25436   0.27505   0.28468
 Alpha virt. eigenvalues --    0.29633   0.30511   0.31148   0.31581   0.31899

 Mulliken charges:
               1
     1  C   -0.302493
     2  C   -0.298406
     3  C   -0.482769
     4  H    0.146735
     5  H    0.148550
     6  H    0.154354
     7  H    0.150230
     8  H    0.157863
     9  H    0.158667
    10  H    0.161360
    11  C   -0.297497
    12  C   -0.300058
    13  C   -0.475542
    14  H    0.152641
    15  H    0.149758
    16  H    0.151552
    17  H    0.143854
    18  H    0.155839
    19  H    0.158129
    20  H    0.160414
    21  C   -0.173870
    22  C   -0.217520
    23  C   -0.166931
    24  C    0.162179
    25  C   -0.172079
    26  C   -0.218647
    27  H    0.225517
    28  H    0.226211
    29  H    0.275050
    30  H    0.275667
    31  H    0.223603
    32  N    0.488637
    33  O   -0.459553
    34  O   -0.461447
 Sum of Mulliken charges =  -0.00000

 Dipole moment (field-independent basis, Debye):
    X=             -2.3231    Y=              4.3135    Z=              1.6157  Tot=              5.1588
 Quadrupole moment (field-independent basis, Debye-Ang):
   XX=           -104.3193   YY=            -92.7392   ZZ=            -94.1566
   XY=             10.8061   XZ=              7.2658   YZ=             -0.1214

 Normal termination of Gaussian 16 at Thu May  6 15:21:34 2021.
