 Gaussian 16, Revision A.03,
 Gaussian 16:  EM64L-G16RevA.03 25-Dec-2016

 -------------
 #p 6-31g* mp2
 -------------

 ------------------------------------------------------
 Input file generated by CHIRIPA (05-May-2021 14:53:13)
 ------------------------------------------------------
 Symbolic Z-matrix:
 Charge =  0 Multiplicity = 1

                         Standard orientation:
 ---------------------------------------------------------------------
 Center     Atomic      Atomic             Coordinates (Angstroms)
 Number     Number       Type             X           Y           Z
 ---------------------------------------------------------------------
      1          6           0        4.522357   -0.389210    0.327029
      2          6           0        4.501152   -1.860351   -0.089240
      3          6           0        5.444594   -2.725096    0.747376
      4          1           0        5.547926   -0.004964    0.240385
      5          1           0        4.248125   -0.311653    1.388243
      6          1           0        4.773997   -1.934989   -1.149712
      7          1           0        3.475479   -2.241088   -0.001778
      8          1           0        5.170780   -2.680360    1.806444
      9          1           0        6.476677   -2.372522    0.651988
     10          1           0        5.413619   -3.772960    0.432922
     11          6           0        3.584304    0.488027   -0.500159
     12          6           0        3.605509    1.959168   -0.083891
     13          6           0        2.662066    2.823913   -0.920507
     14          1           0        3.858536    0.410470   -1.561374
     15          1           0        2.558735    0.103781   -0.413515
     16          1           0        4.631182    2.339904   -0.171353
     17          1           0        3.332664    2.033805    0.976581
     18          1           0        1.629984    2.471339   -0.825119
     19          1           0        2.935881    2.779176   -1.979575
     20          1           0        2.693042    3.871777   -0.606053
     21          6           0       -1.060096    1.287031    0.481141
     22          6           0       -1.038655    0.192074   -0.388991
     23          6           0       -2.199870   -0.549644   -0.625597
     24          6           0       -3.370319   -0.166757    0.027652
     25          6           0       -3.423646    0.919118    0.900189
     26          6           0       -2.250425    1.646425    1.121824
     27          1           0       -0.153373    1.857619    0.659127
     28          1           0       -0.115665   -0.089331   -0.887934
     29          1           0       -2.211477   -1.401786   -1.294280
     30          1           0       -4.358839    1.175454    1.383019
     31          1           0       -2.270032    2.496316    1.798099
     32          7           0       -4.606002   -0.944354   -0.214908
     33          8           0       -5.624413   -0.586612    0.372883
     34          8           0       -4.532720   -1.896850   -0.988223
 ---------------------------------------------------------------------

 SCF Done:  E(RHF) =  -669.535354864     A.U. after   15 cycles
 E2 =    -0.2091782005D+01 EUMP2 =    -0.67162713686951D+03

 The electronic state is 1-A.
 Alpha  occ. eigenvalues --  -20.60749 -20.60744 -15.85803 -11.31172 -11.27740
 Alpha  occ. eigenvalues --  -11.27736 -11.27460 -11.26753 -11.26741 -11.22694
 Alpha  occ. eigenvalues --  -11.22478 -11.22291 -11.22287 -11.22184 -11.21601
 Alpha  occ. eigenvalues --   -1.59825  -1.39378  -1.19343  -1.09368  -1.08738
 Alpha  occ. eigenvalues --   -1.04746  -1.04427  -0.96885  -0.95573  -0.87895
 Alpha  occ. eigenvalues --   -0.86146  -0.82406  -0.80501  -0.79157  -0.77450
 Alpha  occ. eigenvalues --   -0.72021  -0.71148  -0.70484  -0.66026  -0.64994
 Alpha  occ. eigenvalues --   -0.64740  -0.62111  -0.61810  -0.60258  -0.58481
 Alpha  occ. eigenvalues --   -0.56294  -0.55170  -0.53550  -0.53297  -0.53062
 Alpha  occ. eigenvalues --   -0.52838  -0.50817  -0.48808  -0.48778  -0.48771
 Alpha  occ. eigenvalues --   -0.47545  -0.46696  -0.46596  -0.44783  -0.44679
 Alpha  occ. eigenvalues --   -0.37319  -0.36349
 Alpha virt. eigenvalues --    0.05072   0.11261   0.16527   0.18276   0.22720
 Alpha virt. eigenvalues --    0.23636   0.24500   0.26017   0.26655   0.28138
 Alpha virt. eigenvalues --    0.29176   0.29934   0.30881   0.31310   0.31667

 Mulliken charges:
               1
     1  C   -0.298577
     2  C   -0.300294
     3  C   -0.476265
     4  H    0.152718
     5  H    0.150635
     6  H    0.153199
     7  H    0.150833
     8  H    0.156252
     9  H    0.156398
    10  H    0.162728
    11  C   -0.300961
    12  C   -0.301585
    13  C   -0.480097
    14  H    0.153158
    15  H    0.142109
    16  H    0.157795
    17  H    0.150579
    18  H    0.146179
    19  H    0.161313
    20  H    0.164341
    21  C   -0.175519
    22  C   -0.224049
    23  C   -0.171212
    24  C    0.158668
    25  C   -0.170937
    26  C   -0.218881
    27  H    0.230910
    28  H    0.228305
    29  H    0.275898
    30  H    0.275545
    31  H    0.223670
    32  N    0.487998
    33  O   -0.460443
    34  O   -0.460412
 Sum of Mulliken charges =  -0.00000

 Dipole moment (field-independent basis, Debye):
    X=              4.6054    Y=              2.7372    Z=              0.8462  Tot=              5.4238
 Quadrupole moment (field-independent basis, Debye-Ang):
   XX=           -121.9958   YY=            -94.5813   ZZ=            -93.0390
   XY=            -11.0866   XZ=             -5.5181   YZ=              2.3353

 Normal termination of Gaussian 16 at Thu May  6 05:46:31 2021.
