 Gaussian 16, Revision A.03,
 Gaussian 16:  EM64L-G16RevA.03 25-Dec-2016

 -------------
 #p 6-31g* mp2
 -------------

 ------------------------------------------------------
 Input file generated by CHIRIPA (05-May-2021 14:51:11)
 ------------------------------------------------------
 Symbolic Z-matrix:
 Charge =  0 Multiplicity = 1

                         Standard orientation:
 ---------------------------------------------------------------------
 Center     Atomic      Atomic             Coordinates (Angstroms)
 Number     Number       Type             X           Y           Z
 ---------------------------------------------------------------------
      1          6           0       -2.831667   -0.870419    0.240753
      2          6           0       -1.683296   -1.409029    1.094643
      3          6           0       -1.660585   -2.936482    1.159191
      4          1           0       -3.784806   -1.235889    0.646837
      5          1           0       -2.747229   -1.280062   -0.775346
      6          1           0       -1.769087   -0.997401    2.108457
      7          1           0       -0.732792   -1.042078    0.686593
      8          1           0       -1.551329   -3.362841    0.156753
      9          1           0       -2.593512   -3.317910    1.586695
     10          1           0       -0.831792   -3.300018    1.774661
     11          6           0       -2.867686    0.655008    0.166571
     12          6           0       -4.016057    1.193618   -0.687319
     13          6           0       -4.038768    2.721071   -0.751866
     14          1           0       -2.952124    1.064650    1.182671
     15          1           0       -1.914547    1.020478   -0.239513
     16          1           0       -4.966561    0.826667   -0.279268
     17          1           0       -3.930266    0.781989   -1.701132
     18          1           0       -3.105841    3.102499   -1.179371
     19          1           0       -4.148024    3.147430    0.250572
     20          1           0       -4.867561    3.084606   -1.367337
     21          6           0        3.371461    0.613694    0.031176
     22          6           0        2.787909    1.997515    0.318391
     23          6           0        3.844059    2.998764    0.787264
     24          1           0        3.861650    0.234026    0.938101
     25          1           0        4.155759    0.705544   -0.732915
     26          1           0        2.003990    1.902886    1.080710
     27          1           0        2.298886    2.373850   -0.589268
     28          1           0        4.621894    3.122656    0.026852
     29          1           0        4.325321    2.649016    1.706320
     30          1           0        3.405175    3.981313    0.986859
     31          6           0        2.327892   -0.398282   -0.438500
     32          6           0        2.911443   -1.782104   -0.725715
     33          6           0        1.855294   -2.783353   -1.194588
     34          1           0        1.543594   -0.490132    0.325591
     35          1           0        1.837704   -0.018615   -1.345425
     36          1           0        3.400467   -2.158439    0.181943
     37          1           0        3.695364   -1.687475   -1.488035
     38          1           0        1.374032   -2.433604   -2.113644
     39          1           0        1.077460   -2.907245   -0.434176
     40          1           0        2.294178   -3.765902   -1.394183
 ---------------------------------------------------------------------

 SCF Done:  E(RHF) =  -470.733004946     A.U. after   11 cycles
 E2 =    -0.1583805073D+01 EUMP2 =    -0.47231681001892D+03

 The electronic state is 1-A.
 Alpha  occ. eigenvalues --  -11.21619 -11.21617 -11.21586 -11.21572 -11.21430
 Alpha  occ. eigenvalues --  -11.21383 -11.21371 -11.21324 -11.21082 -11.21081
 Alpha  occ. eigenvalues --  -11.21058 -11.21050  -1.08467  -1.08404  -1.03572
 Alpha  occ. eigenvalues --   -1.03498  -0.96018  -0.95952  -0.87050  -0.86952
 Alpha  occ. eigenvalues --   -0.79628  -0.79577  -0.78354  -0.78154  -0.65200
 Alpha  occ. eigenvalues --   -0.64952  -0.61120  -0.60770  -0.59399  -0.59297
 Alpha  occ. eigenvalues --   -0.57614  -0.57582  -0.55409  -0.55149  -0.52685
 Alpha  occ. eigenvalues --   -0.52674  -0.52439  -0.52388  -0.50088  -0.49754
 Alpha  occ. eigenvalues --   -0.48041  -0.47826  -0.46768  -0.46586  -0.46072
 Alpha  occ. eigenvalues --   -0.45773  -0.45724  -0.45235  -0.43801  -0.43773
 Alpha virt. eigenvalues --    0.20833   0.23196   0.23422   0.25048   0.25233
 Alpha virt. eigenvalues --    0.26659   0.26755   0.27482   0.28788   0.29427
 Alpha virt. eigenvalues --    0.30997   0.31356   0.31543   0.31772   0.32372

 Mulliken charges:
               1
     1  C   -0.297311
     2  C   -0.310706
     3  C   -0.477452
     4  H    0.149483
     5  H    0.149818
     6  H    0.151367
     7  H    0.161787
     8  H    0.157110
     9  H    0.155825
    10  H    0.159289
    11  C   -0.298810
    12  C   -0.299646
    13  C   -0.475692
    14  H    0.149228
    15  H    0.150481
    16  H    0.151878
    17  H    0.151893
    18  H    0.155229
    19  H    0.155128
    20  H    0.160156
    21  C   -0.297420
    22  C   -0.299939
    23  C   -0.475716
    24  H    0.149735
    25  H    0.149667
    26  H    0.152404
    27  H    0.151567
    28  H    0.155186
    29  H    0.155259
    30  H    0.160406
    31  C   -0.306315
    32  C   -0.299056
    33  C   -0.482914
    34  H    0.157153
    35  H    0.148737
    36  H    0.151805
    37  H    0.151985
    38  H    0.154182
    39  H    0.163847
    40  H    0.160371
 Sum of Mulliken charges =  -0.00000

 Dipole moment (field-independent basis, Debye):
    X=              0.0067    Y=             -0.0037    Z=              0.0051  Tot=              0.0092
 Quadrupole moment (field-independent basis, Debye-Ang):
   XX=            -84.8818   YY=            -86.6048   ZZ=            -83.3332
   XY=             -0.3248   XZ=             -0.8550   YZ=             -0.3802

 Normal termination of Gaussian 16 at Thu May  6 03:53:05 2021.
