 Gaussian 16, Revision A.03,
 Gaussian 16:  EM64L-G16RevA.03 25-Dec-2016

 -------------
 #p 6-31g* mp2
 -------------

 ------------------------------------------------------
 Input file generated by CHIRIPA (05-May-2021 14:57:23)
 ------------------------------------------------------
 Symbolic Z-matrix:
 Charge =  0 Multiplicity = 1

                         Standard orientation:
 ---------------------------------------------------------------------
 Center     Atomic      Atomic             Coordinates (Angstroms)
 Number     Number       Type             X           Y           Z
 ---------------------------------------------------------------------
      1          6           0       -5.942217   -1.842067    0.082441
      2          6           0       -4.597753   -2.112567    0.357698
      3          6           0       -3.645402   -1.089780    0.319167
      4          6           0       -4.074372    0.197715    0.000372
      5          6           0       -5.406551    0.498861   -0.278738
      6          6           0       -6.341621   -0.539513   -0.234340
      7          1           0       -6.675314   -2.642646    0.114652
      8          1           0       -4.284700   -3.123197    0.604009
      9          1           0       -2.598082   -1.271273    0.527970
     10          1           0       -5.688372    1.516318   -0.521175
     11          1           0       -7.385070   -0.326513   -0.448558
     12          7           0       -3.075308    1.288744   -0.043525
     13          8           0       -3.478767    2.414577   -0.326999
     14          8           0       -1.907701    0.997400    0.206374
     15          6           0        2.079165    1.277798    0.140960
     16          6           0        2.053665   -0.100882   -0.093802
     17          6           0        3.244225   -0.828908   -0.178038
     18          6           0        4.447838   -0.143163   -0.021970
     19          6           0        4.506066    1.229696    0.212885
     20          6           0        3.303126    1.937523    0.293285
     21          1           0        1.149501    1.835500    0.204907
     22          1           0        1.104587   -0.615865   -0.212498
     23          1           0        3.253445   -1.896901   -0.358941
     24          1           0        5.467599    1.715335    0.327014
     25          1           0        3.325965    3.008154    0.475694
     26          7           0        5.714783   -0.903200   -0.109116
     27          8           0        6.762128   -0.275655    0.031921
     28          8           0        5.636479   -2.112071   -0.316810
 ---------------------------------------------------------------------

 SCF Done:  E(RHF) =  -868.340644408     A.U. after   16 cycles
 E2 =    -0.2598282056D+01 EUMP2 =    -0.87093892646399D+03

 The electronic state is 1-A.
 Alpha  occ. eigenvalues --  -20.61955 -20.61910 -20.60159 -20.60152 -15.86960
 Alpha  occ. eigenvalues --  -15.85207 -11.32019 -11.30358 -11.28579 -11.28522
 Alpha  occ. eigenvalues --  -11.28211 -11.27491 -11.27467 -11.26933 -11.26929
 Alpha  occ. eigenvalues --  -11.26363 -11.25810 -11.25770  -1.60984  -1.59240
 Alpha  occ. eigenvalues --   -1.40551  -1.38800  -1.20155  -1.18494  -1.09602
 Alpha  occ. eigenvalues --   -1.07873  -1.05514  -1.03883  -0.96493  -0.94751
 Alpha  occ. eigenvalues --   -0.86925  -0.85253  -0.83343  -0.81615  -0.78425
 Alpha  occ. eigenvalues --   -0.76738  -0.73210  -0.72277  -0.71427  -0.71258
 Alpha  occ. eigenvalues --   -0.70563  -0.69450  -0.65813  -0.65509  -0.64119
 Alpha  occ. eigenvalues --   -0.63849  -0.62870  -0.61248  -0.56013  -0.54180
 Alpha  occ. eigenvalues --   -0.53854  -0.53600  -0.52212  -0.51952  -0.49963
 Alpha  occ. eigenvalues --   -0.49903  -0.48197  -0.48161  -0.46020  -0.44255
 Alpha  occ. eigenvalues --   -0.38106  -0.37101  -0.36385  -0.35518
 Alpha virt. eigenvalues --    0.04095   0.05811   0.10559   0.12162   0.15656
 Alpha virt. eigenvalues --    0.17385   0.20466   0.22379   0.26124   0.27073
 Alpha virt. eigenvalues --    0.28501   0.29390   0.30449   0.31339   0.32641

 Mulliken charges:
               1
     1  C   -0.169594
     2  C   -0.218179
     3  C   -0.170126
     4  C    0.158262
     5  C   -0.170038
     6  C   -0.218349
     7  H    0.228704
     8  H    0.225855
     9  H    0.271160
    10  H    0.276933
    11  H    0.226208
    12  N    0.492420
    13  O   -0.455241
    14  O   -0.475092
    15  C   -0.176043
    16  C   -0.221177
    17  C   -0.172690
    18  C    0.157037
    19  C   -0.171801
    20  C   -0.220302
    21  H    0.249171
    22  H    0.225053
    23  H    0.270666
    24  H    0.272650
    25  H    0.222550
    26  N    0.488366
    27  O   -0.462605
    28  O   -0.463799
 Sum of Mulliken charges =  -0.00000

 Dipole moment (field-independent basis, Debye):
    X=             -8.6680    Y=             -1.0584    Z=              0.4578  Tot=              8.7444
 Quadrupole moment (field-independent basis, Debye-Ang):
   XX=           -112.5425   YY=           -101.6656   ZZ=           -106.1470
   XY=             28.1015   XZ=              2.4406   YZ=             -0.2877

 Normal termination of Gaussian 16 at Fri May  7 03:23:01 2021.
