 Gaussian 16, Revision A.03,
 Gaussian 16:  EM64L-G16RevA.03 25-Dec-2016

 -------------
 #p 6-31g* mp2
 -------------

 ------------------------------------------------------
 Input file generated by CHIRIPA (05-May-2021 14:53:17)
 ------------------------------------------------------
 Symbolic Z-matrix:
 Charge =  0 Multiplicity = 1

                         Standard orientation:
 ---------------------------------------------------------------------
 Center     Atomic      Atomic             Coordinates (Angstroms)
 Number     Number       Type             X           Y           Z
 ---------------------------------------------------------------------
      1          6           0        2.491089   -0.631910   -0.170770
      2          6           0        3.374861   -1.847490    0.110825
      3          6           0        2.603949   -3.166358    0.046969
      4          1           0        1.665448   -0.611110    0.553681
      5          1           0        2.033158   -0.742326   -1.163495
      6          1           0        3.832078   -1.734153    1.102149
      7          1           0        4.198602   -1.865292   -0.614261
      8          1           0        2.160977   -3.306040   -0.944426
      9          1           0        1.792372   -3.174156    0.781736
     10          1           0        3.254868   -4.022157    0.251353
     11          6           0        3.247463    0.693987   -0.110556
     12          6           0        2.363691    1.909567   -0.392151
     13          6           0        3.134602    3.228435   -0.328296
     14          1           0        3.705394    0.804403    0.882169
     15          1           0        4.073103    0.673187   -0.835008
     16          1           0        1.539950    1.927369    0.332935
     17          1           0        1.906473    1.796231   -1.383475
     18          1           0        3.946180    3.236233   -1.063062
     19          1           0        3.577574    3.368117    0.663100
     20          1           0        2.483683    4.084234   -0.532679
     21          6           0       -2.387122    2.483963    0.341472
     22          6           0       -3.304461    1.800951   -0.463827
     23          6           0       -3.233332    0.411315   -0.599484
     24          6           0       -2.227555   -0.266733    0.087505
     25          6           0       -1.298939    0.385334    0.897301
     26          6           0       -1.389049    1.775224    1.018272
     27          1           0       -2.449750    3.563564    0.441148
     28          1           0       -4.080629    2.348768   -0.990612
     29          1           0       -3.930578   -0.142539   -1.216339
     30          1           0       -0.536297   -0.188129    1.410073
     31          1           0       -0.675277    2.303030    1.644367
     32          7           0       -2.142206   -1.738013   -0.048335
     33          8           0       -1.246761   -2.312267    0.567333
     34          8           0       -2.972372   -2.289089   -0.767904
 ---------------------------------------------------------------------

 SCF Done:  E(RHF) =  -669.534738584     A.U. after   15 cycles
 E2 =    -0.2093937613D+01 EUMP2 =    -0.67162867619689D+03

 The electronic state is 1-A.
 Alpha  occ. eigenvalues --  -20.60834 -20.60824 -15.85874 -11.31217 -11.27788
 Alpha  occ. eigenvalues --  -11.27782 -11.27526 -11.26801 -11.26790 -11.21911
 Alpha  occ. eigenvalues --  -11.21488 -11.21457 -11.21288 -11.21209 -11.20213
 Alpha  occ. eigenvalues --   -1.59895  -1.39450  -1.19395  -1.08791  -1.08427
 Alpha  occ. eigenvalues --   -1.04802  -1.03430  -0.95855  -0.95630  -0.86869
 Alpha  occ. eigenvalues --   -0.86195  -0.82474  -0.79540  -0.78247  -0.77467
 Alpha  occ. eigenvalues --   -0.72096  -0.71210  -0.70512  -0.65122  -0.65035
 Alpha  occ. eigenvalues --   -0.64826  -0.62147  -0.60836  -0.59306  -0.57450
 Alpha  occ. eigenvalues --   -0.55317  -0.55127  -0.53143  -0.52937  -0.52543
 Alpha  occ. eigenvalues --   -0.52219  -0.49786  -0.48858  -0.48850  -0.47806
 Alpha  occ. eigenvalues --   -0.46600  -0.45754  -0.45626  -0.44785  -0.43703
 Alpha  occ. eigenvalues --   -0.37365  -0.36329
 Alpha virt. eigenvalues --    0.04979   0.11167   0.16358   0.20139   0.23181
 Alpha virt. eigenvalues --    0.24003   0.25313   0.27090   0.27664   0.28173
 Alpha virt. eigenvalues --    0.29369   0.30649   0.31608   0.31743   0.32234

 Mulliken charges:
               1
     1  C   -0.299132
     2  C   -0.300311
     3  C   -0.478086
     4  H    0.146447
     5  H    0.152011
     6  H    0.148668
     7  H    0.149997
     8  H    0.157689
     9  H    0.170906
    10  H    0.156375
    11  C   -0.298563
    12  C   -0.300505
    13  C   -0.475698
    14  H    0.147562
    15  H    0.151274
    16  H    0.143701
    17  H    0.154624
    18  H    0.158094
    19  H    0.154153
    20  H    0.156600
    21  C   -0.171707
    22  C   -0.218617
    23  C   -0.170812
    24  C    0.156904
    25  C   -0.168114
    26  C   -0.217535
    27  H    0.225866
    28  H    0.223546
    29  H    0.275625
    30  H    0.278229
    31  H    0.223455
    32  N    0.489786
    33  O   -0.462563
    34  O   -0.459870
 Sum of Mulliken charges =  -0.00000

 Dipole moment (field-independent basis, Debye):
    X=             -0.4053    Y=              5.0462    Z=              0.4194  Tot=              5.0797
 Quadrupole moment (field-independent basis, Debye-Ang):
   XX=            -91.0220   YY=            -99.1372   ZZ=            -92.3271
   XY=            -12.2439   XZ=              1.3728   YZ=              0.2880

 Normal termination of Gaussian 16 at Thu May  6 06:01:23 2021.
