 Gaussian 16, Revision A.03,
 Gaussian 16:  EM64L-G16RevA.03 25-Dec-2016

 -------------
 #p 6-31g* mp2
 -------------

 ------------------------------------------------------
 Input file generated by CHIRIPA (05-May-2021 14:51:09)
 ------------------------------------------------------
 Symbolic Z-matrix:
 Charge =  0 Multiplicity = 1

                         Standard orientation:
 ---------------------------------------------------------------------
 Center     Atomic      Atomic             Coordinates (Angstroms)
 Number     Number       Type             X           Y           Z
 ---------------------------------------------------------------------
      1          6           0       -3.323460    0.032018    0.076956
      2          6           0       -4.522622   -0.404549   -0.765306
      3          6           0       -5.458857    0.755094   -1.106607
      4          1           0       -3.684741    0.498423    1.003718
      5          1           0       -2.765504    0.807282   -0.466225
      6          1           0       -5.077366   -1.179747   -0.221300
      7          1           0       -4.158443   -0.870142   -1.690084
      8          1           0       -4.925926    1.527206   -1.670902
      9          1           0       -5.850070    1.215842   -0.193773
     10          1           0       -6.309154    0.420621   -1.709087
     11          6           0       -2.378304   -1.116200    0.426247
     12          6           0       -1.179143   -0.679633    1.268509
     13          6           0       -0.242908   -1.839277    1.609809
     14          1           0       -2.936260   -1.891464    0.969428
     15          1           0       -2.017024   -1.582605   -0.500515
     16          1           0       -1.543321   -0.214040    2.193286
     17          1           0       -0.624398    0.095565    0.724503
     18          1           0        0.148305   -2.300024    0.696976
     19          1           0       -0.775839   -2.611388    2.174104
     20          1           0        0.607389   -1.504803    2.212289
     21          6           0        2.574380    1.038701    0.258651
     22          6           0        2.197752    2.389004   -0.351937
     23          6           0        1.646146    3.371787    0.681341
     24          1           0        1.690340    0.603964    0.744885
     25          1           0        3.320110    1.197178    1.049958
     26          1           0        1.453979    2.227886   -1.142797
     27          1           0        3.082743    2.820488   -0.836939
     28          1           0        2.386029    3.561856    1.465589
     29          1           0        0.748011    2.965887    1.157995
     30          1           0        1.383364    4.330441    0.223315
     31          6           0        3.127385    0.045482   -0.761854
     32          6           0        3.504013   -1.304821   -0.151265
     33          6           0        4.055618   -2.287605   -1.184543
     34          1           0        2.381654   -0.112996   -1.553161
     35          1           0        4.011424    0.480218   -1.248087
     36          1           0        2.619021   -1.736306    0.333737
     37          1           0        4.247786   -1.143704    0.639594
     38          1           0        4.953754   -1.881704   -1.661197
     39          1           0        3.315735   -2.477674   -1.968792
     40          1           0        4.318400   -3.246260   -0.726517
 ---------------------------------------------------------------------

 SCF Done:  E(RHF) =  -470.732611010     A.U. after   11 cycles
 E2 =    -0.1584304454D+01 EUMP2 =    -0.47231691546364D+03

 The electronic state is 1-A.
 Alpha  occ. eigenvalues --  -11.21706 -11.21649 -11.21593 -11.21496 -11.21481
 Alpha  occ. eigenvalues --  -11.21418 -11.21355 -11.21289 -11.21173 -11.21105
 Alpha  occ. eigenvalues --  -11.21058 -11.21030  -1.08521  -1.08384  -1.03615
 Alpha  occ. eigenvalues --   -1.03495  -0.96067  -0.95943  -0.87085  -0.86958
 Alpha  occ. eigenvalues --   -0.79728  -0.79512  -0.78344  -0.78193  -0.65345
 Alpha  occ. eigenvalues --   -0.64883  -0.61003  -0.60906  -0.59434  -0.59314
 Alpha  occ. eigenvalues --   -0.57718  -0.57517  -0.55374  -0.55217  -0.52784
 Alpha  occ. eigenvalues --   -0.52622  -0.52492  -0.52361  -0.50120  -0.49810
 Alpha  occ. eigenvalues --   -0.48016  -0.47883  -0.46902  -0.46383  -0.46003
 Alpha  occ. eigenvalues --   -0.45792  -0.45718  -0.45406  -0.43850  -0.43741
 Alpha virt. eigenvalues --    0.20151   0.23215   0.23364   0.24383   0.26171
 Alpha virt. eigenvalues --    0.26621   0.27120   0.27683   0.28068   0.29828
 Alpha virt. eigenvalues --    0.30587   0.31299   0.31689   0.31950   0.32291

 Mulliken charges:
               1
     1  C   -0.298542
     2  C   -0.299714
     3  C   -0.475774
     4  H    0.149932
     5  H    0.149520
     6  H    0.152091
     7  H    0.151974
     8  H    0.155295
     9  H    0.155317
    10  H    0.160429
    11  C   -0.297963
    12  C   -0.305907
    13  C   -0.480252
    14  H    0.150008
    15  H    0.149687
    16  H    0.152741
    17  H    0.155905
    18  H    0.157087
    19  H    0.156471
    20  H    0.162912
    21  C   -0.308448
    22  C   -0.299267
    23  C   -0.476720
    24  H    0.160386
    25  H    0.149313
    26  H    0.150805
    27  H    0.152122
    28  H    0.155256
    29  H    0.155967
    30  H    0.160154
    31  C   -0.297111
    32  C   -0.307463
    33  C   -0.475391
    34  H    0.148083
    35  H    0.149516
    36  H    0.160896
    37  H    0.151248
    38  H    0.154975
    39  H    0.154312
    40  H    0.160152
 Sum of Mulliken charges =  -0.00000

 Dipole moment (field-independent basis, Debye):
    X=             -0.0566    Y=             -0.0250    Z=              0.0432  Tot=              0.0755
 Quadrupole moment (field-independent basis, Debye-Ang):
   XX=            -84.4739   YY=            -85.8650   ZZ=            -84.5043
   XY=              1.3429   XZ=             -0.2201   YZ=             -0.4135

 Normal termination of Gaussian 16 at Wed May  5 16:37:33 2021.
