 Gaussian 16, Revision A.03,
 Gaussian 16:  EM64L-G16RevA.03 25-Dec-2016

 -------------
 #p 6-31g* mp2
 -------------

 ------------------------------------------------------
 Input file generated by CHIRIPA (05-May-2021 14:53:12)
 ------------------------------------------------------
 Symbolic Z-matrix:
 Charge =  0 Multiplicity = 1

                         Standard orientation:
 ---------------------------------------------------------------------
 Center     Atomic      Atomic             Coordinates (Angstroms)
 Number     Number       Type             X           Y           Z
 ---------------------------------------------------------------------
      1          6           0       -4.958015    0.501379   -0.140496
      2          6           0       -6.418034    0.048219   -0.109259
      3          6           0       -7.400460    1.206797   -0.283413
      4          1           0       -4.794474    1.244889    0.651585
      5          1           0       -4.759918    1.011215   -1.093501
      6          1           0       -6.612951   -0.461832    0.842830
      7          1           0       -6.578072   -0.694441   -0.901382
      8          1           0       -7.234664    1.711921   -1.240472
      9          1           0       -7.269742    1.945852    0.513650
     10          1           0       -8.438340    0.860360   -0.257967
     11          6           0       -3.963868   -0.645585    0.032344
     12          6           0       -2.503850   -0.192425    0.001107
     13          6           0       -1.521424   -1.351003    0.175262
     14          1           0       -4.161966   -1.155422    0.985350
     15          1           0       -4.127410   -1.389096   -0.759736
     16          1           0       -2.343812    0.550235    0.793231
     17          1           0       -2.308932    0.317625   -0.950981
     18          1           0       -1.652142   -2.090059   -0.621802
     19          1           0       -1.687220   -1.856128    1.132321
     20          1           0       -0.483544   -1.004567    0.149815
     21          6           0        2.737066   -2.352255    0.113412
     22          6           0        3.736828   -1.955908   -0.780961
     23          6           0        4.159159   -0.624040   -0.829060
     24          6           0        3.557429    0.289184    0.035367
     25          6           0        2.559007   -0.074876    0.937533
     26          6           0        2.152377   -1.412132    0.968297
     27          1           0        2.415086   -3.388975    0.144045
     28          1           0        4.192680   -2.683851   -1.446049
     29          1           0        4.931082   -0.289997   -1.511677
     30          1           0        2.123293    0.673622    1.588165
     31          1           0        1.375732   -1.717090    1.663904
     32          7           0        3.996222    1.702025   -0.006378
     33          8           0        3.450307    2.487286    0.765619
     34          8           0        4.877753    1.997395   -0.810304
 ---------------------------------------------------------------------

 SCF Done:  E(RHF) =  -669.534903896     A.U. after   15 cycles
 E2 =    -0.2091868655D+01 EUMP2 =    -0.67162677255136D+03

 The electronic state is 1-A.
 Alpha  occ. eigenvalues --  -20.60782 -20.60776 -15.85835 -11.31217 -11.27777
 Alpha  occ. eigenvalues --  -11.27773 -11.27507 -11.26799 -11.26758 -11.21978
 Alpha  occ. eigenvalues --  -11.21781 -11.21692 -11.21592 -11.21574 -11.21197
 Alpha  occ. eigenvalues --   -1.59857  -1.39410  -1.19392  -1.08782  -1.08704
 Alpha  occ. eigenvalues --   -1.04804  -1.03832  -0.96303  -0.95609  -0.87340
 Alpha  occ. eigenvalues --   -0.86178  -0.82445  -0.79905  -0.78504  -0.77490
 Alpha  occ. eigenvalues --   -0.72053  -0.71180  -0.70481  -0.65340  -0.65038
 Alpha  occ. eigenvalues --   -0.64807  -0.62169  -0.61230  -0.59678  -0.57908
 Alpha  occ. eigenvalues --   -0.55598  -0.55276  -0.53482  -0.52959  -0.52759
 Alpha  occ. eigenvalues --   -0.52507  -0.50243  -0.48812  -0.48807  -0.48214
 Alpha  occ. eigenvalues --   -0.46927  -0.46052  -0.45966  -0.44812  -0.44091
 Alpha  occ. eigenvalues --   -0.37346  -0.36337
 Alpha virt. eigenvalues --    0.05029   0.11217   0.16454   0.21080   0.22660
 Alpha virt. eigenvalues --    0.24066   0.26231   0.26674   0.27263   0.28278
 Alpha virt. eigenvalues --    0.28562   0.30455   0.31352   0.31717   0.32077

 Mulliken charges:
               1
     1  C   -0.298698
     2  C   -0.299783
     3  C   -0.475898
     4  H    0.150639
     5  H    0.150866
     6  H    0.151577
     7  H    0.151780
     8  H    0.155908
     9  H    0.155831
    10  H    0.160551
    11  C   -0.298560
    12  C   -0.298485
    13  C   -0.486347
    14  H    0.148546
    15  H    0.149532
    16  H    0.152353
    17  H    0.155400
    18  H    0.155406
    19  H    0.148868
    20  H    0.166235
    21  C   -0.171700
    22  C   -0.218406
    23  C   -0.170993
    24  C    0.159068
    25  C   -0.172782
    26  C   -0.218824
    27  H    0.226456
    28  H    0.223630
    29  H    0.275707
    30  H    0.276032
    31  H    0.228602
    32  N    0.488097
    33  O   -0.460269
    34  O   -0.460340
 Sum of Mulliken charges =  -0.00000

 Dipole moment (field-independent basis, Debye):
    X=             -1.5476    Y=             -4.9598    Z=              0.1112  Tot=              5.1968
 Quadrupole moment (field-independent basis, Debye-Ang):
   XX=           -104.5199   YY=            -98.5542   ZZ=            -91.5268
   XY=            -18.8263   XZ=             -2.2992   YZ=              1.0721

 Normal termination of Gaussian 16 at Thu May  6 04:07:53 2021.
