 Gaussian 16, Revision A.03,
 Gaussian 16:  EM64L-G16RevA.03 25-Dec-2016

 -------------
 #p 6-31g* mp2
 -------------

 ------------------------------------------------------
 Input file generated by CHIRIPA (05-May-2021 14:57:24)
 ------------------------------------------------------
 Symbolic Z-matrix:
 Charge =  0 Multiplicity = 1

                         Standard orientation:
 ---------------------------------------------------------------------
 Center     Atomic      Atomic             Coordinates (Angstroms)
 Number     Number       Type             X           Y           Z
 ---------------------------------------------------------------------
      1          6           0       -2.442918    2.594569   -0.365982
      2          6           0       -1.563728    1.506674   -0.360515
      3          6           0       -2.046982    0.204016   -0.205284
      4          6           0       -3.421500    0.024863   -0.057315
      5          6           0       -4.322818    1.088306   -0.058605
      6          6           0       -3.817235    2.382288   -0.215275
      7          1           0       -2.058842    3.603135   -0.487128
      8          1           0       -0.495930    1.668543   -0.477354
      9          1           0       -1.388719   -0.656243   -0.197383
     10          1           0       -5.382133    0.895422    0.059995
     11          1           0       -4.502371    3.225270   -0.219136
     12          7           0       -3.944919   -1.349610    0.107783
     13          8           0       -5.160192   -1.480829    0.236345
     14          8           0       -3.129990   -2.269677    0.105498
     15          6           0        4.474384    1.996287    0.211795
     16          6           0        3.207687    1.820411    0.778424
     17          6           0        2.567081    0.579442    0.713870
     18          6           0        3.225105   -0.468689    0.072222
     19          6           0        4.487226   -0.324867   -0.501935
     20          6           0        5.108992    0.924975   -0.425452
     21          1           0        4.964705    2.963747    0.266577
     22          1           0        2.712461    2.650626    1.273943
     23          1           0        1.586516    0.415573    1.144055
     24          1           0        4.955798   -1.171220   -0.989322
     25          1           0        6.092732    1.058658   -0.866392
     26          7           0        2.556897   -1.787145   -0.002433
     27          8           0        3.157803   -2.694718   -0.573275
     28          8           0        1.444901   -1.888012    0.511307
 ---------------------------------------------------------------------

 SCF Done:  E(RHF) =  -868.337564483     A.U. after   16 cycles
 E2 =    -0.2600314208D+01 EUMP2 =    -0.87093787869159D+03

 The electronic state is 1-A.
 Alpha  occ. eigenvalues --  -20.61333 -20.61293 -20.60272 -20.60222 -15.86357
 Alpha  occ. eigenvalues --  -15.85308 -11.31833 -11.30844 -11.28457 -11.28354
 Alpha  occ. eigenvalues --  -11.28129 -11.27512 -11.27484 -11.27388 -11.27358
 Alpha  occ. eigenvalues --  -11.27348 -11.26572 -11.26560  -1.60371  -1.59329
 Alpha  occ. eigenvalues --   -1.39926  -1.38871  -1.20006  -1.19076  -1.09370
 Alpha  occ. eigenvalues --   -1.08458  -1.05428  -1.04505  -0.96188  -0.95243
 Alpha  occ. eigenvalues --   -0.86813  -0.85900  -0.83020  -0.82073  -0.78070
 Alpha  occ. eigenvalues --   -0.77058  -0.72559  -0.71697  -0.71519  -0.71097
 Alpha  occ. eigenvalues --   -0.70662  -0.70187  -0.65655  -0.65422  -0.64731
 Alpha  occ. eigenvalues --   -0.64533  -0.62784  -0.61800  -0.55895  -0.55050
 Alpha  occ. eigenvalues --   -0.53749  -0.53513  -0.52838  -0.52587  -0.49320
 Alpha  occ. eigenvalues --   -0.49317  -0.48313  -0.48254  -0.45299  -0.44239
 Alpha  occ. eigenvalues --   -0.37971  -0.37113  -0.37039  -0.36122
 Alpha virt. eigenvalues --    0.04407   0.05453   0.10567   0.11518   0.15864
 Alpha virt. eigenvalues --    0.16820   0.20083   0.21908   0.25620   0.27178
 Alpha virt. eigenvalues --    0.28221   0.29017   0.30492   0.31055   0.31998

 Mulliken charges:
               1
     1  C   -0.171075
     2  C   -0.225737
     3  C   -0.177190
     4  C    0.157432
     5  C   -0.170226
     6  C   -0.219380
     7  H    0.221424
     8  H    0.217333
     9  H    0.295052
    10  H    0.275277
    11  H    0.221733
    12  N    0.486912
    13  O   -0.463800
    14  O   -0.451909
    15  C   -0.170630
    16  C   -0.220333
    17  C   -0.178303
    18  C    0.159729
    19  C   -0.170068
    20  C   -0.217707
    21  H    0.227244
    22  H    0.222788
    23  H    0.274281
    24  H    0.278339
    25  H    0.226117
    26  N    0.489172
    27  O   -0.454277
    28  O   -0.462198
 Sum of Mulliken charges =  -0.00000

 Dipole moment (field-independent basis, Debye):
    X=              4.4897    Y=              9.1800    Z=             -0.3491  Tot=             10.2250
 Quadrupole moment (field-independent basis, Debye-Ang):
   XX=            -94.2905   YY=           -108.6664   ZZ=           -105.0137
   XY=             -5.9529   XZ=              0.1801   YZ=              1.1872

 Normal termination of Gaussian 16 at Thu May  6 14:41:02 2021.
