 Gaussian 16, Revision A.03,
 Gaussian 16:  EM64L-G16RevA.03 25-Dec-2016

 -------------
 #p 6-31g* mp2
 -------------

 ------------------------------------------------------
 Input file generated by CHIRIPA (05-May-2021 14:53:18)
 ------------------------------------------------------
 Symbolic Z-matrix:
 Charge =  0 Multiplicity = 1

                         Standard orientation:
 ---------------------------------------------------------------------
 Center     Atomic      Atomic             Coordinates (Angstroms)
 Number     Number       Type             X           Y           Z
 ---------------------------------------------------------------------
      1          6           0       -2.919383   -0.405042    0.520080
      2          6           0       -2.695651   -1.703478    1.295963
      3          6           0       -1.337901   -1.746330    1.997726
      4          1           0       -2.117756   -0.285793   -0.221619
      5          1           0       -2.835454    0.445616    1.210538
      6          1           0       -2.781349   -2.551513    0.604509
      7          1           0       -3.498011   -1.819746    2.035772
      8          1           0       -1.245799   -0.919475    2.709364
      9          1           0       -0.525064   -1.655399    1.269969
     10          1           0       -1.198901   -2.683141    2.546292
     11          6           0       -4.272351   -0.347238   -0.186932
     12          6           0       -4.496083    0.951198   -0.962814
     13          6           0       -5.853833    0.994050   -1.664577
     14          1           0       -4.356280   -1.197896   -0.877389
     15          1           0       -5.073978   -0.466488    0.554768
     16          1           0       -3.693723    1.067466   -1.702623
     17          1           0       -4.410386    1.799232   -0.271360
     18          1           0       -6.666670    0.903119   -0.936821
     19          1           0       -5.945935    0.167195   -2.376215
     20          1           0       -5.992833    1.930861   -2.213143
     21          6           0        1.509923    2.095324    1.066670
     22          6           0        2.892063    2.225482    0.895591
     23          6           0        3.622137    1.233559    0.234053
     24          6           0        2.934887    0.119701   -0.245839
     25          6           0        1.558588   -0.038834   -0.091059
     26          6           0        0.848762    0.965573    0.573669
     27          1           0        0.950649    2.870721    1.581808
     28          1           0        3.408167    3.101776    1.277417
     29          1           0        4.692814    1.308864    0.087781
     30          1           0        1.071903   -0.923808   -0.482693
     31          1           0       -0.224556    0.861821    0.705082
     32          7           0        3.697065   -0.937011   -0.947868
     33          8           0        3.068134   -1.908664   -1.361358
     34          8           0        4.908961   -0.773601   -1.071335
 ---------------------------------------------------------------------

 SCF Done:  E(RHF) =  -669.534066649     A.U. after   15 cycles
 E2 =    -0.2093569401D+01 EUMP2 =    -0.67162763605025D+03

 The electronic state is 1-A.
 Alpha  occ. eigenvalues --  -20.60709 -20.60704 -15.85760 -11.31107 -11.27655
 Alpha  occ. eigenvalues --  -11.27640 -11.27366 -11.26684 -11.26543 -11.22470
 Alpha  occ. eigenvalues --  -11.22370 -11.22252 -11.22112 -11.21851 -11.21565
 Alpha  occ. eigenvalues --   -1.59784  -1.39339  -1.19261  -1.09266  -1.08656
 Alpha  occ. eigenvalues --   -1.04684  -1.04243  -0.96724  -0.95504  -0.87737
 Alpha  occ. eigenvalues --   -0.86060  -0.82366  -0.80336  -0.79145  -0.77359
 Alpha  occ. eigenvalues --   -0.71980  -0.71106  -0.70387  -0.65895  -0.64911
 Alpha  occ. eigenvalues --   -0.64673  -0.62163  -0.61553  -0.60044  -0.58349
 Alpha  occ. eigenvalues --   -0.56031  -0.55160  -0.53383  -0.53306  -0.52889
 Alpha  occ. eigenvalues --   -0.52707  -0.50651  -0.48764  -0.48737  -0.48574
 Alpha  occ. eigenvalues --   -0.47360  -0.46559  -0.46543  -0.44749  -0.44538
 Alpha  occ. eigenvalues --   -0.37238  -0.36220
 Alpha virt. eigenvalues --    0.05104   0.11350   0.16543   0.19935   0.22544
 Alpha virt. eigenvalues --    0.23877   0.24819   0.25964   0.27146   0.27974
 Alpha virt. eigenvalues --    0.29269   0.30051   0.30878   0.31525   0.31724

 Mulliken charges:
               1
     1  C   -0.306541
     2  C   -0.299512
     3  C   -0.481432
     4  H    0.145246
     5  H    0.145425
     6  H    0.157219
     7  H    0.155505
     8  H    0.153220
     9  H    0.153416
    10  H    0.168035
    11  C   -0.297093
    12  C   -0.300809
    13  C   -0.476267
    14  H    0.153818
    15  H    0.152570
    16  H    0.152672
    17  H    0.150088
    18  H    0.156193
    19  H    0.157449
    20  H    0.161913
    21  C   -0.174230
    22  C   -0.217980
    23  C   -0.171924
    24  C    0.158769
    25  C   -0.177489
    26  C   -0.221795
    27  H    0.225368
    28  H    0.222912
    29  H    0.275140
    30  H    0.274456
    31  H    0.238914
    32  N    0.488373
    33  O   -0.460998
    34  O   -0.460633
 Sum of Mulliken charges =  -0.00000

 Dipole moment (field-independent basis, Debye):
    X=             -2.9292    Y=              3.6265    Z=              2.4931  Tot=              5.2865
 Quadrupole moment (field-independent basis, Debye-Ang):
   XX=           -107.0455   YY=            -92.6095   ZZ=            -96.1611
   XY=             13.4813   XZ=              7.8585   YZ=              0.1036

 Normal termination of Gaussian 16 at Wed May  5 23:39:44 2021.
