 Gaussian 16, Revision A.03,
 Gaussian 16:  EM64L-G16RevA.03 25-Dec-2016

 -------------
 #p 6-31g* mp2
 -------------

 ------------------------------------------------------
 Input file generated by CHIRIPA (05-May-2021 14:57:21)
 ------------------------------------------------------
 Symbolic Z-matrix:
 Charge =  0 Multiplicity = 1

                         Standard orientation:
 ---------------------------------------------------------------------
 Center     Atomic      Atomic             Coordinates (Angstroms)
 Number     Number       Type             X           Y           Z
 ---------------------------------------------------------------------
      1          6           0        1.310559    1.483357    0.901299
      2          6           0        1.909392    1.665767   -0.349559
      3          6           0        2.994245    0.874827   -0.739501
      4          6           0        3.456665   -0.093519    0.150311
      5          6           0        2.881321   -0.299356    1.403268
      6          6           0        1.797576    0.503106    1.772185
      7          1           0        0.468249    2.102253    1.196049
      8          1           0        1.533277    2.426275   -1.027947
      9          1           0        3.476626    0.994780   -1.701965
     10          1           0        3.278479   -1.065560    2.057955
     11          1           0        1.334484    0.359215    2.744237
     12          7           0        4.604563   -0.936950   -0.251374
     13          8           0        4.993189   -1.783232    0.550757
     14          8           0        5.093925   -0.735780   -1.360740
     15          6           0       -1.813396    1.981148   -0.596402
     16          6           0       -2.970042    2.085686    0.183188
     17          6           0       -3.783191    0.969364    0.400360
     18          6           0       -3.408052   -0.241417   -0.179788
     19          6           0       -2.261807   -0.377463   -0.961391
     20          6           0       -1.463587    0.752073   -1.165201
     21          1           0       -1.187521    2.853466   -0.759917
     22          1           0       -3.244170    3.038927    0.626167
     23          1           0       -4.684055    1.022153    0.999587
     24          1           0       -2.014481   -1.341126   -1.389878
     25          1           0       -0.565889    0.667938   -1.771093
     26          7           0       -4.260995   -1.430212    0.043050
     27          8           0       -3.908598   -2.485576   -0.479117
     28          8           0       -5.265776   -1.284114    0.735658
 ---------------------------------------------------------------------

 SCF Done:  E(RHF) =  -868.334692785     A.U. after   16 cycles
 E2 =    -0.2603458203D+01 EUMP2 =    -0.87093815098796D+03

 The electronic state is 1-A.
 Alpha  occ. eigenvalues --  -20.61328 -20.61316 -20.61259 -20.61248 -15.86380
 Alpha  occ. eigenvalues --  -15.86321 -11.31928 -11.31816 -11.28520 -11.28491
 Alpha  occ. eigenvalues --  -11.28416 -11.28406 -11.28371 -11.28204 -11.27642
 Alpha  occ. eigenvalues --  -11.27589 -11.27510 -11.27371  -1.60396  -1.60332
 Alpha  occ. eigenvalues --   -1.39943  -1.39881  -1.20141  -1.20031  -1.09603
 Alpha  occ. eigenvalues --   -1.09346  -1.05550  -1.05456  -0.96396  -0.96147
 Alpha  occ. eigenvalues --   -0.87043  -0.86780  -0.83164  -0.83016  -0.78141
 Alpha  occ. eigenvalues --   -0.78042  -0.72600  -0.72536  -0.71723  -0.71662
 Alpha  occ. eigenvalues --   -0.71571  -0.70928  -0.65870  -0.65703  -0.65655
 Alpha  occ. eigenvalues --   -0.65299  -0.62920  -0.62741  -0.56292  -0.55909
 Alpha  occ. eigenvalues --   -0.54168  -0.53688  -0.53562  -0.53372  -0.49370
 Alpha  occ. eigenvalues --   -0.49339  -0.49305  -0.49279  -0.45307  -0.45259
 Alpha  occ. eigenvalues --   -0.38733  -0.37686  -0.37156  -0.36753
 Alpha virt. eigenvalues --    0.04225   0.04590   0.10043   0.10947   0.15573
 Alpha virt. eigenvalues --    0.15919   0.18738   0.22086   0.25035   0.26353
 Alpha virt. eigenvalues --    0.27643   0.29370   0.29865   0.30572   0.32064

 Mulliken charges:
               1
     1  C   -0.161309
     2  C   -0.229550
     3  C   -0.172059
     4  C    0.157973
     5  C   -0.168466
     6  C   -0.220128
     7  H    0.224837
     8  H    0.214976
     9  H    0.276613
    10  H    0.279020
    11  H    0.227308
    12  N    0.488126
    13  O   -0.457655
    14  O   -0.460020
    15  C   -0.183715
    16  C   -0.220446
    17  C   -0.171404
    18  C    0.159568
    19  C   -0.172133
    20  C   -0.209500
    21  H    0.218235
    22  H    0.224249
    23  H    0.277586
    24  H    0.279550
    25  H    0.226827
    26  N    0.487675
    27  O   -0.457157
    28  O   -0.459003
 Sum of Mulliken charges =  -0.00000

 Dipole moment (field-independent basis, Debye):
    X=             -1.0631    Y=              6.8563    Z=              0.7495  Tot=              6.9786
 Quadrupole moment (field-independent basis, Debye-Ang):
   XX=           -151.7462   YY=           -106.1955   ZZ=            -99.2417
   XY=             -6.2028   XZ=              4.5071   YZ=             -0.7559

 Normal termination of Gaussian 16 at Thu May  6 03:17:39 2021.
