 Gaussian 16, Revision A.03,
 Gaussian 16:  EM64L-G16RevA.03 25-Dec-2016

 -------------
 #p 6-31g* mp2
 -------------

 ------------------------------------------------------
 Input file generated by CHIRIPA (05-May-2021 14:51:10)
 ------------------------------------------------------
 Symbolic Z-matrix:
 Charge =  0 Multiplicity = 1

                         Standard orientation:
 ---------------------------------------------------------------------
 Center     Atomic      Atomic             Coordinates (Angstroms)
 Number     Number       Type             X           Y           Z
 ---------------------------------------------------------------------
      1          6           0       -4.770895   -0.390370   -0.348724
      2          6           0       -5.279415   -1.560487    0.494019
      3          6           0       -6.272927   -2.444554   -0.260403
      4          1           0       -5.626384    0.215254   -0.677818
      5          1           0       -4.296612   -0.782160   -1.259193
      6          1           0       -5.751368   -1.166661    1.403292
      7          1           0       -4.422600   -2.163288    0.821305
      8          1           0       -5.809514   -2.864948   -1.158800
      9          1           0       -7.145833   -1.862658   -0.573507
     10          1           0       -6.623603   -3.274747    0.360618
     11          6           0       -3.776849    0.502564    0.391730
     12          6           0       -3.268329    1.672681   -0.451014
     13          6           0       -2.274817    2.556748    0.303408
     14          1           0       -4.251132    0.894353    1.302198
     15          1           0       -2.921360   -0.103061    0.720824
     16          1           0       -4.125144    2.275482   -0.778300
     17          1           0       -2.796376    1.278855   -1.360286
     18          1           0       -1.401911    1.974852    0.616512
     19          1           0       -2.738230    2.977141    1.201806
     20          1           0       -1.924141    3.386940   -0.317613
     21          6           0        5.035209   -0.025935   -0.075234
     22          6           0        5.710066   -1.386303    0.103522
     23          6           0        7.233150   -1.309653   -0.006632
     24          1           0        5.313085    0.388299   -1.054081
     25          1           0        5.423842    0.670508    0.680627
     26          1           0        5.319261   -2.080361   -0.651574
     27          1           0        5.430399   -1.797433    1.081977
     28          1           0        7.641287   -0.638760    0.756210
     29          1           0        7.529517   -0.923294   -0.987191
     30          1           0        7.695134   -2.293164    0.124266
     31          6           0        3.512534   -0.086259    0.032230
     32          6           0        2.837678    1.274109   -0.146528
     33          6           0        1.314594    1.197459   -0.036373
     34          1           0        3.123903   -0.782702   -0.723632
     35          1           0        3.234659   -0.500492    1.011076
     36          1           0        3.117346    1.685239   -1.124982
     37          1           0        3.228483    1.968167    0.608569
     38          1           0        1.018227    0.811102    0.944185
     39          1           0        0.906457    0.526566   -0.799215
     40          1           0        0.852610    2.180971   -0.167271
 ---------------------------------------------------------------------

 SCF Done:  E(RHF) =  -470.732729496     A.U. after   11 cycles
 E2 =    -0.1582615576D+01 EUMP2 =    -0.47231534507192D+03

 The electronic state is 1-A.
 Alpha  occ. eigenvalues --  -11.21612 -11.21610 -11.21568 -11.21513 -11.21418
 Alpha  occ. eigenvalues --  -11.21358 -11.21351 -11.21289 -11.21079 -11.21079
 Alpha  occ. eigenvalues --  -11.21046 -11.20891  -1.08445  -1.08369  -1.03559
 Alpha  occ. eigenvalues --   -1.03450  -0.96047  -0.95871  -0.87106  -0.86855
 Alpha  occ. eigenvalues --   -0.79678  -0.79471  -0.78261  -0.78180  -0.65075
 Alpha  occ. eigenvalues --   -0.65002  -0.60953  -0.60887  -0.59394  -0.59262
 Alpha  occ. eigenvalues --   -0.57610  -0.57524  -0.55323  -0.55205  -0.52838
 Alpha  occ. eigenvalues --   -0.52574  -0.52400  -0.52249  -0.49979  -0.49766
 Alpha  occ. eigenvalues --   -0.47943  -0.47827  -0.46674  -0.46528  -0.45815
 Alpha  occ. eigenvalues --   -0.45728  -0.45707  -0.45640  -0.43791  -0.43665
 Alpha virt. eigenvalues --    0.22279   0.22960   0.23705   0.24773   0.26305
 Alpha virt. eigenvalues --    0.26609   0.27322   0.27401   0.27686   0.28973
 Alpha virt. eigenvalues --    0.30220   0.31082   0.31416   0.31932   0.32312

 Mulliken charges:
               1
     1  C   -0.298217
     2  C   -0.299616
     3  C   -0.475660
     4  H    0.149529
     5  H    0.149349
     6  H    0.151839
     7  H    0.151887
     8  H    0.155093
     9  H    0.155125
    10  H    0.160121
    11  C   -0.298537
    12  C   -0.299039
    13  C   -0.483420
    14  H    0.149262
    15  H    0.149913
    16  H    0.151273
    17  H    0.151640
    18  H    0.167508
    19  H    0.153840
    20  H    0.158206
    21  C   -0.298305
    22  C   -0.299616
    23  C   -0.475709
    24  H    0.149670
    25  H    0.149601
    26  H    0.151870
    27  H    0.151933
    28  H    0.155223
    29  H    0.155191
    30  H    0.160272
    31  C   -0.298534
    32  C   -0.300220
    33  C   -0.479166
    34  H    0.149303
    35  H    0.149587
    36  H    0.151985
    37  H    0.152216
    38  H    0.154175
    39  H    0.154828
    40  H    0.165600
 Sum of Mulliken charges =  -0.00000

 Dipole moment (field-independent basis, Debye):
    X=              0.0414    Y=              0.0036    Z=              0.0053  Tot=              0.0419
 Quadrupole moment (field-independent basis, Debye-Ang):
   XX=            -86.1609   YY=            -85.0526   ZZ=            -83.8285
   XY=             -0.7639   XZ=             -0.4468   YZ=              0.0648

 Normal termination of Gaussian 16 at Thu May  6 03:46:19 2021.
