 Gaussian 16, Revision A.03,
 Gaussian 16:  EM64L-G16RevA.03 25-Dec-2016

 -------------
 #p 6-31g* mp2
 -------------

 ------------------------------------------------------
 Input file generated by CHIRIPA (05-May-2021 14:55:23)
 ------------------------------------------------------
 Symbolic Z-matrix:
 Charge =  0 Multiplicity = 1

                         Standard orientation:
 ---------------------------------------------------------------------
 Center     Atomic      Atomic             Coordinates (Angstroms)
 Number     Number       Type             X           Y           Z
 ---------------------------------------------------------------------
      1          6           0        1.779309    1.552264    1.976293
      2          6           0        1.063982    0.352239    2.045343
      3          6           0        1.200985   -0.614590    1.044834
      4          6           0        2.065924   -0.347228   -0.015207
      5          6           0        2.792269    0.838646   -0.112246
      6          6           0        2.639653    1.791216    0.899617
      7          1           0        1.666817    2.297782    2.757923
      8          1           0        0.395110    0.163957    2.880332
      9          1           0        0.659244   -1.552205    1.073370
     10          1           0        3.451474    0.997791   -0.956959
     11          1           0        3.196448    2.722270    0.843380
     12          7           0        2.219228   -1.363219   -1.080411
     13          8           0        2.987624   -1.103573   -2.003877
     14          8           0        1.568088   -2.399960   -0.971683
     15          6           0       -2.793987    0.816891   -0.659150
     16          6           0       -1.859862    2.017220   -0.502283
     17          6           0       -2.236732    3.183081   -1.416903
     18          1           0       -2.779353    0.483275   -1.705780
     19          1           0       -3.824615    1.132884   -0.446193
     20          1           0       -0.831121    1.698737   -0.714124
     21          1           0       -1.876577    2.347897    0.544135
     22          1           0       -3.253048    3.528606   -1.201696
     23          1           0       -2.201653    2.875758   -2.467104
     24          1           0       -1.555999    4.030408   -1.288451
     25          6           0       -2.430097   -0.356654    0.248650
     26          6           0       -3.364222   -1.556983    0.091782
     27          6           0       -2.987353   -2.722844    1.006403
     28          1           0       -1.399470   -0.672647    0.035692
     29          1           0       -2.444732   -0.023039    1.295279
     30          1           0       -3.347508   -1.887660   -0.954635
     31          1           0       -4.392963   -1.238500    0.303624
     32          1           0       -3.022431   -2.415521    2.056604
     33          1           0       -1.971037   -3.068369    0.791196
     34          1           0       -3.668086   -3.570171    0.877951
 ---------------------------------------------------------------------

 SCF Done:  E(RHF) =  -669.534827933     A.U. after   15 cycles
 E2 =    -0.2094315776D+01 EUMP2 =    -0.67162914370840D+03

 The electronic state is 1-A.
 Alpha  occ. eigenvalues --  -20.60850 -20.60845 -15.85899 -11.31229 -11.27805
 Alpha  occ. eigenvalues --  -11.27773 -11.27526 -11.26799 -11.26768 -11.21723
 Alpha  occ. eigenvalues --  -11.21655 -11.21534 -11.21462 -11.21209 -11.21204
 Alpha  occ. eigenvalues --   -1.59923  -1.39478  -1.19407  -1.08800  -1.08558
 Alpha  occ. eigenvalues --   -1.04800  -1.03647  -0.96113  -0.95642  -0.87130
 Alpha  occ. eigenvalues --   -0.86203  -0.82473  -0.79711  -0.78437  -0.77499
 Alpha  occ. eigenvalues --   -0.72115  -0.71249  -0.70518  -0.65236  -0.65052
 Alpha  occ. eigenvalues --   -0.64752  -0.62163  -0.61023  -0.59479  -0.57734
 Alpha  occ. eigenvalues --   -0.55410  -0.55295  -0.53237  -0.52895  -0.52746
 Alpha  occ. eigenvalues --   -0.52541  -0.50051  -0.48875  -0.48870  -0.48032
 Alpha  occ. eigenvalues --   -0.46729  -0.45922  -0.45825  -0.44865  -0.43903
 Alpha  occ. eigenvalues --   -0.37367  -0.36299
 Alpha virt. eigenvalues --    0.04991   0.11144   0.16470   0.20423   0.22910
 Alpha virt. eigenvalues --    0.23606   0.25619   0.26363   0.27540   0.28241
 Alpha virt. eigenvalues --    0.29063   0.30033   0.31455   0.31710   0.31815

 Mulliken charges:
               1
     1  C   -0.170213
     2  C   -0.215296
     3  C   -0.173433
     4  C    0.158028
     5  C   -0.171690
     6  C   -0.218303
     7  H    0.225750
     8  H    0.224260
     9  H    0.278655
    10  H    0.275675
    11  H    0.223589
    12  N    0.488404
    13  O   -0.459810
    14  O   -0.462068
    15  C   -0.298498
    16  C   -0.300279
    17  C   -0.475779
    18  H    0.153655
    19  H    0.148858
    20  H    0.155891
    21  H    0.146139
    22  H    0.154766
    23  H    0.157710
    24  H    0.157754
    25  C   -0.303110
    26  C   -0.298529
    27  C   -0.480106
    28  H    0.155534
    29  H    0.140721
    30  H    0.157710
    31  H    0.151113
    32  H    0.149316
    33  H    0.159850
    34  H    0.163737
 Sum of Mulliken charges =  -0.00000

 Dipole moment (field-independent basis, Debye):
    X=             -0.5044    Y=              3.5299    Z=              3.6775  Tot=              5.1223
 Quadrupole moment (field-independent basis, Debye-Ang):
   XX=            -95.0670   YY=            -96.6635   ZZ=            -94.1066
   XY=             10.0815   XZ=              5.8698   YZ=             -1.9704

 Normal termination of Gaussian 16 at Wed May  5 17:32:58 2021.
