 Gaussian 16, Revision A.03,
 Gaussian 16:  EM64L-G16RevA.03 25-Dec-2016

 -------------
 #p 6-31g* mp2
 -------------

 ------------------------------------------------------
 Input file generated by CHIRIPA (05-May-2021 14:57:27)
 ------------------------------------------------------
 Symbolic Z-matrix:
 Charge =  0 Multiplicity = 1

                         Standard orientation:
 ---------------------------------------------------------------------
 Center     Atomic      Atomic             Coordinates (Angstroms)
 Number     Number       Type             X           Y           Z
 ---------------------------------------------------------------------
      1          6           0       -4.545985    1.713217    0.721856
      2          6           0       -5.075185    0.425744    0.859268
      3          6           0       -4.371472   -0.685465    0.385401
      4          6           0       -3.135781   -0.471740   -0.223433
      5          6           0       -2.582002    0.798534   -0.375167
      6          6           0       -3.303274    1.895182    0.106163
      7          1           0       -5.099466    2.570776    1.092866
      8          1           0       -6.040064    0.281429    1.336998
      9          1           0       -4.757757   -1.693184    0.478697
     10          1           0       -1.617773    0.910791   -0.855872
     11          1           0       -2.889837    2.893897   -0.001924
     12          7           0       -2.381497   -1.640420   -0.729045
     13          8           0       -1.294870   -1.425447   -1.261647
     14          8           0       -2.891199   -2.749276   -0.583169
     15          6           0        4.489145   -1.864168    0.651614
     16          6           0        3.152071   -1.715470    1.034556
     17          6           0        2.461204   -0.532320    0.756336
     18          6           0        3.141276    0.486334    0.090652
     19          6           0        4.473119    0.368387   -0.303777
     20          6           0        5.144246   -0.823600   -0.015155
     21          1           0        5.018160   -2.786699    0.871781
     22          1           0        2.640779   -2.521915    1.552504
     23          1           0        1.425807   -0.390548    1.041422
     24          1           0        4.956118    1.189924   -0.818761
     25          1           0        6.182604   -0.936288   -0.313747
     26          7           0        2.420334    1.743560   -0.209394
     27          8           0        3.042006    2.626109   -0.796987
     28          8           0        1.247239    1.822617    0.148707
 ---------------------------------------------------------------------

 SCF Done:  E(RHF) =  -868.340615249     A.U. after   16 cycles
 E2 =    -0.2598376053D+01 EUMP2 =    -0.87093899130219D+03

 The electronic state is 1-A.
 Alpha  occ. eigenvalues --  -20.60835 -20.60784 -20.60557 -20.60549 -15.85844
 Alpha  occ. eigenvalues --  -15.85592 -11.30873 -11.30680 -11.27452 -11.27378
 Alpha  occ. eigenvalues --  -11.27308 -11.27134 -11.27075 -11.26972 -11.26410
 Alpha  occ. eigenvalues --  -11.26326 -11.26278 -11.26089  -1.59871  -1.59638
 Alpha  occ. eigenvalues --   -1.39437  -1.39194  -1.19027  -1.18847  -1.08491
 Alpha  occ. eigenvalues --   -1.08309  -1.04382  -1.04184  -0.95381  -0.95174
 Alpha  occ. eigenvalues --   -0.85803  -0.85609  -0.82232  -0.81998  -0.77310
 Alpha  occ. eigenvalues --   -0.77057  -0.72099  -0.71814  -0.71162  -0.70962
 Alpha  occ. eigenvalues --   -0.70155  -0.69946  -0.64696  -0.64495  -0.64395
 Alpha  occ. eigenvalues --   -0.64177  -0.61738  -0.61502  -0.54925  -0.54738
 Alpha  occ. eigenvalues --   -0.52724  -0.52569  -0.52481  -0.52256  -0.48842
 Alpha  occ. eigenvalues --   -0.48808  -0.48579  -0.48552  -0.44914  -0.44658
 Alpha  occ. eigenvalues --   -0.37000  -0.36859  -0.35954  -0.35778
 Alpha virt. eigenvalues --    0.05170   0.05427   0.11697   0.11850   0.16718
 Alpha virt. eigenvalues --    0.16948   0.21693   0.22129   0.27598   0.27949
 Alpha virt. eigenvalues --    0.28430   0.29162   0.31168   0.31657   0.32437

 Mulliken charges:
               1
     1  C   -0.170933
     2  C   -0.219598
     3  C   -0.172269
     4  C    0.154294
     5  C   -0.172720
     6  C   -0.220201
     7  H    0.224603
     8  H    0.220931
     9  H    0.272436
    10  H    0.289983
    11  H    0.230846
    12  N    0.487175
    13  O   -0.462431
    14  O   -0.463726
    15  C   -0.169805
    16  C   -0.217294
    17  C   -0.163274
    18  C    0.157252
    19  C   -0.170913
    20  C   -0.218917
    21  H    0.225601
    22  H    0.226263
    23  H    0.276153
    24  H    0.273794
    25  H    0.222303
    26  N    0.490855
    27  O   -0.459910
    28  O   -0.470497
 Sum of Mulliken charges =  -0.00000

 Dipole moment (field-independent basis, Debye):
    X=              0.0506    Y=             -0.2428    Z=              2.8197  Tot=              2.8306
 Quadrupole moment (field-independent basis, Debye-Ang):
   XX=            -67.3288   YY=           -111.4080   ZZ=           -105.5059
   XY=            -21.1928   XZ=             -4.7731   YZ=             -3.8487

 Normal termination of Gaussian 16 at Thu May  6 03:38:52 2021.
