 Gaussian 16, Revision A.03,
 Gaussian 16:  EM64L-G16RevA.03 25-Dec-2016

 -------------
 #p 6-31g* mp2
 -------------

 ------------------------------------------------------
 Input file generated by CHIRIPA (05-May-2021 14:53:16)
 ------------------------------------------------------
 Symbolic Z-matrix:
 Charge =  0 Multiplicity = 1

                         Standard orientation:
 ---------------------------------------------------------------------
 Center     Atomic      Atomic             Coordinates (Angstroms)
 Number     Number       Type             X           Y           Z
 ---------------------------------------------------------------------
      1          6           0        3.694437    1.202289    0.150401
      2          6           0        2.166319    1.206753    0.203497
      3          6           0        1.585511    2.608283    0.393681
      4          1           0        4.088470    1.641385    1.077158
      5          1           0        4.027771    1.852778   -0.670055
      6          1           0        1.835934    0.555360    1.022734
      7          1           0        1.775881    0.767420   -0.723412
      8          1           0        1.886611    3.264960   -0.428947
      9          1           0        1.947005    3.051694    1.327120
     10          1           0        0.491792    2.588235    0.428861
     11          6           0        4.289952   -0.191655   -0.039367
     12          6           0        5.818070   -0.196119   -0.092464
     13          6           0        6.398879   -1.597649   -0.282647
     14          1           0        3.956618   -0.842144    0.781089
     15          1           0        3.895920   -0.630751   -0.966124
     16          1           0        6.208508    0.243214    0.834446
     17          1           0        6.148455    0.455274   -0.911700
     18          1           0        6.037384   -2.041060   -1.216086
     19          1           0        6.097778   -2.254325    0.539980
     20          1           0        7.492597   -1.577601   -0.317827
     21          6           0       -5.232438    0.977727   -0.166318
     22          6           0       -3.991586    1.581158   -0.395837
     23          6           0       -2.814022    0.830426   -0.330327
     24          6           0       -2.914573   -0.527468   -0.031486
     25          6           0       -4.135942   -1.157515    0.202154
     26          6           0       -5.300536   -0.387277    0.131420
     27          1           0       -6.142160    1.568490   -0.219238
     28          1           0       -3.935676    2.641044   -0.627267
     29          1           0       -1.840229    1.272139   -0.503630
     30          1           0       -4.159804   -2.216103    0.430716
     31          1           0       -6.262817   -0.858576    0.310126
     32          7           0       -1.674804   -1.332560    0.040632
     33          8           0       -1.790298   -2.527141    0.305717
     34          8           0       -0.611055   -0.753763   -0.169293
 ---------------------------------------------------------------------

 SCF Done:  E(RHF) =  -669.535509771     A.U. after   15 cycles
 E2 =    -0.2091698669D+01 EUMP2 =    -0.67162720844021D+03

 The electronic state is 1-A.
 Alpha  occ. eigenvalues --  -20.60869 -20.60860 -15.85904 -11.31253 -11.27820
 Alpha  occ. eigenvalues --  -11.27816 -11.27559 -11.26833 -11.26822 -11.20885
 Alpha  occ. eigenvalues --  -11.20547 -11.20512 -11.20443 -11.20412 -11.20367
 Alpha  occ. eigenvalues --   -1.59938  -1.39493  -1.19424  -1.08824  -1.07548
 Alpha  occ. eigenvalues --   -1.04824  -1.02721  -0.95667  -0.95241  -0.86273
 Alpha  occ. eigenvalues --   -0.86212  -0.82504  -0.78754  -0.77595  -0.77250
 Alpha  occ. eigenvalues --   -0.72122  -0.71254  -0.70533  -0.65079  -0.64829
 Alpha  occ. eigenvalues --   -0.64186  -0.62179  -0.60123  -0.58594  -0.56820
 Alpha  occ. eigenvalues --   -0.55326  -0.54551  -0.53155  -0.52925  -0.51973
 Alpha  occ. eigenvalues --   -0.51647  -0.49184  -0.48906  -0.48884  -0.47049
 Alpha  occ. eigenvalues --   -0.45778  -0.45002  -0.44823  -0.44669  -0.42981
 Alpha  occ. eigenvalues --   -0.37404  -0.36426
 Alpha virt. eigenvalues --    0.04961   0.11214   0.16454   0.20548   0.23411
 Alpha virt. eigenvalues --    0.24171   0.26652   0.27549   0.27676   0.28566
 Alpha virt. eigenvalues --    0.29300   0.30541   0.31498   0.32141   0.32679

 Mulliken charges:
               1
     1  C   -0.299497
     2  C   -0.296172
     3  C   -0.476956
     4  H    0.145083
     5  H    0.144437
     6  H    0.161698
     7  H    0.163363
     8  H    0.150663
     9  H    0.152773
    10  H    0.150398
    11  C   -0.297421
    12  C   -0.299089
    13  C   -0.475164
    14  H    0.152936
    15  H    0.152653
    16  H    0.149645
    17  H    0.149350
    18  H    0.155484
    19  H    0.155837
    20  H    0.157302
    21  C   -0.170531
    22  C   -0.219652
    23  C   -0.174556
    24  C    0.156923
    25  C   -0.170482
    26  C   -0.218687
    27  H    0.225877
    28  H    0.224090
    29  H    0.281343
    30  H    0.275706
    31  H    0.223663
    32  N    0.494042
    33  O   -0.459762
    34  O   -0.465295
 Sum of Mulliken charges =  -0.00000

 Dipole moment (field-independent basis, Debye):
    X=             -4.5561    Y=              2.6383    Z=             -0.2656  Tot=              5.2716
 Quadrupole moment (field-independent basis, Debye-Ang):
   XX=            -69.4894   YY=            -96.1654   ZZ=            -94.3824
   XY=             -3.4386   XZ=              0.3288   YZ=             -1.3370

 Normal termination of Gaussian 16 at Thu May  6 04:20:48 2021.
