 Gaussian 16, Revision A.03,
 Gaussian 16:  EM64L-G16RevA.03 25-Dec-2016

 -------------
 #p 6-31g* mp2
 -------------

 ------------------------------------------------------
 Input file generated by CHIRIPA (05-May-2021 14:51:13)
 ------------------------------------------------------
 Symbolic Z-matrix:
 Charge =  0 Multiplicity = 1

                         Standard orientation:
 ---------------------------------------------------------------------
 Center     Atomic      Atomic             Coordinates (Angstroms)
 Number     Number       Type             X           Y           Z
 ---------------------------------------------------------------------
      1          6           0       -2.605620    1.030937    0.461207
      2          6           0       -1.870734    2.222433   -0.153825
      3          6           0       -0.804970    2.803581    0.775804
      4          1           0       -3.071782    1.343536    1.405621
      5          1           0       -1.875320    0.250587    0.716375
      6          1           0       -2.602360    2.999743   -0.409028
      7          1           0       -1.406427    1.907010   -1.096981
      8          1           0       -0.053364    2.046288    1.021154
      9          1           0       -1.256091    3.145230    1.713016
     10          1           0       -0.292049    3.654239    0.316291
     11          6           0       -3.674169    0.439021   -0.456163
     12          6           0       -4.409055   -0.752475    0.158869
     13          6           0       -5.474818   -1.333623   -0.770760
     14          1           0       -4.404469    1.219371   -0.711331
     15          1           0       -3.208007    0.126422   -1.400577
     16          1           0       -4.873362   -0.437052    1.102025
     17          1           0       -3.677429   -1.529785    0.414072
     18          1           0       -5.023697   -1.675272   -1.707972
     19          1           0       -6.226425   -0.576330   -1.016110
     20          1           0       -5.987739   -2.184281   -0.311247
     21          6           0        2.401356   -0.881056   -0.131575
     22          6           0        1.860978   -2.049079    0.694075
     23          6           0        0.382162   -2.329099    0.424845
     24          1           0        1.810496    0.018855    0.087488
     25          1           0        2.256674   -1.097781   -1.199045
     26          1           0        2.007893   -1.830827    1.759625
     27          1           0        2.453316   -2.946270    0.473163
     28          1           0        0.222038   -2.572236   -0.630543
     29          1           0       -0.225917   -1.450455    0.663227
     30          1           0        0.016543   -3.167810    1.025467
     31          6           0        3.878433   -0.588902    0.126531
     32          6           0        4.418810    0.579121   -0.699119
     33          6           0        5.897627    0.859142   -0.429889
     34          1           0        4.023115   -0.372176    1.194001
     35          1           0        4.469293   -1.488813   -0.092532
     36          1           0        3.826473    1.476312   -0.478207
     37          1           0        4.271895    0.360869   -1.764669
     38          1           0        6.505706   -0.019502   -0.668272
     39          1           0        6.057752    1.102279    0.625500
     40          1           0        6.263246    1.697851   -1.030511
 ---------------------------------------------------------------------

 SCF Done:  E(RHF) =  -470.733362950     A.U. after   11 cycles
 E2 =    -0.1583320017D+01 EUMP2 =    -0.47231668296724D+03

 The electronic state is 1-A.
 Alpha  occ. eigenvalues --  -11.21659 -11.21614 -11.21609 -11.21559 -11.21451
 Alpha  occ. eigenvalues --  -11.21387 -11.21386 -11.21326 -11.21140 -11.21120
 Alpha  occ. eigenvalues --  -11.21078 -11.21037  -1.08474  -1.08416  -1.03571
 Alpha  occ. eigenvalues --   -1.03520  -0.96032  -0.95967  -0.87050  -0.86983
 Alpha  occ. eigenvalues --   -0.79645  -0.79574  -0.78308  -0.78208  -0.65189
 Alpha  occ. eigenvalues --   -0.64978  -0.61022  -0.60865  -0.59392  -0.59336
 Alpha  occ. eigenvalues --   -0.57671  -0.57557  -0.55457  -0.55140  -0.52715
 Alpha  occ. eigenvalues --   -0.52669  -0.52508  -0.52344  -0.50093  -0.49796
 Alpha  occ. eigenvalues --   -0.48019  -0.47875  -0.46796  -0.46563  -0.45956
 Alpha  occ. eigenvalues --   -0.45770  -0.45743  -0.45396  -0.43824  -0.43774
 Alpha virt. eigenvalues --    0.19686   0.22864   0.23866   0.24585   0.25534
 Alpha virt. eigenvalues --    0.26250   0.27019   0.27307   0.28743   0.29295
 Alpha virt. eigenvalues --    0.30780   0.31667   0.31700   0.31813   0.31959

 Mulliken charges:
               1
     1  C   -0.307400
     2  C   -0.299237
     3  C   -0.478474
     4  H    0.149690
     5  H    0.157584
     6  H    0.152152
     7  H    0.152569
     8  H    0.156020
     9  H    0.155494
    10  H    0.160558
    11  C   -0.297614
    12  C   -0.300499
    13  C   -0.475684
    14  H    0.149374
    15  H    0.149956
    16  H    0.151639
    17  H    0.153373
    18  H    0.155253
    19  H    0.154969
    20  H    0.160185
    21  C   -0.301938
    22  C   -0.299065
    23  C   -0.484079
    24  H    0.152208
    25  H    0.149638
    26  H    0.152219
    27  H    0.152374
    28  H    0.155249
    29  H    0.161712
    30  H    0.160887
    31  C   -0.298193
    32  C   -0.299879
    33  C   -0.475743
    34  H    0.149748
    35  H    0.149823
    36  H    0.152468
    37  H    0.151851
    38  H    0.155136
    39  H    0.155318
    40  H    0.160356
 Sum of Mulliken charges =  -0.00000

 Dipole moment (field-independent basis, Debye):
    X=              0.0118    Y=             -0.0082    Z=             -0.0030  Tot=              0.0147
 Quadrupole moment (field-independent basis, Debye-Ang):
   XX=            -85.9940   YY=            -84.3276   ZZ=            -84.3744
   XY=             -1.3902   XZ=             -1.0128   YZ=              0.4176

 Normal termination of Gaussian 16 at Wed May  5 23:12:46 2021.
