 Gaussian 16, Revision A.03,
 Gaussian 16:  EM64L-G16RevA.03 25-Dec-2016

 -------------
 #p 6-31g* mp2
 -------------

 ------------------------------------------------------
 Input file generated by CHIRIPA (05-May-2021 14:57:21)
 ------------------------------------------------------
 Symbolic Z-matrix:
 Charge =  0 Multiplicity = 1

                         Standard orientation:
 ---------------------------------------------------------------------
 Center     Atomic      Atomic             Coordinates (Angstroms)
 Number     Number       Type             X           Y           Z
 ---------------------------------------------------------------------
      1          6           0       -3.901807    2.105729    1.172133
      2          6           0       -4.876266    1.151048    0.863044
      3          6           0       -4.545191    0.012799    0.121879
      4          6           0       -3.224051   -0.139575   -0.296045
      5          6           0       -2.230644    0.793781   -0.004022
      6          6           0       -2.584428    1.924368    0.738378
      7          1           0       -4.167814    2.986972    1.748367
      8          1           0       -5.900155    1.289276    1.198587
      9          1           0       -5.279705   -0.742003   -0.131464
     10          1           0       -1.218365    0.628389   -0.352383
     11          1           0       -1.825567    2.664138    0.976947
     12          7           0       -2.861536   -1.340533   -1.081336
     13          8           0       -1.690531   -1.451473   -1.437814
     14          8           0       -3.755266   -2.148164   -1.325501
     15          6           0        4.540325    1.516279   -1.352454
     16          6           0        3.142315    1.481565   -1.382173
     17          6           0        2.435693    0.613068   -0.544947
     18          6           0        3.162322   -0.210587    0.313478
     19          6           0        4.555292   -0.199205    0.366331
     20          6           0        5.241117    0.677263   -0.479835
     21          1           0        5.081168    2.194045   -2.006304
     22          1           0        2.595443    2.132021   -2.058845
     23          1           0        1.353487    0.565718   -0.547445
     24          1           0        5.072751   -0.859577    1.051578
     25          1           0        6.326839    0.702076   -0.454605
     26          7           0        2.425261   -1.134244    1.204543
     27          8           0        3.088800   -1.849783    1.951777
     28          8           0        1.197972   -1.125181    1.138854
 ---------------------------------------------------------------------

 SCF Done:  E(RHF) =  -868.336799564     A.U. after   16 cycles
 E2 =    -0.2600334224D+01 EUMP2 =    -0.87093713378807D+03

 The electronic state is 1-A.
 Alpha  occ. eigenvalues --  -20.60678 -20.60649 -20.60341 -20.60307 -15.85717
 Alpha  occ. eigenvalues --  -15.85382 -11.31191 -11.30841 -11.27835 -11.27743
 Alpha  occ. eigenvalues --  -11.27513 -11.27486 -11.27423 -11.27207 -11.26819
 Alpha  occ. eigenvalues --  -11.26781 -11.26493 -11.26462  -1.59733  -1.59392
 Alpha  occ. eigenvalues --   -1.39285  -1.38945  -1.19367  -1.19028  -1.08736
 Alpha  occ. eigenvalues --   -1.08405  -1.04794  -1.04461  -0.95562  -0.95229
 Alpha  occ. eigenvalues --   -0.86187  -0.85853  -0.82394  -0.82070  -0.77456
 Alpha  occ. eigenvalues --   -0.77080  -0.71944  -0.71606  -0.71051  -0.70702
 Alpha  occ. eigenvalues --   -0.70496  -0.70153  -0.65022  -0.64822  -0.64692
 Alpha  occ. eigenvalues --   -0.64471  -0.62213  -0.61765  -0.55288  -0.54966
 Alpha  occ. eigenvalues --   -0.53101  -0.52925  -0.52758  -0.52540  -0.48704
 Alpha  occ. eigenvalues --   -0.48692  -0.48372  -0.48352  -0.44666  -0.44320
 Alpha  occ. eigenvalues --   -0.37338  -0.37005  -0.36394  -0.36049
 Alpha virt. eigenvalues --    0.05125   0.05467   0.11261   0.11603   0.16599
 Alpha virt. eigenvalues --    0.16939   0.19466   0.22145   0.24786   0.27672
 Alpha virt. eigenvalues --    0.27991   0.29515   0.30518   0.31489   0.31860

 Mulliken charges:
               1
     1  C   -0.170433
     2  C   -0.219061
     3  C   -0.169320
     4  C    0.157821
     5  C   -0.169565
     6  C   -0.221915
     7  H    0.224287
     8  H    0.222532
     9  H    0.275467
    10  H    0.283008
    11  H    0.220062
    12  N    0.487110
    13  O   -0.458604
    14  O   -0.461681
    15  C   -0.170476
    16  C   -0.222501
    17  C   -0.172577
    18  C    0.156478
    19  C   -0.169376
    20  C   -0.218830
    21  H    0.225651
    22  H    0.222845
    23  H    0.282094
    24  H    0.276309
    25  H    0.223722
    26  N    0.487015
    27  O   -0.459971
    28  O   -0.460091
 Sum of Mulliken charges =  -0.00000

 Dipole moment (field-independent basis, Debye):
    X=              1.3944    Y=              7.3440    Z=             -0.3462  Tot=              7.4832
 Quadrupole moment (field-independent basis, Debye-Ang):
   XX=            -71.8648   YY=           -107.7442   ZZ=           -109.2752
   XY=             -3.5837   XZ=            -16.5030   YZ=             -0.8081

 Normal termination of Gaussian 16 at Thu May  6 19:30:04 2021.
