 Gaussian 16, Revision A.03,
 Gaussian 16:  EM64L-G16RevA.03 25-Dec-2016

 -------------
 #p 6-31g* mp2
 -------------

 ------------------------------------------------------
 Input file generated by CHIRIPA (05-May-2021 14:57:24)
 ------------------------------------------------------
 Symbolic Z-matrix:
 Charge =  0 Multiplicity = 1

                         Standard orientation:
 ---------------------------------------------------------------------
 Center     Atomic      Atomic             Coordinates (Angstroms)
 Number     Number       Type             X           Y           Z
 ---------------------------------------------------------------------
      1          6           0       -3.703724   -1.985085   -0.993240
      2          6           0       -2.554310   -1.854341   -0.206936
      3          6           0       -2.242301   -0.632611    0.396864
      4          6           0       -3.105754    0.442512    0.192294
      5          6           0       -4.258360    0.343755   -0.585548
      6          6           0       -4.550588   -0.887555   -1.179707
      7          1           0       -3.938417   -2.937876   -1.458541
      8          1           0       -1.894803   -2.704998   -0.060385
      9          1           0       -1.359007   -0.503592    1.010511
     10          1           0       -4.896588    1.209639   -0.713328
     11          1           0       -5.443924   -0.986179   -1.789846
     12          7           0       -2.785915    1.740974    0.826407
     13          8           0       -3.562829    2.673041    0.630723
     14          8           0       -1.764366    1.802055    1.507101
     15          6           0        1.886123   -2.130962    0.974165
     16          6           0        1.403124   -1.531465   -0.193669
     17          6           0        2.099827   -0.476634   -0.790733
     18          6           0        3.281473   -0.044588   -0.190450
     19          6           0        3.788389   -0.621421    0.972989
     20          6           0        3.075118   -1.674832    1.552746
     21          1           0        1.338472   -2.949829    1.431255
     22          1           0        0.480010   -1.883630   -0.645207
     23          1           0        1.748575    0.005531   -1.694920
     24          1           0        4.711498   -0.248528    1.399883
     25          1           0        3.452598   -2.138517    2.459691
     26          7           0        4.027812    1.071363   -0.813374
     27          8           0        5.066392    1.433558   -0.264919
     28          8           0        3.560079    1.562718   -1.838280
 ---------------------------------------------------------------------

 SCF Done:  E(RHF) =  -868.336276727     A.U. after   16 cycles
 E2 =    -0.2601302361D+01 EUMP2 =    -0.87093757908871D+03

 The electronic state is 1-A.
 Alpha  occ. eigenvalues --  -20.61144 -20.61139 -20.60772 -20.60767 -15.86209
 Alpha  occ. eigenvalues --  -15.85833 -11.31764 -11.31356 -11.28409 -11.28358
 Alpha  occ. eigenvalues --  -11.28192 -11.27987 -11.27938 -11.27844 -11.27553
 Alpha  occ. eigenvalues --  -11.27371 -11.27096 -11.26997  -1.60217  -1.59841
 Alpha  occ. eigenvalues --   -1.39764  -1.39391  -1.19991  -1.19569  -1.09341
 Alpha  occ. eigenvalues --   -1.08961  -1.05455  -1.04993  -0.96134  -0.95756
 Alpha  occ. eigenvalues --   -0.86817  -0.86424  -0.82993  -0.82577  -0.78019
 Alpha  occ. eigenvalues --   -0.77561  -0.72421  -0.72055  -0.71547  -0.71159
 Alpha  occ. eigenvalues --   -0.71077  -0.70724  -0.65677  -0.65498  -0.65239
 Alpha  occ. eigenvalues --   -0.65031  -0.62848  -0.62238  -0.55912  -0.55569
 Alpha  occ. eigenvalues --   -0.53786  -0.53609  -0.53239  -0.53046  -0.49197
 Alpha  occ. eigenvalues --   -0.49162  -0.48825  -0.48794  -0.45127  -0.44761
 Alpha  occ. eigenvalues --   -0.37972  -0.37606  -0.37093  -0.36514
 Alpha virt. eigenvalues --    0.04520   0.04983   0.10498   0.10987   0.15801
 Alpha virt. eigenvalues --    0.16420   0.19225   0.21977   0.25351   0.27641
 Alpha virt. eigenvalues --    0.27733   0.28734   0.30315   0.31208   0.31887

 Mulliken charges:
               1
     1  C   -0.170159
     2  C   -0.225555
     3  C   -0.172784
     4  C    0.158597
     5  C   -0.168655
     6  C   -0.218788
     7  H    0.227047
     8  H    0.214560
     9  H    0.278934
    10  H    0.278617
    11  H    0.226224
    12  N    0.488018
    13  O   -0.457966
    14  O   -0.458137
    15  C   -0.173818
    16  C   -0.226379
    17  C   -0.167910
    18  C    0.160716
    19  C   -0.168571
    20  C   -0.216721
    21  H    0.220852
    22  H    0.220660
    23  H    0.278094
    24  H    0.277697
    25  H    0.224816
    26  N    0.488364
    27  O   -0.459094
    28  O   -0.458658
 Sum of Mulliken charges =  -0.00000

 Dipole moment (field-independent basis, Debye):
    X=             -3.7456    Y=             -8.2233    Z=             -0.0527  Tot=              9.0363
 Quadrupole moment (field-independent basis, Debye-Ang):
   XX=           -108.2556   YY=           -109.3159   ZZ=           -104.0146
   XY=             -1.2251   XZ=             19.6116   YZ=             -2.3755

 Normal termination of Gaussian 16 at Fri May  7 09:33:37 2021.
