 Gaussian 16, Revision A.03,
 Gaussian 16:  EM64L-G16RevA.03 25-Dec-2016

 -------------
 #p 6-31g* mp2
 -------------

 ------------------------------------------------------
 Input file generated by CHIRIPA (05-May-2021 14:51:12)
 ------------------------------------------------------
 Symbolic Z-matrix:
 Charge =  0 Multiplicity = 1

                         Standard orientation:
 ---------------------------------------------------------------------
 Center     Atomic      Atomic             Coordinates (Angstroms)
 Number     Number       Type             X           Y           Z
 ---------------------------------------------------------------------
      1          6           0        3.682693   -0.569636    0.093594
      2          6           0        4.514253   -1.651208   -0.596837
      3          6           0        4.504716   -2.978617    0.161905
      4          1           0        4.066570   -0.414704    1.111228
      5          1           0        2.648280   -0.924567    0.200396
      6          1           0        5.546475   -1.293790   -0.703550
      7          1           0        4.128474   -1.803447   -1.613013
      8          1           0        3.483241   -3.361097    0.256232
      9          1           0        4.909298   -2.848544    1.170863
     10          1           0        5.105294   -3.737514   -0.349212
     11          6           0        3.682453    0.763188   -0.652938
     12          6           0        2.850894    1.844760    0.037492
     13          6           0        2.860431    3.172169   -0.721249
     14          1           0        4.716867    1.118119   -0.759741
     15          1           0        3.298577    0.608256   -1.670573
     16          1           0        3.236673    1.996999    1.053668
     17          1           0        1.818672    1.487342    0.144205
     18          1           0        2.455849    3.042096   -1.730207
     19          1           0        3.881906    3.554649   -0.815576
     20          1           0        2.259853    3.931067   -0.210133
     21          6           0       -4.444778   -0.060440    0.245672
     22          6           0       -5.021367   -0.624316   -1.053395
     23          6           0       -6.547349   -0.544613   -1.106492
     24          1           0       -4.871813   -0.607995    1.097004
     25          1           0       -4.762286    0.985711    0.355908
     26          1           0       -4.701722   -1.668675   -1.161835
     27          1           0       -4.592763   -0.075481   -1.901743
     28          1           0       -6.881959    0.494493   -1.023456
     29          1           0       -6.991537   -1.107753   -0.279344
     30          1           0       -6.938332   -0.953079   -2.043588
     31          6           0       -2.920369   -0.133113    0.313673
     32          6           0       -2.343780    0.430764    1.612739
     33          6           0       -0.817798    0.351061    1.665836
     34          1           0       -2.602861   -1.179263    0.203436
     35          1           0       -2.493334    0.414443   -0.537660
     36          1           0       -2.772383   -0.118071    2.461088
     37          1           0       -2.663425    1.475122    1.721180
     38          1           0       -0.373610    0.914200    0.838690
     39          1           0       -0.483187   -0.688045    1.582801
     40          1           0       -0.426815    0.759526    2.602932
 ---------------------------------------------------------------------

 SCF Done:  E(RHF) =  -470.733252917     A.U. after   11 cycles
 E2 =    -0.1582606547D+01 EUMP2 =    -0.47231585946360D+03

 The electronic state is 1-A.
 Alpha  occ. eigenvalues --  -11.21629 -11.21623 -11.21561 -11.21509 -11.21435
 Alpha  occ. eigenvalues --  -11.21375 -11.21346 -11.21286 -11.21098 -11.21088
 Alpha  occ. eigenvalues --  -11.21043 -11.21038  -1.08459  -1.08375  -1.03561
 Alpha  occ. eigenvalues --   -1.03480  -0.96009  -0.95935  -0.87034  -0.86945
 Alpha  occ. eigenvalues --   -0.79663  -0.79509  -0.78286  -0.78167  -0.65105
 Alpha  occ. eigenvalues --   -0.64999  -0.61032  -0.60823  -0.59372  -0.59306
 Alpha  occ. eigenvalues --   -0.57622  -0.57543  -0.55336  -0.55193  -0.52710
 Alpha  occ. eigenvalues --   -0.52631  -0.52450  -0.52351  -0.50048  -0.49812
 Alpha  occ. eigenvalues --   -0.48038  -0.47797  -0.46777  -0.46442  -0.45901
 Alpha  occ. eigenvalues --   -0.45742  -0.45705  -0.45478  -0.43808  -0.43733
 Alpha virt. eigenvalues --    0.21839   0.22997   0.23843   0.24513   0.25553
 Alpha virt. eigenvalues --    0.26565   0.27071   0.27588   0.27969   0.29374
 Alpha virt. eigenvalues --    0.29925   0.31548   0.31805   0.31984   0.31993

 Mulliken charges:
               1
     1  C   -0.299111
     2  C   -0.299628
     3  C   -0.475591
     4  H    0.149575
     5  H    0.150922
     6  H    0.151798
     7  H    0.151779
     8  H    0.154972
     9  H    0.155148
    10  H    0.160072
    11  C   -0.297624
    12  C   -0.307888
    13  C   -0.475387
    14  H    0.149213
    15  H    0.149106
    16  H    0.151780
    17  H    0.160758
    18  H    0.154542
    19  H    0.155138
    20  H    0.159841
    21  C   -0.298292
    22  C   -0.299680
    23  C   -0.475726
    24  H    0.149773
    25  H    0.149641
    26  H    0.151906
    27  H    0.151915
    28  H    0.155243
    29  H    0.155233
    30  H    0.160307
    31  C   -0.298421
    32  C   -0.299652
    33  C   -0.480223
    34  H    0.149388
    35  H    0.149425
    36  H    0.152090
    37  H    0.152108
    38  H    0.159117
    39  H    0.155194
    40  H    0.161239
 Sum of Mulliken charges =  -0.00000

 Dipole moment (field-independent basis, Debye):
    X=             -0.0291    Y=             -0.0023    Z=              0.0211  Tot=              0.0360
 Quadrupole moment (field-independent basis, Debye-Ang):
   XX=            -85.4100   YY=            -84.9511   ZZ=            -84.5370
   XY=              0.3632   XZ=              0.2077   YZ=              0.2174

 Normal termination of Gaussian 16 at Thu May  6 07:05:46 2021.
