 Gaussian 16, Revision A.03,
 Gaussian 16:  EM64L-G16RevA.03 25-Dec-2016

 -------------
 #p 6-31g* mp2
 -------------

 ------------------------------------------------------
 Input file generated by CHIRIPA (05-May-2021 14:57:25)
 ------------------------------------------------------
 Symbolic Z-matrix:
 Charge =  0 Multiplicity = 1

                         Standard orientation:
 ---------------------------------------------------------------------
 Center     Atomic      Atomic             Coordinates (Angstroms)
 Number     Number       Type             X           Y           Z
 ---------------------------------------------------------------------
      1          6           0       -1.530164    2.472859    0.392363
      2          6           0       -2.223330    1.907511    1.467735
      3          6           0       -3.025197    0.777701    1.280422
      4          6           0       -3.111516    0.236668   -0.001421
      5          6           0       -2.433162    0.776959   -1.092848
      6          6           0       -1.637104    1.906777   -0.882249
      7          1           0       -0.909511    3.350525    0.546917
      8          1           0       -2.142150    2.345013    2.458718
      9          1           0       -3.572645    0.319751    2.095285
     10          1           0       -2.533800    0.318450   -2.069095
     11          1           0       -1.099917    2.343708   -1.719247
     12          7           0       -3.957342   -0.959415   -0.212047
     13          8           0       -4.016745   -1.417167   -1.351157
     14          8           0       -4.544881   -1.416506    0.765963
     15          6           0        5.093599    0.931269   -0.075924
     16          6           0        5.101702   -0.358225    0.465981
     17          6           0        3.932131   -1.123612    0.494855
     18          6           0        2.767017   -0.565766   -0.029171
     19          6           0        2.726934    0.715980   -0.575805
     20          6           0        3.908331    1.463318   -0.594174
     21          1           0        6.006743    1.518830   -0.094273
     22          1           0        6.020737   -0.773988    0.869172
     23          1           0        3.910162   -2.124548    0.908451
     24          1           0        1.795400    1.103387   -0.970240
     25          1           0        3.899077    2.464477   -1.015647
     26          7           0        1.522584   -1.366494   -0.004164
     27          8           0        0.509114   -0.852197   -0.472151
     28          8           0        1.584233   -2.493239    0.482951
 ---------------------------------------------------------------------

 SCF Done:  E(RHF) =  -868.336687413     A.U. after   16 cycles
 E2 =    -0.2601348533D+01 EUMP2 =    -0.87093803594555D+03

 The electronic state is 1-A.
 Alpha  occ. eigenvalues --  -20.61023 -20.61009 -20.59798 -20.59784 -15.86069
 Alpha  occ. eigenvalues --  -15.84851 -11.31554 -11.30226 -11.28180 -11.28099
 Alpha  occ. eigenvalues --  -11.27882 -11.27205 -11.27132 -11.26889 -11.26856
 Alpha  occ. eigenvalues --  -11.26779 -11.25990 -11.25959  -1.60091  -1.58856
 Alpha  occ. eigenvalues --   -1.39643  -1.38415  -1.19734  -1.18447  -1.09103
 Alpha  occ. eigenvalues --   -1.07883  -1.05159  -1.03897  -0.95923  -0.94705
 Alpha  occ. eigenvalues --   -0.86547  -0.85330  -0.82760  -0.81557  -0.77794
 Alpha  occ. eigenvalues --   -0.76559  -0.72308  -0.71417  -0.71095  -0.70838
 Alpha  occ. eigenvalues --   -0.70146  -0.69682  -0.65388  -0.65165  -0.64165
 Alpha  occ. eigenvalues --   -0.63995  -0.62512  -0.61280  -0.55641  -0.54522
 Alpha  occ. eigenvalues --   -0.53475  -0.53258  -0.52144  -0.52063  -0.49063
 Alpha  occ. eigenvalues --   -0.49027  -0.47851  -0.47828  -0.45014  -0.43822
 Alpha  occ. eigenvalues --   -0.37710  -0.36776  -0.36453  -0.35404
 Alpha virt. eigenvalues --    0.04750   0.06028   0.10883   0.12072   0.16227
 Alpha virt. eigenvalues --    0.17445   0.20641   0.22016   0.26259   0.27377
 Alpha virt. eigenvalues --    0.28602   0.28986   0.30501   0.31355   0.32354

 Mulliken charges:
               1
     1  C   -0.172508
     2  C   -0.218559
     3  C   -0.168614
     4  C    0.164794
     5  C   -0.152142
     6  C   -0.214659
     7  H    0.216871
     8  H    0.218763
     9  H    0.273726
    10  H    0.275012
    11  H    0.213097
    12  N    0.489222
    13  O   -0.460171
    14  O   -0.463260
    15  C   -0.170752
    16  C   -0.218448
    17  C   -0.170338
    18  C    0.158336
    19  C   -0.171524
    20  C   -0.219018
    21  H    0.226228
    22  H    0.224890
    23  H    0.277479
    24  H    0.270326
    25  H    0.221072
    26  N    0.491010
    27  O   -0.463855
    28  O   -0.456978
 Sum of Mulliken charges =  -0.00000

 Dipole moment (field-independent basis, Debye):
    X=              7.4101    Y=              6.7046    Z=              0.6263  Tot=             10.0127
 Quadrupole moment (field-independent basis, Debye-Ang):
   XX=            -98.6307   YY=           -104.8570   ZZ=           -100.0409
   XY=             -9.0147   XZ=             -2.4363   YZ=             -1.8209

 Normal termination of Gaussian 16 at Thu May  6 01:57:02 2021.
