 Gaussian 16, Revision A.03,
 Gaussian 16:  EM64L-G16RevA.03 25-Dec-2016

 -------------
 #p 6-31g* mp2
 -------------

 ------------------------------------------------------
 Input file generated by CHIRIPA (05-May-2021 14:51:08)
 ------------------------------------------------------
 Symbolic Z-matrix:
 Charge =  0 Multiplicity = 1

                         Standard orientation:
 ---------------------------------------------------------------------
 Center     Atomic      Atomic             Coordinates (Angstroms)
 Number     Number       Type             X           Y           Z
 ---------------------------------------------------------------------
      1          6           0       -4.143700   -0.692936    0.078217
      2          6           0       -4.920323    0.598185   -0.182262
      3          6           0       -6.427160    0.432062    0.016833
      4          1           0       -4.518727   -1.480086   -0.590134
      5          1           0       -4.343744   -1.032333    1.103979
      6          1           0       -4.717784    0.935792   -1.206769
      7          1           0       -4.543273    1.382405    0.486654
      8          1           0       -6.647977    0.118166    1.042167
      9          1           0       -6.823480   -0.330985   -0.660878
     10          1           0       -6.962893    1.367060   -0.174549
     11          6           0       -2.635992   -0.542818   -0.116746
     12          6           0       -1.859369   -1.833938    0.143733
     13          6           0       -0.352532   -1.667815   -0.055362
     14          1           0       -2.435948   -0.203421   -1.142508
     15          1           0       -2.260965    0.244333    0.551605
     16          1           0       -2.236419   -2.618158   -0.525183
     17          1           0       -2.061908   -2.171546    1.168240
     18          1           0        0.043788   -0.904769    0.622349
     19          1           0       -0.131715   -1.353919   -1.080697
     20          1           0        0.183201   -2.602814    0.136020
     21          6           0        3.113343    1.260260   -0.287853
     22          6           0        1.998585    1.898114    0.541871
     23          6           0        1.455657    3.182421   -0.085487
     24          1           0        3.930619    1.984141   -0.410335
     25          1           0        2.733047    1.044672   -1.295966
     26          1           0        2.380463    2.111167    1.548545
     27          1           0        1.183950    1.172564    0.662554
     28          1           0        1.048750    2.982274   -1.081965
     29          1           0        2.252060    3.926210   -0.190939
     30          1           0        0.659771    3.621652    0.524024
     31          6           0        3.666349   -0.024507    0.326383
     32          6           0        4.781107   -0.662361   -0.503342
     33          6           0        5.324036   -1.946667    0.124017
     34          1           0        4.046644    0.191082    1.334495
     35          1           0        2.849074   -0.748388    0.448864
     36          1           0        5.595741    0.063190   -0.624024
     37          1           0        4.399230   -0.875414   -1.510017
     38          1           0        4.527632   -2.690457    0.229468
     39          1           0        5.730943   -1.746520    1.120495
     40          1           0        6.119920   -2.385898   -0.485495
 ---------------------------------------------------------------------

 SCF Done:  E(RHF) =  -470.733157770     A.U. after   11 cycles
 E2 =    -0.1583179425D+01 EUMP2 =    -0.47231633719554D+03

 The electronic state is 1-A.
 Alpha  occ. eigenvalues --  -11.21672 -11.21625 -11.21536 -11.21527 -11.21452
 Alpha  occ. eigenvalues --  -11.21390 -11.21323 -11.21256 -11.21167 -11.21089
 Alpha  occ. eigenvalues --  -11.21027 -11.21021  -1.08480  -1.08357  -1.03587
 Alpha  occ. eigenvalues --   -1.03468  -0.96040  -0.95916  -0.87061  -0.86934
 Alpha  occ. eigenvalues --   -0.79668  -0.79527  -0.78309  -0.78150  -0.65134
 Alpha  occ. eigenvalues --   -0.64974  -0.61027  -0.60839  -0.59410  -0.59281
 Alpha  occ. eigenvalues --   -0.57644  -0.57530  -0.55334  -0.55205  -0.52738
 Alpha  occ. eigenvalues --   -0.52635  -0.52462  -0.52339  -0.50020  -0.49847
 Alpha  occ. eigenvalues --   -0.48067  -0.47802  -0.46789  -0.46496  -0.45949
 Alpha  occ. eigenvalues --   -0.45765  -0.45682  -0.45364  -0.43831  -0.43717
 Alpha virt. eigenvalues --    0.21129   0.22951   0.23825   0.24681   0.25455
 Alpha virt. eigenvalues --    0.26442   0.27254   0.27448   0.28008   0.29476
 Alpha virt. eigenvalues --    0.30173   0.31447   0.31819   0.31889   0.32147

 Mulliken charges:
               1
     1  C   -0.298339
     2  C   -0.299692
     3  C   -0.475751
     4  H    0.149781
     5  H    0.149661
     6  H    0.152016
     7  H    0.152123
     8  H    0.155227
     9  H    0.155192
    10  H    0.160392
    11  C   -0.298659
    12  C   -0.300141
    13  C   -0.482218
    14  H    0.149519
    15  H    0.149825
    16  H    0.152237
    17  H    0.152317
    18  H    0.161961
    19  H    0.155077
    20  H    0.160409
    21  C   -0.297174
    22  C   -0.306743
    23  C   -0.475028
    24  H    0.149259
    25  H    0.149374
    26  H    0.151264
    27  H    0.158328
    28  H    0.155255
    29  H    0.154970
    30  H    0.159630
    31  C   -0.303243
    32  C   -0.299355
    33  C   -0.475644
    34  H    0.148724
    35  H    0.155932
    36  H    0.151589
    37  H    0.151840
    38  H    0.155163
    39  H    0.154963
    40  H    0.159960
 Sum of Mulliken charges =  -0.00000

 Dipole moment (field-independent basis, Debye):
    X=             -0.0462    Y=             -0.0249    Z=              0.0010  Tot=              0.0525
 Quadrupole moment (field-independent basis, Debye-Ang):
   XX=            -85.8809   YY=            -85.3821   ZZ=            -83.6619
   XY=              0.8905   XZ=              0.4033   YZ=              0.8314

 Normal termination of Gaussian 16 at Wed May  5 21:17:03 2021.
