 Gaussian 16, Revision A.03,
 Gaussian 16:  EM64L-G16RevA.03 25-Dec-2016

 -------------
 #p 6-31g* mp2
 -------------

 ------------------------------------------------------
 Input file generated by CHIRIPA (05-May-2021 14:53:15)
 ------------------------------------------------------
 Symbolic Z-matrix:
 Charge =  0 Multiplicity = 1

                         Standard orientation:
 ---------------------------------------------------------------------
 Center     Atomic      Atomic             Coordinates (Angstroms)
 Number     Number       Type             X           Y           Z
 ---------------------------------------------------------------------
      1          6           0       -4.345747   -0.569692   -0.042821
      2          6           0       -4.916140    0.844954   -0.149645
      3          6           0       -6.427983    0.891211    0.073933
      4          1           0       -4.846287   -1.216379   -0.776443
      5          1           0       -4.583422   -0.979470    0.948636
      6          1           0       -4.676263    1.252461   -1.140105
      7          1           0       -4.414049    1.488393    0.584186
      8          1           0       -6.682234    0.509713    1.068125
      9          1           0       -6.945938    0.272441   -0.665964
     10          1           0       -6.814727    1.911874   -0.006910
     11          6           0       -2.835473   -0.632241   -0.263931
     12          6           0       -2.265079   -2.046888   -0.157108
     13          6           0       -0.753237   -2.093144   -0.380686
     14          1           0       -2.597798   -0.222464   -1.255389
     15          1           0       -2.334933    0.014445    0.469691
     16          1           0       -2.767171   -2.690326   -0.890938
     17          1           0       -2.504957   -2.454395    0.833353
     18          1           0       -0.235282   -1.474375    0.359211
     19          1           0       -0.498986   -1.711647   -1.374877
     20          1           0       -0.366493   -3.113808   -0.299843
     21          6           0        1.198900    2.407805    0.289621
     22          6           0        2.270333    2.463133   -0.607870
     23          6           0        3.166541    1.395027   -0.710378
     24          6           0        2.960451    0.282117    0.103410
     25          6           0        1.902553    0.197099    1.007241
     26          6           0        1.018746    1.276958    1.092896
     27          1           0        0.507520    3.242101    0.362706
     28          1           0        2.412702    3.340088   -1.232950
     29          1           0        4.004477    1.411481   -1.396680
     30          1           0        1.786554   -0.690526    1.617229
     31          1           0        0.187544    1.231225    1.790791
     32          7           0        3.902663   -0.854861    0.003811
     33          8           0        3.699212   -1.823994    0.731838
     34          8           0        4.826777   -0.755360   -0.800397
 ---------------------------------------------------------------------

 SCF Done:  E(RHF) =  -669.534483887     A.U. after   15 cycles
 E2 =    -0.2092724815D+01 EUMP2 =    -0.67162720870156D+03

 The electronic state is 1-A.
 Alpha  occ. eigenvalues --  -20.60744 -20.60738 -15.85799 -11.31175 -11.27764
 Alpha  occ. eigenvalues --  -11.27760 -11.27509 -11.26778 -11.26763 -11.22071
 Alpha  occ. eigenvalues --  -11.21878 -11.21824 -11.21765 -11.21461 -11.21157
 Alpha  occ. eigenvalues --   -1.59818  -1.39372  -1.19367  -1.08823  -1.08750
 Alpha  occ. eigenvalues --   -1.04790  -1.03862  -0.96308  -0.95584  -0.87324
 Alpha  occ. eigenvalues --   -0.86168  -0.82427  -0.79939  -0.78650  -0.77463
 Alpha  occ. eigenvalues --   -0.72020  -0.71141  -0.70483  -0.65469  -0.65022
 Alpha  occ. eigenvalues --   -0.64787  -0.62175  -0.61246  -0.59668  -0.57925
 Alpha  occ. eigenvalues --   -0.55635  -0.55265  -0.53258  -0.52977  -0.52883
 Alpha  occ. eigenvalues --   -0.52559  -0.50243  -0.48779  -0.48771  -0.48236
 Alpha  occ. eigenvalues --   -0.46985  -0.46189  -0.46113  -0.44772  -0.44124
 Alpha  occ. eigenvalues --   -0.37337  -0.36289
 Alpha virt. eigenvalues --    0.05050   0.11186   0.16430   0.20379   0.22708
 Alpha virt. eigenvalues --    0.24018   0.25480   0.26778   0.26942   0.28437
 Alpha virt. eigenvalues --    0.28789   0.30450   0.31384   0.31626   0.31766

 Mulliken charges:
               1
     1  C   -0.298487
     2  C   -0.299019
     3  C   -0.475779
     4  H    0.152004
     5  H    0.149787
     6  H    0.151961
     7  H    0.147498
     8  H    0.155769
     9  H    0.156824
    10  H    0.160245
    11  C   -0.296463
    12  C   -0.300854
    13  C   -0.476651
    14  H    0.150735
    15  H    0.140668
    16  H    0.154045
    17  H    0.151158
    18  H    0.149960
    19  H    0.156609
    20  H    0.166568
    21  C   -0.170467
    22  C   -0.218740
    23  C   -0.171176
    24  C    0.158060
    25  C   -0.169492
    26  C   -0.216722
    27  H    0.225877
    28  H    0.223408
    29  H    0.275666
    30  H    0.276133
    31  H    0.223508
    32  N    0.488284
    33  O   -0.460229
    34  O   -0.460687
 Sum of Mulliken charges =  -0.00000

 Dipole moment (field-independent basis, Debye):
    X=             -3.3167    Y=              3.9534    Z=              0.2817  Tot=              5.1681
 Quadrupole moment (field-independent basis, Debye-Ang):
   XX=           -114.6908   YY=            -91.6335   ZZ=            -91.6676
   XY=             12.7883   XZ=             -0.9785   YZ=             -1.3297

 Normal termination of Gaussian 16 at Wed May  5 23:32:05 2021.
