 Gaussian 16, Revision A.03,
 Gaussian 16:  EM64L-G16RevA.03 25-Dec-2016

 -------------
 #p 6-31g* mp2
 -------------

 ------------------------------------------------------
 Input file generated by CHIRIPA (05-May-2021 14:53:17)
 ------------------------------------------------------
 Symbolic Z-matrix:
 Charge =  0 Multiplicity = 1

                         Standard orientation:
 ---------------------------------------------------------------------
 Center     Atomic      Atomic             Coordinates (Angstroms)
 Number     Number       Type             X           Y           Z
 ---------------------------------------------------------------------
      1          6           0       -3.157334    0.675943   -0.084159
      2          6           0       -3.936028    1.987711   -0.188493
      3          6           0       -3.040235    3.219341   -0.052717
      4          1           0       -2.631983    0.644490    0.880186
      5          1           0       -2.382542    0.654621   -0.863029
      6          1           0       -4.710023    2.005946    0.589463
      7          1           0       -4.459740    2.015959   -1.152621
      8          1           0       -2.276453    3.228533   -0.837034
      9          1           0       -2.528157    3.218463    0.914949
     10          1           0       -3.617357    4.146040   -0.130304
     11          6           0       -4.039138   -0.564316   -0.217975
     12          6           0       -3.260444   -1.876085   -0.113642
     13          6           0       -4.156237   -3.107715   -0.249418
     14          1           0       -4.813930   -0.542994    0.560894
     15          1           0       -4.564489   -0.532864   -1.182321
     16          1           0       -2.736732   -1.904333    0.850487
     17          1           0       -2.486450   -1.894320   -0.891598
     18          1           0       -4.668315   -3.106837   -1.217083
     19          1           0       -4.920019   -3.116907    0.534899
     20          1           0       -3.579116   -4.034414   -0.171830
     21          6           0        5.122842   -0.117476   -0.890154
     22          6           0        4.003402    0.029155   -1.715911
     23          6           0        2.717775    0.071336   -1.168250
     24          6           0        2.587634   -0.036463    0.215488
     25          6           0        3.683408   -0.183435    1.064587
     26          6           0        4.959560   -0.223117    0.495017
     27          1           0        6.117867   -0.149273   -1.324100
     28          1           0        4.127200    0.111432   -2.791992
     29          1           0        1.833891    0.184075   -1.784251
     30          1           0        3.528286   -0.262973    2.133712
     31          1           0        5.827123   -0.337074    1.138751
     32          7           0        1.231613    0.006870    0.806868
     33          8           0        1.143732   -0.090196    2.028954
     34          8           0        0.282321    0.137079    0.037110
 ---------------------------------------------------------------------

 SCF Done:  E(RHF) =  -669.535628570     A.U. after   15 cycles
 E2 =    -0.2091641301D+01 EUMP2 =    -0.67162726987177D+03

 The electronic state is 1-A.
 Alpha  occ. eigenvalues --  -20.60939 -20.60931 -15.85971 -11.31302 -11.27870
 Alpha  occ. eigenvalues --  -11.27863 -11.27604 -11.26876 -11.26866 -11.20328
 Alpha  occ. eigenvalues --  -11.20268 -11.20087 -11.20045 -11.19945 -11.19568
 Alpha  occ. eigenvalues --   -1.60001  -1.39558  -1.19472  -1.08874  -1.07021
 Alpha  occ. eigenvalues --   -1.04870  -1.02294  -0.95717  -0.94741  -0.86270
 Alpha  occ. eigenvalues --   -0.85768  -0.82555  -0.78334  -0.77612  -0.76748
 Alpha  occ. eigenvalues --   -0.72178  -0.71313  -0.70581  -0.65128  -0.64873
 Alpha  occ. eigenvalues --   -0.63670  -0.62218  -0.59712  -0.58116  -0.56341
 Alpha  occ. eigenvalues --   -0.55373  -0.54043  -0.53200  -0.52963  -0.51511
 Alpha  occ. eigenvalues --   -0.51170  -0.48976  -0.48956  -0.48692  -0.46659
 Alpha  occ. eigenvalues --   -0.45371  -0.44955  -0.44233  -0.44211  -0.42482
 Alpha  occ. eigenvalues --   -0.37450  -0.36471
 Alpha virt. eigenvalues --    0.04925   0.11184   0.16418   0.21298   0.24156
 Alpha virt. eigenvalues --    0.25444   0.27213   0.27774   0.28276   0.28886
 Alpha virt. eigenvalues --    0.29296   0.30946   0.32430   0.32534   0.32887

 Mulliken charges:
               1
     1  C   -0.296259
     2  C   -0.299666
     3  C   -0.473094
     4  H    0.163475
     5  H    0.157884
     6  H    0.147309
     7  H    0.145237
     8  H    0.153166
     9  H    0.158037
    10  H    0.153444
    11  C   -0.299103
    12  C   -0.297146
    13  C   -0.475119
    14  H    0.144523
    15  H    0.142438
    16  H    0.158895
    17  H    0.152487
    18  H    0.150929
    19  H    0.152741
    20  H    0.156267
    21  C   -0.170626
    22  C   -0.218476
    23  C   -0.170635
    24  C    0.157615
    25  C   -0.170559
    26  C   -0.218546
    27  H    0.226019
    28  H    0.223793
    29  H    0.275092
    30  H    0.275830
    31  H    0.223835
    32  N    0.493117
    33  O   -0.460113
    34  O   -0.462790
 Sum of Mulliken charges =  -0.00000

 Dipole moment (field-independent basis, Debye):
    X=              5.1776    Y=             -0.1617    Z=             -1.9826  Tot=              5.5465
 Quadrupole moment (field-independent basis, Debye-Ang):
   XX=            -71.7457   YY=            -97.5594   ZZ=            -90.5643
   XY=             -1.3107   XZ=             -2.9838   YZ=             -0.5982

 Normal termination of Gaussian 16 at Thu May  6 02:46:20 2021.
