 Gaussian 16, Revision A.03,
 Gaussian 16:  EM64L-G16RevA.03 25-Dec-2016

 -------------
 #p 6-31g* mp2
 -------------

 ------------------------------------------------------
 Input file generated by CHIRIPA (05-May-2021 14:51:10)
 ------------------------------------------------------
 Symbolic Z-matrix:
 Charge =  0 Multiplicity = 1

                         Standard orientation:
 ---------------------------------------------------------------------
 Center     Atomic      Atomic             Coordinates (Angstroms)
 Number     Number       Type             X           Y           Z
 ---------------------------------------------------------------------
      1          6           0        4.200924    0.254579   -0.273764
      2          6           0        5.601452    0.197785    0.337202
      3          6           0        6.537527    1.265486   -0.229871
      4          1           0        4.277953    0.135552   -1.363188
      5          1           0        3.771794    1.250700   -0.097736
      6          1           0        6.027266   -0.798382    0.161279
      7          1           0        5.521063    0.316770    1.425318
      8          1           0        6.138283    2.267315   -0.041341
      9          1           0        6.647363    1.145827   -1.312562
     10          1           0        7.533222    1.206750    0.220687
     11          6           0        3.253570   -0.806638    0.283073
     12          6           0        1.853042   -0.749845   -0.327894
     13          6           0        0.916966   -1.817545    0.239180
     14          1           0        3.682699   -1.802759    0.107044
     15          1           0        3.176541   -0.687611    1.372497
     16          1           0        1.933431   -0.868829   -1.416010
     17          1           0        1.427227    0.246323   -0.151971
     18          1           0        0.807131   -1.697886    1.321870
     19          1           0        1.316210   -2.819374    0.050649
     20          1           0       -0.078728   -1.758809   -0.211378
     21          6           0       -4.106375   -0.379415   -0.105082
     22          6           0       -3.226871   -1.619634    0.057132
     23          6           0       -3.999626   -2.923122   -0.146732
     24          1           0       -4.937320   -0.430680    0.611749
     25          1           0       -4.557137   -0.386645   -1.107159
     26          1           0       -2.776806   -1.609354    1.058108
     27          1           0       -2.397815   -1.565318   -0.660038
     28          1           0       -4.435491   -2.959637   -1.150370
     29          1           0       -4.816635   -3.003925    0.577538
     30          1           0       -3.351757   -3.796967   -0.026222
     31          6           0       -3.348119    0.931474    0.095774
     32          6           0       -4.227623    2.171693   -0.066440
     33          6           0       -3.454868    3.475182    0.137424
     34          1           0       -2.897356    0.938704    1.097850
     35          1           0       -2.517174    0.982739   -0.621057
     36          1           0       -5.056678    2.117376    0.650729
     37          1           0       -4.677687    2.161413   -1.067417
     38          1           0       -2.637858    3.555984   -0.586847
     39          1           0       -3.019003    3.511696    1.141062
     40          1           0       -4.102737    4.349026    0.016913
 ---------------------------------------------------------------------

 SCF Done:  E(RHF) =  -470.733153710     A.U. after   11 cycles
 E2 =    -0.1582586741D+01 EUMP2 =    -0.47231574045136D+03

 The electronic state is 1-A.
 Alpha  occ. eigenvalues --  -11.21611 -11.21601 -11.21584 -11.21556 -11.21414
 Alpha  occ. eigenvalues --  -11.21376 -11.21354 -11.21316 -11.21082 -11.21067
 Alpha  occ. eigenvalues --  -11.21058 -11.20957  -1.08443  -1.08396  -1.03548
 Alpha  occ. eigenvalues --   -1.03483  -0.95989  -0.95935  -0.87018  -0.86942
 Alpha  occ. eigenvalues --   -0.79661  -0.79506  -0.78260  -0.78210  -0.65075
 Alpha  occ. eigenvalues --   -0.65029  -0.60950  -0.60887  -0.59496  -0.59191
 Alpha  occ. eigenvalues --   -0.57649  -0.57497  -0.55273  -0.55224  -0.52750
 Alpha  occ. eigenvalues --   -0.52609  -0.52416  -0.52339  -0.49927  -0.49880
 Alpha  occ. eigenvalues --   -0.48028  -0.47766  -0.46632  -0.46587  -0.45790
 Alpha  occ. eigenvalues --   -0.45759  -0.45713  -0.45676  -0.43815  -0.43665
 Alpha virt. eigenvalues --    0.21934   0.23101   0.23666   0.24603   0.26144
 Alpha virt. eigenvalues --    0.26596   0.26886   0.27570   0.27980   0.29041
 Alpha virt. eigenvalues --    0.30272   0.31323   0.31560   0.31954   0.32022

 Mulliken charges:
               1
     1  C   -0.298219
     2  C   -0.299606
     3  C   -0.475686
     4  H    0.149476
     5  H    0.149506
     6  H    0.151873
     7  H    0.151907
     8  H    0.155177
     9  H    0.155115
    10  H    0.160188
    11  C   -0.298317
    12  C   -0.299332
    13  C   -0.482465
    14  H    0.149398
    15  H    0.149559
    16  H    0.151177
    17  H    0.151990
    18  H    0.154519
    19  H    0.154235
    20  H    0.168398
    21  C   -0.297722
    22  C   -0.304346
    23  C   -0.475685
    24  H    0.149714
    25  H    0.149384
    26  H    0.153538
    27  H    0.155256
    28  H    0.154961
    29  H    0.155233
    30  H    0.160918
    31  C   -0.298540
    32  C   -0.299602
    33  C   -0.475728
    34  H    0.149602
    35  H    0.149548
    36  H    0.152007
    37  H    0.151978
    38  H    0.155209
    39  H    0.155069
    40  H    0.160311
 Sum of Mulliken charges =  -0.00000

 Dipole moment (field-independent basis, Debye):
    X=             -0.0403    Y=             -0.0045    Z=              0.0043  Tot=              0.0408
 Quadrupole moment (field-independent basis, Debye-Ang):
   XX=            -85.5225   YY=            -85.9391   ZZ=            -83.3324
   XY=             -1.1321   XZ=             -0.2648   YZ=              0.5647

 Normal termination of Gaussian 16 at Thu May  6 03:47:39 2021.
