 Gaussian 16, Revision A.03,
 Gaussian 16:  EM64L-G16RevA.03 25-Dec-2016

 -------------
 #p 6-31g* mp2
 -------------

 ------------------------------------------------------
 Input file generated by CHIRIPA (05-May-2021 14:55:19)
 ------------------------------------------------------
 Symbolic Z-matrix:
 Charge =  0 Multiplicity = 1

                         Standard orientation:
 ---------------------------------------------------------------------
 Center     Atomic      Atomic             Coordinates (Angstroms)
 Number     Number       Type             X           Y           Z
 ---------------------------------------------------------------------
      1          6           0       -1.104095   -1.920557   -0.053708
      2          6           0       -0.970633   -0.856677    0.844549
      3          6           0       -1.942092    0.146840    0.905960
      4          6           0       -3.039078    0.054593    0.050739
      5          6           0       -3.200391   -0.992750   -0.854987
      6          6           0       -2.216586   -1.985085   -0.899119
      7          1           0       -0.344647   -2.695770   -0.094702
      8          1           0       -0.107714   -0.803978    1.502301
      9          1           0       -1.863779    0.981603    1.591857
     10          1           0       -4.071718   -1.018037   -1.498079
     11          1           0       -2.322855   -2.810141   -1.597714
     12          7           0       -4.074053    1.111052    0.106606
     13          8           0       -5.031105    1.006780   -0.657472
     14          8           0       -3.908616    2.023373    0.913413
     15          6           0        3.937762   -0.556348    0.044166
     16          6           0        2.833968   -1.609995    0.141393
     17          6           0        3.382024   -3.024056    0.335970
     18          1           0        4.605789   -0.810255   -0.790228
     19          1           0        4.549643   -0.591166    0.956188
     20          1           0        2.223507   -1.572259   -0.769942
     21          1           0        2.168380   -1.353444    0.975532
     22          1           0        3.974474   -3.084571    1.254634
     23          1           0        4.029915   -3.304629   -0.500759
     24          1           0        2.575941   -3.761351    0.402940
     25          6           0        3.405602    0.862330   -0.150488
     26          6           0        4.509395    1.915977   -0.247713
     27          6           0        3.961340    3.330037   -0.442293
     28          1           0        2.793720    0.897147   -1.062510
     29          1           0        2.737574    1.116238    0.683906
     30          1           0        5.174984    1.659426   -1.081854
     31          1           0        5.119856    1.878241    0.663620
     32          1           0        3.313448    3.610611    0.394437
     33          1           0        3.368890    3.390552   -1.360954
     34          1           0        4.767423    4.067333   -0.509262
 ---------------------------------------------------------------------

 SCF Done:  E(RHF) =  -669.535152239     A.U. after   15 cycles
 E2 =    -0.2092033405D+01 EUMP2 =    -0.67162718564443D+03

 The electronic state is 1-A.
 Alpha  occ. eigenvalues --  -20.60717 -20.60711 -15.85769 -11.31121 -11.27692
 Alpha  occ. eigenvalues --  -11.27678 -11.27404 -11.26703 -11.26663 -11.22762
 Alpha  occ. eigenvalues --  -11.22217 -11.22163 -11.22100 -11.22027 -11.21418
 Alpha  occ. eigenvalues --   -1.59792  -1.39346  -1.19290  -1.09222  -1.08683
 Alpha  occ. eigenvalues --   -1.04695  -1.04307  -0.96726  -0.95522  -0.87742
 Alpha  occ. eigenvalues --   -0.86095  -0.82357  -0.80426  -0.78997  -0.77406
 Alpha  occ. eigenvalues --   -0.71988  -0.71115  -0.70392  -0.65871  -0.64941
 Alpha  occ. eigenvalues --   -0.64706  -0.62091  -0.61662  -0.60140  -0.58344
 Alpha  occ. eigenvalues --   -0.55988  -0.55174  -0.53449  -0.53160  -0.53011
 Alpha  occ. eigenvalues --   -0.52796  -0.50655  -0.48791  -0.48744  -0.48656
 Alpha  occ. eigenvalues --   -0.47437  -0.46524  -0.46419  -0.44755  -0.44550
 Alpha  occ. eigenvalues --   -0.37250  -0.36291
 Alpha virt. eigenvalues --    0.05111   0.11318   0.16556   0.19312   0.22512
 Alpha virt. eigenvalues --    0.23428   0.24478   0.25935   0.26426   0.28474
 Alpha virt. eigenvalues --    0.29119   0.29753   0.30993   0.31644   0.32129

 Mulliken charges:
               1
     1  C   -0.173147
     2  C   -0.219444
     3  C   -0.171782
     4  C    0.158556
     5  C   -0.171105
     6  C   -0.219425
     7  H    0.229050
     8  H    0.226509
     9  H    0.275289
    10  H    0.275254
    11  H    0.223094
    12  N    0.488023
    13  O   -0.460679
    14  O   -0.460610
    15  C   -0.298515
    16  C   -0.305484
    17  C   -0.476450
    18  H    0.152906
    19  H    0.151587
    20  H    0.153491
    21  H    0.144607
    22  H    0.159590
    23  H    0.160189
    24  H    0.154194
    25  C   -0.298389
    26  C   -0.300426
    27  C   -0.476211
    28  H    0.152358
    29  H    0.146192
    30  H    0.153143
    31  H    0.152546
    32  H    0.155962
    33  H    0.156948
    34  H    0.162178
 Sum of Mulliken charges =  -0.00000

 Dipole moment (field-independent basis, Debye):
    X=              3.8698    Y=             -3.6612    Z=             -0.2612  Tot=              5.3337
 Quadrupole moment (field-independent basis, Debye-Ang):
   XX=           -115.5187   YY=            -95.6572   ZZ=            -91.5911
   XY=             13.2689   XZ=              2.7282   YZ=              2.0711

 Normal termination of Gaussian 16 at Thu May  6 12:23:31 2021.
