 Gaussian 16, Revision A.03,
 Gaussian 16:  EM64L-G16RevA.03 25-Dec-2016

 -------------
 #p 6-31g* mp2
 -------------

 ------------------------------------------------------
 Input file generated by CHIRIPA (05-May-2021 14:51:12)
 ------------------------------------------------------
 Symbolic Z-matrix:
 Charge =  0 Multiplicity = 1

                         Standard orientation:
 ---------------------------------------------------------------------
 Center     Atomic      Atomic             Coordinates (Angstroms)
 Number     Number       Type             X           Y           Z
 ---------------------------------------------------------------------
      1          6           0        3.205168   -0.145006   -0.283705
      2          6           0        4.572202   -0.829184   -0.250452
      3          6           0        5.180195   -1.003177   -1.642524
      4          1           0        2.522939   -0.733416   -0.912419
      5          1           0        3.306063    0.837074   -0.766131
      6          1           0        4.469019   -1.809098    0.233011
      7          1           0        5.251201   -0.239178    0.378411
      8          1           0        5.311936   -0.031555   -2.129552
      9          1           0        4.525309   -1.610395   -2.275778
     10          1           0        6.157153   -1.494291   -1.595400
     11          6           0        2.584500    0.036040    1.100391
     12          6           0        1.217467    0.720218    1.067137
     13          6           0        0.609473    0.894211    2.459209
     14          1           0        2.483606   -0.946039    1.582817
     15          1           0        3.266730    0.624451    1.729105
     16          1           0        0.538468    0.130213    0.438274
     17          1           0        1.320650    1.700133    0.583674
     18          1           0        1.264360    1.501429    3.092463
     19          1           0        0.477733   -0.077411    2.946237
     20          1           0       -0.367484    1.385326    2.412085
     21          6           0       -3.445179   -0.473248   -0.453660
     22          6           0       -3.050813   -1.815202    0.164094
     23          6           0       -4.162171   -2.860666    0.065697
     24          1           0       -4.348727   -0.098122    0.046166
     25          1           0       -3.712514   -0.627406   -1.508252
     26          1           0       -2.782971   -1.658336    1.216837
     27          1           0       -2.147988   -2.187084   -0.337132
     28          1           0       -4.424835   -3.046359   -0.980787
     29          1           0       -5.063426   -2.514607    0.582013
     30          1           0       -3.858970   -3.812252    0.513373
     31          6           0       -2.344490    0.582214   -0.363025
     32          6           0       -2.738856    1.924167   -0.980779
     33          6           0       -1.627498    2.969632   -0.882382
     34          1           0       -2.077155    0.736371    0.691566
     35          1           0       -1.440942    0.207088   -0.862852
     36          1           0       -3.641680    2.296049   -0.479553
     37          1           0       -3.006697    1.767301   -2.033523
     38          1           0       -0.726243    2.623572   -1.398698
     39          1           0       -1.364833    3.155325    0.164101
     40          1           0       -1.930699    3.921217   -1.330059
 ---------------------------------------------------------------------

 SCF Done:  E(RHF) =  -470.732139422     A.U. after   11 cycles
 E2 =    -0.1584566843D+01 EUMP2 =    -0.47231670626516D+03

 The electronic state is 1-A.
 Alpha  occ. eigenvalues --  -11.21633 -11.21601 -11.21583 -11.21430 -11.21395
 Alpha  occ. eigenvalues --  -11.21365 -11.21322 -11.21286 -11.21094 -11.21063
 Alpha  occ. eigenvalues --  -11.21057 -11.21033  -1.08470  -1.08354  -1.03569
 Alpha  occ. eigenvalues --   -1.03453  -0.95996  -0.95940  -0.87008  -0.86961
 Alpha  occ. eigenvalues --   -0.79699  -0.79490  -0.78434  -0.78010  -0.65092
 Alpha  occ. eigenvalues --   -0.65007  -0.60953  -0.60891  -0.59517  -0.59180
 Alpha  occ. eigenvalues --   -0.57627  -0.57527  -0.55292  -0.55222  -0.52699
 Alpha  occ. eigenvalues --   -0.52645  -0.52437  -0.52359  -0.49971  -0.49848
 Alpha  occ. eigenvalues --   -0.48090  -0.47779  -0.46698  -0.46604  -0.46081
 Alpha  occ. eigenvalues --   -0.45690  -0.45664  -0.45164  -0.43790  -0.43726
 Alpha virt. eigenvalues --    0.20988   0.23093   0.23456   0.24573   0.24858
 Alpha virt. eigenvalues --    0.26145   0.26721   0.27931   0.28657   0.29687
 Alpha virt. eigenvalues --    0.30369   0.31182   0.31613   0.31894   0.32213

 Mulliken charges:
               1
     1  C   -0.298054
     2  C   -0.299524
     3  C   -0.475684
     4  H    0.148548
     5  H    0.149318
     6  H    0.151898
     7  H    0.152038
     8  H    0.155134
     9  H    0.154932
    10  H    0.160223
    11  C   -0.297922
    12  C   -0.305459
    13  C   -0.478644
    14  H    0.149031
    15  H    0.149033
    16  H    0.159362
    17  H    0.153360
    18  H    0.155067
    19  H    0.154804
    20  H    0.160702
    21  C   -0.297328
    22  C   -0.300137
    23  C   -0.475566
    24  H    0.149492
    25  H    0.149310
    26  H    0.152274
    27  H    0.150980
    28  H    0.155246
    29  H    0.155391
    30  H    0.160212
    31  C   -0.305801
    32  C   -0.299336
    33  C   -0.477620
    34  H    0.156021
    35  H    0.152406
    36  H    0.151552
    37  H    0.151703
    38  H    0.156894
    39  H    0.156301
    40  H    0.159844
 Sum of Mulliken charges =  -0.00000

 Dipole moment (field-independent basis, Debye):
    X=             -0.0306    Y=              0.0063    Z=             -0.0129  Tot=              0.0338
 Quadrupole moment (field-independent basis, Debye-Ang):
   XX=            -85.3917   YY=            -84.6750   ZZ=            -84.9098
   XY=             -0.1711   XZ=              0.1905   YZ=              0.1616

 Normal termination of Gaussian 16 at Wed May  5 23:08:02 2021.
