 Gaussian 16, Revision A.03,
 Gaussian 16:  EM64L-G16RevA.03 25-Dec-2016

 -------------
 #p 6-31g* mp2
 -------------

 ------------------------------------------------------
 Input file generated by CHIRIPA (05-May-2021 14:55:19)
 ------------------------------------------------------
 Symbolic Z-matrix:
 Charge =  0 Multiplicity = 1

                         Standard orientation:
 ---------------------------------------------------------------------
 Center     Atomic      Atomic             Coordinates (Angstroms)
 Number     Number       Type             X           Y           Z
 ---------------------------------------------------------------------
      1          6           0       -4.504835    0.737928    0.390266
      2          6           0       -4.159972    0.303185   -0.893708
      3          6           0       -2.995147   -0.441287   -1.102257
      4          6           0       -2.194650   -0.734351    0.000742
      5          6           0       -2.511257   -0.315485    1.292099
      6          6           0       -3.680830    0.427753    1.477155
      7          1           0       -5.411543    1.315773    0.543148
      8          1           0       -4.798011    0.542594   -1.739659
      9          1           0       -2.704352   -0.790450   -2.085589
     10          1           0       -1.855269   -0.569706    2.115791
     11          1           0       -3.946159    0.764059    2.475425
     12          7           0       -0.958989   -1.521837   -0.207605
     13          8           0       -0.270601   -1.766885    0.780682
     14          8           0       -0.702264   -1.879109   -1.355248
     15          6           0        2.794998    1.486149   -0.022097
     16          6           0        1.315331    1.577463   -0.396572
     17          6           0        0.780063    3.008811   -0.346308
     18          1           0        2.937405    1.897174    0.986725
     19          1           0        3.378332    2.120884   -0.703441
     20          1           0        0.735117    0.941663    0.284403
     21          1           0        1.176400    1.165996   -1.404544
     22          1           0        1.333428    3.651572   -1.038583
     23          1           0        0.889638    3.425966    0.659961
     24          1           0       -0.279428    3.050977   -0.617528
     25          6           0        3.344654    0.061534   -0.067708
     26          6           0        4.824322   -0.029781    0.306767
     27          6           0        5.359589   -1.461127    0.256503
     28          1           0        2.761321   -0.573201    0.613635
     29          1           0        3.202248   -0.349492   -1.076530
     30          1           0        4.963252    0.381686    1.314740
     31          1           0        5.404535    0.606020   -0.374208
     32          1           0        5.250015   -1.878282   -0.749766
     33          1           0        4.806224   -2.103889    0.948778
     34          1           0        6.419081   -1.503294    0.527723
 ---------------------------------------------------------------------

 SCF Done:  E(RHF) =  -669.536425254     A.U. after   15 cycles
 E2 =    -0.2092644345D+01 EUMP2 =    -0.67162906959914D+03

 The electronic state is 1-A.
 Alpha  occ. eigenvalues --  -20.60953 -20.60934 -15.85948 -11.31277 -11.27838
 Alpha  occ. eigenvalues --  -11.27832 -11.27570 -11.26845 -11.26835 -11.20955
 Alpha  occ. eigenvalues --  -11.20714 -11.20713 -11.20626 -11.20209 -11.20173
 Alpha  occ. eigenvalues --   -1.59983  -1.39545  -1.19441  -1.08845  -1.07584
 Alpha  occ. eigenvalues --   -1.04838  -1.02798  -0.95689  -0.95238  -0.86260
 Alpha  occ. eigenvalues --   -0.86237  -0.82526  -0.78884  -0.77583  -0.77344
 Alpha  occ. eigenvalues --   -0.72185  -0.71282  -0.70551  -0.65100  -0.64842
 Alpha  occ. eigenvalues --   -0.64213  -0.62187  -0.60203  -0.58633  -0.56845
 Alpha  occ. eigenvalues --   -0.55342  -0.54527  -0.53161  -0.52931  -0.51987
 Alpha  occ. eigenvalues --   -0.51655  -0.49192  -0.48947  -0.48931  -0.47188
 Alpha  occ. eigenvalues --   -0.45995  -0.45171  -0.44886  -0.44434  -0.43004
 Alpha  occ. eigenvalues --   -0.37410  -0.36435
 Alpha virt. eigenvalues --    0.04928   0.11178   0.16390   0.21331   0.23672
 Alpha virt. eigenvalues --    0.24924   0.27193   0.27498   0.27885   0.28447
 Alpha virt. eigenvalues --    0.28790   0.30933   0.31899   0.32221   0.32436

 Mulliken charges:
               1
     1  C   -0.170610
     2  C   -0.218676
     3  C   -0.170865
     4  C    0.158713
     5  C   -0.172005
     6  C   -0.218278
     7  H    0.225983
     8  H    0.223795
     9  H    0.275754
    10  H    0.275505
    11  H    0.223815
    12  N    0.490584
    13  O   -0.460102
    14  O   -0.457586
    15  C   -0.296929
    16  C   -0.306386
    17  C   -0.474843
    18  H    0.145944
    19  H    0.146032
    20  H    0.153700
    21  H    0.155975
    22  H    0.154256
    23  H    0.152458
    24  H    0.155391
    25  C   -0.303740
    26  C   -0.299269
    27  C   -0.475200
    28  H    0.166550
    29  H    0.153313
    30  H    0.148316
    31  H    0.147820
    32  H    0.156122
    33  H    0.158704
    34  H    0.155757
 Sum of Mulliken charges =  -0.00000

 Dipole moment (field-independent basis, Debye):
    X=             -4.5139    Y=              2.5548    Z=              0.7118  Tot=              5.2354
 Quadrupole moment (field-independent basis, Debye-Ang):
   XX=            -76.9112   YY=           -101.0184   ZZ=            -88.9602
   XY=             -2.8110   XZ=             -0.8333   YZ=             -0.2992

 Normal termination of Gaussian 16 at Thu May  6 01:18:34 2021.
