 Gaussian 16, Revision A.03,
 Gaussian 16:  EM64L-G16RevA.03 25-Dec-2016

 -------------
 #p 6-31g* mp2
 -------------

 ------------------------------------------------------
 Input file generated by CHIRIPA (05-May-2021 14:51:11)
 ------------------------------------------------------
 Symbolic Z-matrix:
 Charge =  0 Multiplicity = 1

                         Standard orientation:
 ---------------------------------------------------------------------
 Center     Atomic      Atomic             Coordinates (Angstroms)
 Number     Number       Type             X           Y           Z
 ---------------------------------------------------------------------
      1          6           0        2.865030   -0.402516   -0.810296
      2          6           0        3.531292   -1.567485   -0.077544
      3          6           0        3.496744   -2.868197   -0.880507
      4          1           0        1.823238   -0.667782   -1.036678
      5          1           0        3.366139   -0.251488   -1.776462
      6          1           0        3.029967   -1.715380    0.887555
      7          1           0        4.571563   -1.299340    0.147290
      8          1           0        4.014197   -2.744132   -1.837300
      9          1           0        2.463843   -3.162536   -1.092828
     10          1           0        3.978385   -3.687754   -0.338099
     11          6           0        2.891597    0.904731   -0.020279
     12          6           0        2.225335    2.069701   -0.753031
     13          6           0        2.259883    3.370413    0.049932
     14          1           0        2.390488    0.753704    0.945887
     15          1           0        3.933389    1.169998    0.206103
     16          1           0        1.185065    1.801556   -0.977865
     17          1           0        2.726660    2.217596   -1.718130
     18          1           0        3.292784    3.664752    0.262253
     19          1           0        1.742430    3.246348    1.006725
     20          1           0        1.778242    4.189970   -0.492476
     21          6           0       -2.367527    0.056230    0.892857
     22          6           0       -1.344580   -0.951951    1.417392
     23          6           0       -0.329438   -0.322052    2.371599
     24          1           0       -1.839316    0.872737    0.381728
     25          1           0       -2.894852    0.509427    1.743701
     26          1           0       -0.820307   -1.404122    0.565750
     27          1           0       -1.875299   -1.766250    1.927166
     28          1           0       -0.835163    0.113208    3.239580
     29          1           0        0.225823    0.477394    1.870428
     30          1           0        0.392315   -1.060458    2.734490
     31          6           0       -3.389100   -0.558446   -0.062283
     32          6           0       -4.412047    0.449735   -0.586817
     33          6           0       -5.427188   -0.180163   -1.541023
     34          1           0       -2.861776   -1.011643   -0.913126
     35          1           0       -3.917311   -1.374953    0.448848
     36          1           0       -3.881328    1.264034   -1.096592
     37          1           0       -4.936321    0.901906    0.264825
     38          1           0       -5.982450   -0.979610   -1.039853
     39          1           0       -4.921463   -0.615424   -2.409005
     40          1           0       -6.148942    0.558242   -1.903915
 ---------------------------------------------------------------------

 SCF Done:  E(RHF) =  -470.733264291     A.U. after   11 cycles
 E2 =    -0.1583580371D+01 EUMP2 =    -0.47231684466161D+03

 The electronic state is 1-A.
 Alpha  occ. eigenvalues --  -11.21695 -11.21638 -11.21634 -11.21596 -11.21470
 Alpha  occ. eigenvalues --  -11.21407 -11.21398 -11.21324 -11.21164 -11.21097
 Alpha  occ. eigenvalues --  -11.21097 -11.21074  -1.08503  -1.08429  -1.03597
 Alpha  occ. eigenvalues --   -1.03541  -0.96058  -0.95976  -0.87074  -0.86996
 Alpha  occ. eigenvalues --   -0.79667  -0.79598  -0.78318  -0.78232  -0.65310
 Alpha  occ. eigenvalues --   -0.64925  -0.61043  -0.60890  -0.59412  -0.59353
 Alpha  occ. eigenvalues --   -0.57656  -0.57595  -0.55483  -0.55134  -0.52748
 Alpha  occ. eigenvalues --   -0.52678  -0.52496  -0.52388  -0.50115  -0.49835
 Alpha  occ. eigenvalues --   -0.48017  -0.47892  -0.46758  -0.46615  -0.45920
 Alpha  occ. eigenvalues --   -0.45814  -0.45718  -0.45526  -0.43846  -0.43789
 Alpha virt. eigenvalues --    0.18987   0.22984   0.23237   0.24973   0.25478
 Alpha virt. eigenvalues --    0.26095   0.27311   0.27895   0.28467   0.29397
 Alpha virt. eigenvalues --    0.30030   0.31053   0.31747   0.31942   0.32049

 Mulliken charges:
               1
     1  C   -0.298784
     2  C   -0.300662
     3  C   -0.475676
     4  H    0.149749
     5  H    0.149506
     6  H    0.153216
     7  H    0.152000
     8  H    0.155147
     9  H    0.154910
    10  H    0.160297
    11  C   -0.304391
    12  C   -0.300571
    13  C   -0.476262
    14  H    0.156241
    15  H    0.149877
    16  H    0.151066
    17  H    0.152295
    18  H    0.155615
    19  H    0.155356
    20  H    0.160334
    21  C   -0.299202
    22  C   -0.300534
    23  C   -0.481661
    24  H    0.149956
    25  H    0.149981
    26  H    0.152236
    27  H    0.152592
    28  H    0.155887
    29  H    0.160360
    30  H    0.160511
    31  C   -0.298349
    32  C   -0.299736
    33  C   -0.475765
    34  H    0.149492
    35  H    0.149879
    36  H    0.152085
    37  H    0.152053
    38  H    0.155234
    39  H    0.155292
    40  H    0.160427
 Sum of Mulliken charges =  -0.00000

 Dipole moment (field-independent basis, Debye):
    X=             -0.0144    Y=              0.0006    Z=              0.0235  Tot=              0.0276
 Quadrupole moment (field-independent basis, Debye-Ang):
   XX=            -84.1480   YY=            -85.8258   ZZ=            -84.6512
   XY=              0.1795   XZ=             -1.4085   YZ=             -0.9577

 Normal termination of Gaussian 16 at Thu May  6 02:16:29 2021.
