 Gaussian 16, Revision A.03,
 Gaussian 16:  EM64L-G16RevA.03 25-Dec-2016

 -------------
 #p 6-31g* mp2
 -------------

 ------------------------------------------------------
 Input file generated by CHIRIPA (05-May-2021 14:57:26)
 ------------------------------------------------------
 Symbolic Z-matrix:
 Charge =  0 Multiplicity = 1

                         Standard orientation:
 ---------------------------------------------------------------------
 Center     Atomic      Atomic             Coordinates (Angstroms)
 Number     Number       Type             X           Y           Z
 ---------------------------------------------------------------------
      1          6           0       -3.355380    2.602437    0.269061
      2          6           0       -3.127257    2.023026   -0.983442
      3          6           0       -2.849446    0.657321   -1.093982
      4          6           0       -2.807275   -0.102701    0.073870
      5          6           0       -3.030144    0.445364    1.336108
      6          6           0       -3.306183    1.813148    1.422804
      7          1           0       -3.570502    3.664157    0.345670
      8          1           0       -3.164832    2.633560   -1.881151
      9          1           0       -2.668944    0.182980   -2.050976
     10          1           0       -2.986016   -0.188942    2.213107
     11          1           0       -3.482938    2.260424    2.396841
     12          7           0       -2.514107   -1.549612   -0.030533
     13          8           0       -2.482588   -2.197498    1.013443
     14          8           0       -2.321392   -2.008417   -1.154364
     15          6           0        4.752022    1.479681    0.308682
     16          6           0        4.571634    0.386787    1.162827
     17          6           0        3.524277   -0.514698    0.950890
     18          6           0        2.672253   -0.291944   -0.129724
     19          6           0        2.825914    0.787491   -0.998344
     20          6           0        3.880122    1.676198   -0.767280
     21          1           0        5.568295    2.175013    0.480748
     22          1           0        5.247221    0.231675    1.999229
     23          1           0        3.361629   -1.369112    1.596598
     24          1           0        2.136210    0.915840   -1.823724
     25          1           0        4.017803    2.524080   -1.432251
     26          7           0        1.559836   -1.239542   -0.364217
     27          8           0        0.822918   -1.021113   -1.323318
     28          8           0        1.445906   -2.182754    0.415532
 ---------------------------------------------------------------------

 SCF Done:  E(RHF) =  -868.335463934     A.U. after   16 cycles
 E2 =    -0.2601546752D+01 EUMP2 =    -0.87093701068571D+03

 The electronic state is 1-A.
 Alpha  occ. eigenvalues --  -20.60336 -20.60286 -20.59354 -20.59249 -15.85376
 Alpha  occ. eigenvalues --  -15.84367 -11.30984 -11.30232 -11.27606 -11.27561
 Alpha  occ. eigenvalues --  -11.27372 -11.26900 -11.26838 -11.26760 -11.26667
 Alpha  occ. eigenvalues --  -11.26634 -11.26038 -11.26013  -1.59390  -1.58342
 Alpha  occ. eigenvalues --   -1.38937  -1.37891  -1.19181  -1.18469  -1.08529
 Alpha  occ. eigenvalues --   -1.07775  -1.04621  -1.03953  -0.95319  -0.94524
 Alpha  occ. eigenvalues --   -0.86007  -0.85324  -0.82150  -0.81369  -0.77165
 Alpha  occ. eigenvalues --   -0.76308  -0.71577  -0.70786  -0.70607  -0.70289
 Alpha  occ. eigenvalues --   -0.69605  -0.69587  -0.64827  -0.64624  -0.64116
 Alpha  occ. eigenvalues --   -0.63975  -0.61966  -0.61290  -0.55112  -0.54465
 Alpha  occ. eigenvalues --   -0.52939  -0.52716  -0.52257  -0.52058  -0.48340
 Alpha  occ. eigenvalues --   -0.48315  -0.47389  -0.47316  -0.44336  -0.43090
 Alpha  occ. eigenvalues --   -0.37178  -0.36487  -0.36237  -0.35581
 Alpha virt. eigenvalues --    0.05366   0.06260   0.11414   0.12069   0.16817
 Alpha virt. eigenvalues --    0.17644   0.21521   0.22092   0.27411   0.27959
 Alpha virt. eigenvalues --    0.28433   0.29054   0.31045   0.31595   0.32669

 Mulliken charges:
               1
     1  C   -0.173089
     2  C   -0.220789
     3  C   -0.166644
     4  C    0.160636
     5  C   -0.172848
     6  C   -0.219442
     7  H    0.220716
     8  H    0.218984
     9  H    0.278655
    10  H    0.274418
    11  H    0.219255
    12  N    0.490894
    13  O   -0.463399
    14  O   -0.447870
    15  C   -0.171670
    16  C   -0.218630
    17  C   -0.171293
    18  C    0.158902
    19  C   -0.171431
    20  C   -0.218623
    21  H    0.224304
    22  H    0.222954
    23  H    0.277247
    24  H    0.273356
    25  H    0.221384
    26  N    0.485145
    27  O   -0.459667
    28  O   -0.451456
 Sum of Mulliken charges =  -0.00000

 Dipole moment (field-independent basis, Debye):
    X=              3.0041    Y=              8.0226    Z=              1.0738  Tot=              8.6336
 Quadrupole moment (field-independent basis, Debye-Ang):
   XX=            -80.2047   YY=           -107.7748   ZZ=            -97.2340
   XY=             -6.7925   XZ=              1.9989   YZ=             -3.2044

 Normal termination of Gaussian 16 at Fri May  7 02:01:58 2021.
