 Gaussian 16, Revision A.03,
 Gaussian 16:  EM64L-G16RevA.03 25-Dec-2016

 -------------
 #p 6-31g* mp2
 -------------

 ------------------------------------------------------
 Input file generated by CHIRIPA (05-May-2021 14:55:18)
 ------------------------------------------------------
 Symbolic Z-matrix:
 Charge =  0 Multiplicity = 1

                         Standard orientation:
 ---------------------------------------------------------------------
 Center     Atomic      Atomic             Coordinates (Angstroms)
 Number     Number       Type             X           Y           Z
 ---------------------------------------------------------------------
      1          6           0       -4.634931    0.526083   -0.102061
      2          6           0       -4.064732   -0.046500   -1.243789
      3          6           0       -2.813105   -0.665887   -1.177928
      4          6           0       -2.156527   -0.694670    0.051449
      5          6           0       -2.698397   -0.133150    1.206595
      6          6           0       -3.951149    0.481010    1.117337
      7          1           0       -5.607663    1.005207   -0.162310
      8          1           0       -4.593483   -0.012988   -2.192127
      9          1           0       -2.348528   -1.117067   -2.046273
     10          1           0       -2.147249   -0.182271    2.137853
     11          1           0       -4.391547    0.924857    2.005647
     12          7           0       -0.830890   -1.347620    0.133557
     13          8           0       -0.272759   -1.359710    1.228537
     14          8           0       -0.375087   -1.834949   -0.898621
     15          6           0        3.245252    0.067823    0.223477
     16          6           0        4.539684   -0.465651   -0.391205
     17          6           0        4.937193   -1.834084    0.163023
     18          1           0        3.364036    0.132614    1.313723
     19          1           0        2.436100   -0.652463    0.039473
     20          1           0        5.345849    0.256078   -0.207297
     21          1           0        4.417870   -0.528997   -1.480134
     22          1           0        4.152744   -2.572033   -0.033626
     23          1           0        5.085995   -1.782498    1.246443
     24          1           0        5.865226   -2.196552   -0.290004
     25          6           0        2.834770    1.435039   -0.320542
     26          6           0        1.540337    1.968513    0.294140
     27          6           0        1.142828    3.336947   -0.260088
     28          1           0        3.643920    2.155326   -0.136539
     29          1           0        2.715986    1.370249   -1.410788
     30          1           0        1.662151    2.031859    1.383068
     31          1           0        0.734172    1.246784    0.110231
     32          1           0        0.994026    3.285361   -1.343508
     33          1           0        1.927278    4.074896   -0.063440
     34          1           0        0.214796    3.699415    0.192939
 ---------------------------------------------------------------------

 SCF Done:  E(RHF) =  -669.536386009     A.U. after   15 cycles
 E2 =    -0.2092799926D+01 EUMP2 =    -0.67162918593507D+03

 The electronic state is 1-A.
 Alpha  occ. eigenvalues --  -20.61057 -20.61041 -15.86044 -11.31341 -11.27896
 Alpha  occ. eigenvalues --  -11.27889 -11.27624 -11.26888 -11.26877 -11.20883
 Alpha  occ. eigenvalues --  -11.20615 -11.20439 -11.20422 -11.19909 -11.19899
 Alpha  occ. eigenvalues --   -1.60099  -1.39651  -1.19500  -1.08915  -1.07369
 Alpha  occ. eigenvalues --   -1.04887  -1.02599  -0.95761  -0.95036  -0.86290
 Alpha  occ. eigenvalues --   -0.86059  -0.82594  -0.78690  -0.77654  -0.77107
 Alpha  occ. eigenvalues --   -0.72261  -0.71425  -0.70607  -0.65154  -0.64891
 Alpha  occ. eigenvalues --   -0.63990  -0.62234  -0.60004  -0.58446  -0.56642
 Alpha  occ. eigenvalues --   -0.55396  -0.54322  -0.53218  -0.52978  -0.51806
 Alpha  occ. eigenvalues --   -0.51459  -0.49134  -0.49033  -0.48902  -0.47009
 Alpha  occ. eigenvalues --   -0.45766  -0.45112  -0.44635  -0.44386  -0.42795
 Alpha  occ. eigenvalues --   -0.37474  -0.36483
 Alpha virt. eigenvalues --    0.04837   0.11164   0.16329   0.21301   0.23772
 Alpha virt. eigenvalues --    0.25171   0.27227   0.27495   0.28015   0.28526
 Alpha virt. eigenvalues --    0.28889   0.30979   0.32175   0.32335   0.32484

 Mulliken charges:
               1
     1  C   -0.170215
     2  C   -0.218595
     3  C   -0.170817
     4  C    0.157127
     5  C   -0.170558
     6  C   -0.218682
     7  H    0.226246
     8  H    0.224006
     9  H    0.275853
    10  H    0.276469
    11  H    0.224076
    12  N    0.488427
    13  O   -0.456442
    14  O   -0.460492
    15  C   -0.306657
    16  C   -0.298569
    17  C   -0.475925
    18  H    0.146866
    19  H    0.176040
    20  H    0.145662
    21  H    0.149937
    22  H    0.163058
    23  H    0.153030
    24  H    0.154628
    25  C   -0.297848
    26  C   -0.296080
    27  C   -0.475041
    28  H    0.144626
    29  H    0.147733
    30  H    0.151905
    31  H    0.148319
    32  H    0.153241
    33  H    0.154128
    34  H    0.154546
 Sum of Mulliken charges =  -0.00000

 Dipole moment (field-independent basis, Debye):
    X=             -4.9305    Y=              2.0792    Z=             -0.2385  Tot=              5.3563
 Quadrupole moment (field-independent basis, Debye-Ang):
   XX=            -75.9776   YY=            -99.7948   ZZ=            -89.5877
   XY=             -1.4536   XZ=              1.0367   YZ=              2.2489

 Normal termination of Gaussian 16 at Wed May  5 23:41:44 2021.
