 Gaussian 16, Revision A.03,
 Gaussian 16:  EM64L-G16RevA.03 25-Dec-2016

 -------------
 #p 6-31g* mp2
 -------------

 ------------------------------------------------------
 Input file generated by CHIRIPA (05-May-2021 14:57:25)
 ------------------------------------------------------
 Symbolic Z-matrix:
 Charge =  0 Multiplicity = 1

                         Standard orientation:
 ---------------------------------------------------------------------
 Center     Atomic      Atomic             Coordinates (Angstroms)
 Number     Number       Type             X           Y           Z
 ---------------------------------------------------------------------
      1          6           0       -2.892584   -2.297233   -1.143824
      2          6           0       -3.845388   -1.985848   -0.168260
      3          6           0       -3.953898   -0.683365    0.328036
      4          6           0       -3.089644    0.287432   -0.175857
      5          6           0       -2.130101    0.008398   -1.147818
      6          6           0       -2.039486   -1.300873   -1.629633
      7          1           0       -2.815241   -3.311670   -1.523735
      8          1           0       -4.509237   -2.757609    0.210863
      9          1           0       -4.682490   -0.414765    1.083302
     10          1           0       -1.482270    0.799072   -1.506381
     11          1           0       -1.298579   -1.539813   -2.387267
     12          7           0       -3.195047    1.669906    0.341884
     13          8           0       -2.421880    2.507159   -0.118396
     14          8           0       -4.048833    1.890059    1.198167
     15          6           0        5.036985    0.620837   -1.168097
     16          6           0        3.743980    1.023544   -1.518076
     17          6           0        2.647951    0.652394   -0.733528
     18          6           0        2.882331   -0.125364    0.399366
     19          6           0        4.158609   -0.542292    0.774302
     20          6           0        5.239816   -0.159421   -0.025041
     21          1           0        5.882650    0.913709   -1.783300
     22          1           0        3.583472    1.629537   -2.405238
     23          1           0        1.636381    0.950302   -0.981312
     24          1           0        4.287136   -1.146016    1.664480
     25          1           0        6.242873   -0.473620    0.249185
     26          7           0        1.729860   -0.524489    1.237763
     27          8           0        1.962924   -1.209999    2.230937
     28          8           0        0.615313   -0.144257    0.885849
 ---------------------------------------------------------------------

 SCF Done:  E(RHF) =  -868.337567219     A.U. after   16 cycles
 E2 =    -0.2600398711D+01 EUMP2 =    -0.87093796592986D+03

 The electronic state is 1-A.
 Alpha  occ. eigenvalues --  -20.60958 -20.60942 -20.59925 -20.59917 -15.85995
 Alpha  occ. eigenvalues --  -15.84978 -11.31381 -11.30225 -11.27973 -11.27933
 Alpha  occ. eigenvalues --  -11.27677 -11.26965 -11.26948 -11.26899 -11.26837
 Alpha  occ. eigenvalues --  -11.26628 -11.25885 -11.25848  -1.60020  -1.58987
 Alpha  occ. eigenvalues --   -1.39576  -1.38551  -1.19550  -1.18415  -1.08938
 Alpha  occ. eigenvalues --   -1.07846  -1.04956  -1.03847  -0.95775  -0.94704
 Alpha  occ. eigenvalues --   -0.86352  -0.85267  -0.82609  -0.81567  -0.77663
 Alpha  occ. eigenvalues --   -0.76608  -0.72234  -0.71340  -0.71223  -0.70658
 Alpha  occ. eigenvalues --   -0.70270  -0.69611  -0.65204  -0.64958  -0.64119
 Alpha  occ. eigenvalues --   -0.63915  -0.62312  -0.61242  -0.55448  -0.54409
 Alpha  occ. eigenvalues --   -0.53282  -0.53049  -0.52104  -0.52001  -0.48982
 Alpha  occ. eigenvalues --   -0.48966  -0.47970  -0.47961  -0.44973  -0.43987
 Alpha  occ. eigenvalues --   -0.37526  -0.36561  -0.36379  -0.35365
 Alpha virt. eigenvalues --    0.04857   0.05997   0.11092   0.12240   0.16363
 Alpha virt. eigenvalues --    0.17476   0.20518   0.22141   0.25570   0.27526
 Alpha virt. eigenvalues --    0.28437   0.29273   0.30784   0.31451   0.32256

 Mulliken charges:
               1
     1  C   -0.169187
     2  C   -0.217912
     3  C   -0.168777
     4  C    0.162945
     5  C   -0.151412
     6  C   -0.216210
     7  H    0.221730
     8  H    0.220381
     9  H    0.273567
    10  H    0.266400
    11  H    0.215475
    12  N    0.489851
    13  O   -0.464674
    14  O   -0.462515
    15  C   -0.170708
    16  C   -0.218836
    17  C   -0.171464
    18  C    0.158376
    19  C   -0.170822
    20  C   -0.218459
    21  H    0.226334
    22  H    0.224206
    23  H    0.273625
    24  H    0.276040
    25  H    0.224093
    26  N    0.490713
    27  O   -0.459738
    28  O   -0.463019
 Sum of Mulliken charges =  -0.00000

 Dipole moment (field-independent basis, Debye):
    X=              4.5934    Y=             -3.4597    Z=             -4.6397  Tot=              7.3889
 Quadrupole moment (field-independent basis, Debye-Ang):
   XX=            -79.8109   YY=           -107.9592   ZZ=           -104.0127
   XY=             18.4232   XZ=             -2.1009   YZ=             -1.6060

 Normal termination of Gaussian 16 at Fri May  7 00:27:32 2021.
