 Gaussian 16, Revision A.03,
 Gaussian 16:  EM64L-G16RevA.03 25-Dec-2016

 -------------
 #p 6-31g* mp2
 -------------

 ------------------------------------------------------
 Input file generated by CHIRIPA (05-May-2021 14:57:23)
 ------------------------------------------------------
 Symbolic Z-matrix:
 Charge =  0 Multiplicity = 1

                         Standard orientation:
 ---------------------------------------------------------------------
 Center     Atomic      Atomic             Coordinates (Angstroms)
 Number     Number       Type             X           Y           Z
 ---------------------------------------------------------------------
      1          6           0       -2.586520    1.886769   -1.014471
      2          6           0       -3.932303    1.876568   -1.395634
      3          6           0       -4.794658    0.879652   -0.929746
      4          6           0       -4.275325   -0.096021   -0.080249
      5          6           0       -2.939361   -0.112903    0.317500
      6          6           0       -2.095211    0.893751   -0.160626
      7          1           0       -1.923693    2.664980   -1.381137
      8          1           0       -4.316620    2.646492   -2.058630
      9          1           0       -5.840817    0.847890   -1.208960
     10          1           0       -2.585325   -0.893748    0.979586
     11          1           0       -1.050509    0.899172    0.137054
     12          7           0       -5.178625   -1.156566    0.419444
     13          8           0       -4.696551   -2.004867    1.166857
     14          8           0       -6.351603   -1.119439    0.054228
     15          6           0        5.839322   -1.166188   -1.337235
     16          6           0        4.546094   -1.692769   -1.254802
     17          6           0        3.588912   -1.098455   -0.427071
     18          6           0        3.960857    0.026358    0.307603
     19          6           0        5.241145    0.574507    0.246905
     20          6           0        6.182116   -0.036223   -0.587440
     21          1           0        6.576588   -1.634242   -1.982805
     22          1           0        4.277064   -2.570222   -1.835959
     23          1           0        2.580515   -1.485377   -0.344344
     24          1           0        5.479690    1.450170    0.838282
     25          1           0        7.185696    0.374901   -0.649476
     26          7           0        2.956111    0.664221    1.187386
     27          8           0        3.308817    1.654359    1.824460
     28          8           0        1.834912    0.161963    1.223227
 ---------------------------------------------------------------------

 SCF Done:  E(RHF) =  -868.339975962     A.U. after   16 cycles
 E2 =    -0.2598236252D+01 EUMP2 =    -0.87093821221405D+03

 The electronic state is 1-A.
 Alpha  occ. eigenvalues --  -20.61697 -20.61638 -20.60211 -20.60202 -15.86699
 Alpha  occ. eigenvalues --  -15.85253 -11.31823 -11.30486 -11.28368 -11.28351
 Alpha  occ. eigenvalues --  -11.28049 -11.27316 -11.27306 -11.27066 -11.26937
 Alpha  occ. eigenvalues --  -11.26720 -11.26086 -11.25812  -1.60728  -1.59287
 Alpha  occ. eigenvalues --   -1.40290  -1.38844  -1.19971  -1.18627  -1.09408
 Alpha  occ. eigenvalues --   -1.08051  -1.05336  -1.03985  -0.96283  -0.94913
 Alpha  occ. eigenvalues --   -0.86744  -0.85391  -0.83125  -0.81730  -0.78202
 Alpha  occ. eigenvalues --   -0.76794  -0.72927  -0.72033  -0.71476  -0.71072
 Alpha  occ. eigenvalues --   -0.70608  -0.69746  -0.65626  -0.65330  -0.64268
 Alpha  occ. eigenvalues --   -0.63944  -0.62685  -0.61309  -0.55838  -0.54509
 Alpha  occ. eigenvalues --   -0.53680  -0.53421  -0.52358  -0.52039  -0.49691
 Alpha  occ. eigenvalues --   -0.49650  -0.48238  -0.48219  -0.45741  -0.44278
 Alpha  occ. eigenvalues --   -0.37935  -0.36929  -0.36623  -0.35592
 Alpha virt. eigenvalues --    0.04283   0.05695   0.10729   0.12054   0.15804
 Alpha virt. eigenvalues --    0.17231   0.20880   0.22305   0.26826   0.27546
 Alpha virt. eigenvalues --    0.28450   0.29036   0.30475   0.31616   0.32277

 Mulliken charges:
               1
     1  C   -0.172510
     2  C   -0.218621
     3  C   -0.173025
     4  C    0.158200
     5  C   -0.173697
     6  C   -0.227513
     7  H    0.224471
     8  H    0.220288
     9  H    0.272821
    10  H    0.277283
    11  H    0.245236
    12  N    0.488031
    13  O   -0.461092
    14  O   -0.462974
    15  C   -0.169954
    16  C   -0.218466
    17  C   -0.171020
    18  C    0.157341
    19  C   -0.170635
    20  C   -0.218533
    21  H    0.227941
    22  H    0.225907
    23  H    0.274636
    24  H    0.276396
    25  H    0.225390
    26  N    0.490167
    27  O   -0.455928
    28  O   -0.470139
 Sum of Mulliken charges =  -0.00000

 Dipole moment (field-independent basis, Debye):
    X=              7.2406    Y=              1.4798    Z=             -4.8310  Tot=              8.8292
 Quadrupole moment (field-independent basis, Debye-Ang):
   XX=            -99.4307   YY=           -103.4580   ZZ=           -106.1048
   XY=            -24.4149   XZ=             -1.1837   YZ=             -0.7423

 Normal termination of Gaussian 16 at Thu May  6 12:58:55 2021.
