 Gaussian 16, Revision A.03,
 Gaussian 16:  EM64L-G16RevA.03 25-Dec-2016

 -------------
 #p 6-31g* mp2
 -------------

 ------------------------------------------------------
 Input file generated by CHIRIPA (05-May-2021 14:53:14)
 ------------------------------------------------------
 Symbolic Z-matrix:
 Charge =  0 Multiplicity = 1

                         Standard orientation:
 ---------------------------------------------------------------------
 Center     Atomic      Atomic             Coordinates (Angstroms)
 Number     Number       Type             X           Y           Z
 ---------------------------------------------------------------------
      1          6           0       -3.232168   -0.214533    0.374683
      2          6           0       -2.720831   -1.636380    0.140436
      3          6           0       -3.396933   -2.664723    1.047735
      4          1           0       -3.068763    0.058492    1.426206
      5          1           0       -4.318463   -0.191372    0.210912
      6          1           0       -1.635612   -1.656553    0.303251
      7          1           0       -2.885298   -1.905981   -0.910697
      8          1           0       -4.478817   -2.673949    0.880279
      9          1           0       -3.222031   -2.423104    2.101125
     10          1           0       -3.016501   -3.674278    0.863534
     11          6           0       -2.565731    0.824834   -0.524931
     12          6           0       -3.077068    2.246681   -0.290685
     13          6           0       -2.400966    3.275024   -1.197983
     14          1           0       -1.479436    0.801673   -0.361160
     15          1           0       -2.729136    0.551809   -1.576454
     16          1           0       -2.912601    2.516283    0.760449
     17          1           0       -4.162287    2.266855   -0.453499
     18          1           0       -2.575868    3.033405   -2.251373
     19          1           0       -1.319082    3.284251   -1.030527
     20          1           0       -2.781398    4.284580   -1.013783
     21          6           0        2.877425    1.825405    1.374491
     22          6           0        1.970232    0.901550    1.903651
     23          6           0        1.623483   -0.245455    1.183447
     24          6           0        2.205578   -0.437920   -0.068516
     25          6           0        3.112550    0.464060   -0.622704
     26          6           0        3.444688    1.604103    0.115222
     27          1           0        3.141114    2.713722    1.940846
     28          1           0        1.528123    1.070824    2.881369
     29          1           0        0.923910   -0.976980    1.569306
     30          1           0        3.536779    0.268006   -1.599951
     31          1           0        4.149515    2.319872   -0.298227
     32          7           0        1.846224   -1.648517   -0.840345
     33          8           0        2.372970   -1.795021   -1.941122
     34          8           0        1.044621   -2.427957   -0.329911
 ---------------------------------------------------------------------

 SCF Done:  E(RHF) =  -669.536161313     A.U. after   15 cycles
 E2 =    -0.2092276626D+01 EUMP2 =    -0.67162843793818D+03

 The electronic state is 1-A.
 Alpha  occ. eigenvalues --  -20.60941 -20.60936 -15.85967 -11.31327 -11.27898
 Alpha  occ. eigenvalues --  -11.27870 -11.27613 -11.26900 -11.26884 -11.21552
 Alpha  occ. eigenvalues --  -11.21187 -11.21083 -11.21069 -11.20886 -11.20533
 Alpha  occ. eigenvalues --   -1.59997  -1.39553  -1.19490  -1.08884  -1.08155
 Alpha  occ. eigenvalues --   -1.04889  -1.03217  -0.95725  -0.95701  -0.86724
 Alpha  occ. eigenvalues --   -0.86286  -0.82557  -0.79291  -0.77948  -0.77584
 Alpha  occ. eigenvalues --   -0.72191  -0.71306  -0.70591  -0.65146  -0.64913
 Alpha  occ. eigenvalues --   -0.64776  -0.62237  -0.60623  -0.59071  -0.57278
 Alpha  occ. eigenvalues --   -0.55385  -0.55020  -0.53215  -0.52978  -0.52384
 Alpha  occ. eigenvalues --   -0.52120  -0.49679  -0.48968  -0.48947  -0.47599
 Alpha  occ. eigenvalues --   -0.46346  -0.45578  -0.45448  -0.44718  -0.43481
 Alpha  occ. eigenvalues --   -0.37460  -0.36482
 Alpha virt. eigenvalues --    0.04884   0.11092   0.16373   0.20913   0.22921
 Alpha virt. eigenvalues --    0.24339   0.26249   0.27385   0.27524   0.28229
 Alpha virt. eigenvalues --    0.28587   0.30493   0.31541   0.31887   0.32391

 Mulliken charges:
               1
     1  C   -0.297966
     2  C   -0.308085
     3  C   -0.475412
     4  H    0.142682
     5  H    0.148552
     6  H    0.166602
     7  H    0.155088
     8  H    0.152320
     9  H    0.148669
    10  H    0.165950
    11  C   -0.298556
    12  C   -0.298547
    13  C   -0.475584
    14  H    0.146542
    15  H    0.152518
    16  H    0.148034
    17  H    0.152522
    18  H    0.156816
    19  H    0.153293
    20  H    0.158577
    21  C   -0.170704
    22  C   -0.219024
    23  C   -0.171886
    24  C    0.158453
    25  C   -0.170715
    26  C   -0.218368
    27  H    0.226255
    28  H    0.224192
    29  H    0.277250
    30  H    0.276086
    31  H    0.224129
    32  N    0.488978
    33  O   -0.458693
    34  O   -0.459968
 Sum of Mulliken charges =  -0.00000

 Dipole moment (field-independent basis, Debye):
    X=              1.4474    Y=              4.1567    Z=              2.6145  Tot=              5.1195
 Quadrupole moment (field-independent basis, Debye-Ang):
   XX=            -87.7255   YY=            -99.3990   ZZ=            -92.5978
   XY=             10.0105   XZ=              4.4401   YZ=             -1.8953

 Normal termination of Gaussian 16 at Wed May  5 20:14:40 2021.
