 Gaussian 16, Revision A.03,
 Gaussian 16:  EM64L-G16RevA.03 25-Dec-2016

 -------------
 #p 6-31g* mp2
 -------------

 ------------------------------------------------------
 Input file generated by CHIRIPA (05-May-2021 14:55:24)
 ------------------------------------------------------
 Symbolic Z-matrix:
 Charge =  0 Multiplicity = 1

                         Standard orientation:
 ---------------------------------------------------------------------
 Center     Atomic      Atomic             Coordinates (Angstroms)
 Number     Number       Type             X           Y           Z
 ---------------------------------------------------------------------
      1          6           0        0.898235   -2.190385    0.348333
      2          6           0        2.097358   -2.467821   -0.316236
      3          6           0        3.071973   -1.476714   -0.465834
      4          6           0        2.813231   -0.213479    0.063865
      5          6           0        1.628481    0.093811    0.731120
      6          6           0        0.668029   -0.912707    0.868973
      7          1           0        0.146631   -2.966286    0.459982
      8          1           0        2.278856   -3.459181   -0.721587
      9          1           0        4.009088   -1.664255   -0.975797
     10          1           0        1.476190    1.091547    1.124500
     11          1           0       -0.262304   -0.694390    1.385561
     12          7           0        3.837516    0.843919   -0.088290
     13          8           0        3.585388    1.948810    0.387403
     14          8           0        4.873082    0.547794   -0.680362
     15          6           0       -3.499633   -0.163372    0.253662
     16          6           0       -4.092500   -1.257355   -0.634986
     17          6           0       -4.316344   -2.571108    0.114508
     18          1           0       -2.546675   -0.515692    0.671618
     19          1           0       -4.170137    0.009771    1.106798
     20          1           0       -3.421762   -1.427413   -1.486928
     21          1           0       -5.044064   -0.902315   -1.051027
     22          1           0       -5.002983   -2.423350    0.954326
     23          1           0       -3.371463   -2.951430    0.515949
     24          1           0       -4.740703   -3.339194   -0.539576
     25          6           0       -3.270075    1.156016   -0.481353
     26          6           0       -2.677206    2.249998    0.407294
     27          6           0       -2.453362    3.563751   -0.342199
     28          1           0       -2.599571    0.982872   -1.334489
     29          1           0       -4.223032    1.508336   -0.899309
     30          1           0       -1.725643    1.894959    0.823335
     31          1           0       -3.347945    2.420057    1.259237
     32          1           0       -3.398243    3.944074   -0.743640
     33          1           0       -1.766724    3.415992   -1.182019
     34          1           0       -2.029005    4.331838    0.311884
 ---------------------------------------------------------------------

 SCF Done:  E(RHF) =  -669.535440513     A.U. after   15 cycles
 E2 =    -0.2091970772D+01 EUMP2 =    -0.67162741128441D+03

 The electronic state is 1-A.
 Alpha  occ. eigenvalues --  -20.60782 -20.60776 -15.85835 -11.31214 -11.27787
 Alpha  occ. eigenvalues --  -11.27783 -11.27532 -11.26801 -11.26777 -11.22382
 Alpha  occ. eigenvalues --  -11.22255 -11.22227 -11.22003 -11.21938 -11.21416
 Alpha  occ. eigenvalues --   -1.59857  -1.39410  -1.19389  -1.09158  -1.08780
 Alpha  occ. eigenvalues --   -1.04794  -1.04199  -0.96641  -0.95613  -0.87651
 Alpha  occ. eigenvalues --   -0.86193  -0.82446  -0.80272  -0.78987  -0.77487
 Alpha  occ. eigenvalues --   -0.72053  -0.71180  -0.70496  -0.65863  -0.65041
 Alpha  occ. eigenvalues --   -0.64755  -0.62139  -0.61596  -0.60013  -0.58251
 Alpha  occ. eigenvalues --   -0.55953  -0.55284  -0.53311  -0.53124  -0.53085
 Alpha  occ. eigenvalues --   -0.52861  -0.50578  -0.48818  -0.48808  -0.48582
 Alpha  occ. eigenvalues --   -0.47321  -0.46510  -0.46404  -0.44813  -0.44461
 Alpha  occ. eigenvalues --   -0.37367  -0.36389
 Alpha virt. eigenvalues --    0.05034   0.11172   0.16447   0.18751   0.22640
 Alpha virt. eigenvalues --    0.23087   0.24781   0.26322   0.26668   0.27407
 Alpha virt. eigenvalues --    0.29816   0.30942   0.31021   0.31306   0.31697

 Mulliken charges:
               1
     1  C   -0.172848
     2  C   -0.218574
     3  C   -0.170837
     4  C    0.158756
     5  C   -0.172800
     6  C   -0.222720
     7  H    0.226112
     8  H    0.223669
     9  H    0.275755
    10  H    0.276304
    11  H    0.230367
    12  N    0.488023
    13  O   -0.460233
    14  O   -0.460390
    15  C   -0.300864
    16  C   -0.300596
    17  C   -0.474378
    18  H    0.140330
    19  H    0.152051
    20  H    0.153261
    21  H    0.156011
    22  H    0.158065
    23  H    0.145997
    24  H    0.163304
    25  C   -0.299081
    26  C   -0.299206
    27  C   -0.476631
    28  H    0.152743
    29  H    0.152962
    30  H    0.143210
    31  H    0.153355
    32  H    0.156613
    33  H    0.158682
    34  H    0.163589
 Sum of Mulliken charges =  -0.00000

 Dipole moment (field-independent basis, Debye):
    X=             -3.7505    Y=             -3.6319    Z=              0.4327  Tot=              5.2387
 Quadrupole moment (field-independent basis, Debye-Ang):
   XX=           -112.1856   YY=            -92.0526   ZZ=            -94.2595
   XY=            -12.6750   XZ=             -0.3027   YZ=              1.9456

 Normal termination of Gaussian 16 at Thu May  6 00:00:55 2021.
