 Gaussian 16, Revision A.03,
 Gaussian 16:  EM64L-G16RevA.03 25-Dec-2016

 -------------
 #p 6-31g* mp2
 -------------

 ------------------------------------------------------
 Input file generated by CHIRIPA (05-May-2021 14:57:22)
 ------------------------------------------------------
 Symbolic Z-matrix:
 Charge =  0 Multiplicity = 1

                         Standard orientation:
 ---------------------------------------------------------------------
 Center     Atomic      Atomic             Coordinates (Angstroms)
 Number     Number       Type             X           Y           Z
 ---------------------------------------------------------------------
      1          6           0       -0.955443   -0.266884    0.967655
      2          6           0       -1.416580   -1.137128   -0.025597
      3          6           0       -2.749000   -1.091900   -0.446500
      4          6           0       -3.596704   -0.159767    0.150004
      5          6           0       -3.167210    0.720569    1.141887
      6          6           0       -1.830686    0.657557    1.547205
      7          1           0        0.081207   -0.308925    1.288569
      8          1           0       -0.739104   -1.856086   -0.477448
      9          1           0       -3.132423   -1.753887   -1.213428
     10          1           0       -3.866256    1.426455    1.573717
     11          1           0       -1.475331    1.334630    2.318788
     12          7           0       -5.009449   -0.102473   -0.287338
     13          8           0       -5.736265    0.727862    0.253884
     14          8           0       -5.363193   -0.888985   -1.163066
     15          6           0        2.126630    2.282360   -0.830166
     16          6           0        1.553668    1.034450   -1.096540
     17          6           0        2.230122   -0.142972   -0.763920
     18          6           0        3.483478   -0.035082   -0.163295
     19          6           0        4.080721    1.193421    0.114860
     20          6           0        3.386108    2.357730   -0.226381
     21          1           0        1.594091    3.191916   -1.091901
     22          1           0        0.575679    0.972884   -1.565360
     23          1           0        1.809837   -1.122140   -0.958878
     24          1           0        5.057084    1.222832    0.583121
     25          1           0        3.833518    3.325503   -0.018331
     26          7           0        4.209222   -1.274625    0.193397
     27          8           0        5.312200   -1.152588    0.721775
     28          8           0        3.661340   -2.344742   -0.062159
 ---------------------------------------------------------------------

 SCF Done:  E(RHF) =  -868.336581460     A.U. after   16 cycles
 E2 =    -0.2602500625D+01 EUMP2 =    -0.87093908208493D+03

 The electronic state is 1-A.
 Alpha  occ. eigenvalues --  -20.61650 -20.61628 -20.61163 -20.61158 -15.86695
 Alpha  occ. eigenvalues --  -15.86224 -11.32162 -11.31655 -11.28717 -11.28609
 Alpha  occ. eigenvalues --  -11.28312 -11.28300 -11.28273 -11.27932 -11.27656
 Alpha  occ. eigenvalues --  -11.27629 -11.27290 -11.27219  -1.60716  -1.60240
 Alpha  occ. eigenvalues --   -1.40268  -1.39791  -1.20300  -1.19868  -1.09649
 Alpha  occ. eigenvalues --   -1.09236  -1.05703  -1.05282  -0.96487  -0.96042
 Alpha  occ. eigenvalues --   -0.87066  -0.86677  -0.83310  -0.82872  -0.78377
 Alpha  occ. eigenvalues --   -0.77916  -0.72902  -0.72437  -0.72053  -0.71571
 Alpha  occ. eigenvalues --   -0.71380  -0.70905  -0.65929  -0.65668  -0.65501
 Alpha  occ. eigenvalues --   -0.65272  -0.63057  -0.62569  -0.56120  -0.55841
 Alpha  occ. eigenvalues --   -0.54068  -0.53813  -0.53423  -0.53325  -0.49672
 Alpha  occ. eigenvalues --   -0.49655  -0.49202  -0.49188  -0.45651  -0.45182
 Alpha  occ. eigenvalues --   -0.38397  -0.38064  -0.36967  -0.36832
 Alpha virt. eigenvalues --    0.04042   0.04707   0.10238   0.10638   0.15446
 Alpha virt. eigenvalues --    0.16353   0.19498   0.21544   0.24720   0.27047
 Alpha virt. eigenvalues --    0.27861   0.28565   0.30015   0.30715   0.31458

 Mulliken charges:
               1
     1  C   -0.169925
     2  C   -0.231850
     3  C   -0.170639
     4  C    0.157165
     5  C   -0.170390
     6  C   -0.222384
     7  H    0.234153
     8  H    0.224756
     9  H    0.277709
    10  H    0.276708
    11  H    0.224810
    12  N    0.488092
    13  O   -0.459721
    14  O   -0.459314
    15  C   -0.173849
    16  C   -0.216668
    17  C   -0.187736
    18  C    0.160469
    19  C   -0.171910
    20  C   -0.217754
    21  H    0.229741
    22  H    0.231742
    23  H    0.272021
    24  H    0.278093
    25  H    0.226885
    26  N    0.487929
    27  O   -0.456369
    28  O   -0.461766
 Sum of Mulliken charges =  -0.00000

 Dipole moment (field-independent basis, Debye):
    X=              2.5063    Y=              4.3242    Z=              0.3162  Tot=              5.0080
 Quadrupole moment (field-independent basis, Debye-Ang):
   XX=           -155.6526   YY=           -101.2839   ZZ=           -102.2165
   XY=             17.3311   XZ=             -7.9048   YZ=              2.8461

 Normal termination of Gaussian 16 at Wed May  5 16:17:34 2021.
