 Gaussian 16, Revision A.03,
 Gaussian 16:  EM64L-G16RevA.03 25-Dec-2016

 -------------
 #p 6-31g* mp2
 -------------

 ------------------------------------------------------
 Input file generated by CHIRIPA (05-May-2021 14:51:13)
 ------------------------------------------------------
 Symbolic Z-matrix:
 Charge =  0 Multiplicity = 1

                         Standard orientation:
 ---------------------------------------------------------------------
 Center     Atomic      Atomic             Coordinates (Angstroms)
 Number     Number       Type             X           Y           Z
 ---------------------------------------------------------------------
      1          6           0       -2.936211   -0.287413    0.107992
      2          6           0       -2.921020    0.814066   -0.952432
      3          6           0       -4.042809    1.835088   -0.760345
      4          1           0       -3.908048   -0.799086    0.082153
      5          1           0       -2.850278    0.170225    1.103270
      6          1           0       -3.005564    0.354391   -1.945492
      7          1           0       -1.949036    1.323051   -0.924195
      8          1           0       -3.958676    2.320478    0.217366
      9          1           0       -5.021206    1.346314   -0.809733
     10          1           0       -4.013214    2.613446   -1.529203
     11          6           0       -1.820714   -1.315752   -0.070647
     12          6           0       -1.835904   -2.417231    0.989777
     13          6           0       -0.714116   -3.438253    0.797690
     14          1           0       -1.906646   -1.773390   -1.065925
     15          1           0       -0.848876   -0.804079   -0.044808
     16          1           0       -2.807888   -2.926216    0.961540
     17          1           0       -1.751361   -1.957556    1.982837
     18          1           0        0.264282   -2.949479    0.847078
     19          1           0       -0.798249   -3.923643   -0.180021
     20          1           0       -0.743710   -4.216611    1.566548
     21          6           0        1.822285    1.322062   -0.075248
     22          6           0        1.988193    2.494386    0.892282
     23          6           0        0.867793    3.527263    0.767134
     24          1           0        1.788759    1.705928   -1.104067
     25          1           0        0.853444    0.837641    0.109352
     26          1           0        2.957039    2.975600    0.706841
     27          1           0        2.021521    2.107668    1.918905
     28          1           0       -0.104434    3.067847    0.972834
     29          1           0        0.836399    3.940710   -0.246116
     30          1           0        1.006189    4.356578    1.467807
     31          6           0        2.934639    0.281103    0.037903
     32          6           0        2.768731   -0.891221   -0.929628
     33          6           0        3.889132   -1.924098   -0.804479
     34          1           0        3.903481    0.765525   -0.146697
     35          1           0        2.968165   -0.102763    1.066721
     36          1           0        2.735404   -0.504504   -1.956250
     37          1           0        1.799885   -1.372435   -0.744186
     38          1           0        3.920525   -2.337546    0.208772
     39          1           0        4.861358   -1.464682   -1.010180
     40          1           0        3.750736   -2.753414   -1.505152
 ---------------------------------------------------------------------

 SCF Done:  E(RHF) =  -470.733110507     A.U. after   11 cycles
 E2 =    -0.1584503809D+01 EUMP2 =    -0.47231761431592D+03

 The electronic state is 1-A.
 Alpha  occ. eigenvalues --  -11.21656 -11.21643 -11.21594 -11.21586 -11.21448
 Alpha  occ. eigenvalues --  -11.21424 -11.21387 -11.21365 -11.21134 -11.21124
 Alpha  occ. eigenvalues --  -11.21067 -11.21058  -1.08502  -1.08431  -1.03576
 Alpha  occ. eigenvalues --   -1.03536  -0.96031  -0.95986  -0.87035  -0.87011
 Alpha  occ. eigenvalues --   -0.79661  -0.79575  -0.78457  -0.78116  -0.65346
 Alpha  occ. eigenvalues --   -0.64873  -0.61076  -0.60846  -0.59418  -0.59325
 Alpha  occ. eigenvalues --   -0.57691  -0.57551  -0.55434  -0.55173  -0.52711
 Alpha  occ. eigenvalues --   -0.52685  -0.52464  -0.52396  -0.50041  -0.49861
 Alpha  occ. eigenvalues --   -0.48070  -0.47834  -0.46777  -0.46623  -0.46439
 Alpha  occ. eigenvalues --   -0.45789  -0.45762  -0.44959  -0.43818  -0.43797
 Alpha virt. eigenvalues --    0.19644   0.21496   0.23955   0.24743   0.25341
 Alpha virt. eigenvalues --    0.26806   0.27058   0.27128   0.28206   0.30155
 Alpha virt. eigenvalues --    0.30974   0.31559   0.31680   0.31973   0.32389

 Mulliken charges:
               1
     1  C   -0.297607
     2  C   -0.303172
     3  C   -0.475537
     4  H    0.149958
     5  H    0.148654
     6  H    0.152028
     7  H    0.155278
     8  H    0.155035
     9  H    0.155068
    10  H    0.160526
    11  C   -0.309791
    12  C   -0.299133
    13  C   -0.478885
    14  H    0.149980
    15  H    0.159846
    16  H    0.152343
    17  H    0.151427
    18  H    0.157613
    19  H    0.155639
    20  H    0.160613
    21  C   -0.308192
    22  C   -0.299084
    23  C   -0.476920
    24  H    0.150131
    25  H    0.157863
    26  H    0.152404
    27  H    0.151759
    28  H    0.155503
    29  H    0.155621
    30  H    0.160698
    31  C   -0.297804
    32  C   -0.306822
    33  C   -0.475514
    34  H    0.149946
    35  H    0.148979
    36  H    0.152175
    37  H    0.158466
    38  H    0.155021
    39  H    0.155170
    40  H    0.160715
 Sum of Mulliken charges =  -0.00000

 Dipole moment (field-independent basis, Debye):
    X=              0.0072    Y=              0.0007    Z=             -0.0169  Tot=              0.0184
 Quadrupole moment (field-independent basis, Debye-Ang):
   XX=            -85.2479   YY=            -85.5043   ZZ=            -83.9148
   XY=              1.8899   XZ=              0.0133   YZ=             -0.0449

 Normal termination of Gaussian 16 at Wed May  5 19:59:28 2021.
