 Gaussian 16, Revision A.03,
 Gaussian 16:  EM64L-G16RevA.03 25-Dec-2016

 -------------
 #p 6-31g* mp2
 -------------

 ------------------------------------------------------
 Input file generated by CHIRIPA (05-May-2021 14:53:12)
 ------------------------------------------------------
 Symbolic Z-matrix:
 Charge =  0 Multiplicity = 1

                         Standard orientation:
 ---------------------------------------------------------------------
 Center     Atomic      Atomic             Coordinates (Angstroms)
 Number     Number       Type             X           Y           Z
 ---------------------------------------------------------------------
      1          6           0        4.707430    0.001704   -0.438340
      2          6           0        6.034591   -0.565329    0.066737
      3          6           0        6.717046   -1.473584   -0.956553
      4          1           0        4.036700   -0.828498   -0.698786
      5          1           0        4.885724    0.562412   -1.366355
      6          1           0        5.854058   -1.123638    0.994268
      7          1           0        6.702170    0.266318    0.326191
      8          1           0        6.925858   -0.924403   -1.880349
      9          1           0        6.072927   -2.322257   -1.208476
     10          1           0        7.663978   -1.867923   -0.574877
     11          6           0        4.013172    0.911640    0.573466
     12          6           0        2.686011    1.478673    0.068390
     13          6           0        2.003556    2.386928    1.091679
     14          1           0        3.834878    0.350931    1.501481
     15          1           0        4.683902    1.741842    0.833912
     16          1           0        2.018432    0.647025   -0.191065
     17          1           0        2.866544    2.036982   -0.859142
     18          1           0        2.647674    3.235601    1.343603
     19          1           0        1.794744    1.837747    2.015476
     20          1           0        1.056624    2.781267    0.710003
     21          6           0       -1.445122   -1.847392    0.492228
     22          6           0       -1.228756   -0.574935   -0.046807
     23          6           0       -2.307982    0.259505   -0.352633
     24          6           0       -3.596102   -0.212667   -0.105474
     25          6           0       -3.844104   -1.475321    0.430708
     26          6           0       -2.749805   -2.292740    0.728849
     27          1           0       -0.600899   -2.488994    0.726816
     28          1           0       -0.216610   -0.226440   -0.231626
     29          1           0       -2.169093    1.249122   -0.770706
     30          1           0       -4.864529   -1.794979    0.603825
     31          1           0       -2.920838   -3.280472    1.147390
     32          7           0       -4.746609    0.661706   -0.425169
     33          8           0       -5.871763    0.222304   -0.198033
     34          8           0       -4.501436    1.769888   -0.896828
 ---------------------------------------------------------------------

 SCF Done:  E(RHF) =  -669.535486216     A.U. after   15 cycles
 E2 =    -0.2091110696D+01 EUMP2 =    -0.67162659691199D+03

 The electronic state is 1-A.
 Alpha  occ. eigenvalues --  -20.60740 -20.60734 -15.85793 -11.31157 -11.27726
 Alpha  occ. eigenvalues --  -11.27718 -11.27470 -11.26747 -11.26710 -11.22590
 Alpha  occ. eigenvalues --  -11.22191 -11.22164 -11.22066 -11.21859 -11.21579
 Alpha  occ. eigenvalues --   -1.59815  -1.39368  -1.19328  -1.09183  -1.08726
 Alpha  occ. eigenvalues --   -1.04731  -1.04259  -0.96677  -0.95561  -0.87688
 Alpha  occ. eigenvalues --   -0.86133  -0.82393  -0.80339  -0.78987  -0.77438
 Alpha  occ. eigenvalues --   -0.72011  -0.71138  -0.70443  -0.65851  -0.64981
 Alpha  occ. eigenvalues --   -0.64738  -0.62151  -0.61594  -0.60051  -0.58293
 Alpha  occ. eigenvalues --   -0.55957  -0.55236  -0.53371  -0.53098  -0.53055
 Alpha  occ. eigenvalues --   -0.52833  -0.50612  -0.48787  -0.48766  -0.48622
 Alpha  occ. eigenvalues --   -0.47375  -0.46522  -0.46438  -0.44774  -0.44506
 Alpha  occ. eigenvalues --   -0.37313  -0.36331
 Alpha virt. eigenvalues --    0.05093   0.11313   0.16573   0.19354   0.22553
 Alpha virt. eigenvalues --    0.23656   0.25228   0.26373   0.26928   0.28259
 Alpha virt. eigenvalues --    0.28650   0.29862   0.31001   0.31222   0.32107

 Mulliken charges:
               1
     1  C   -0.298193
     2  C   -0.300141
     3  C   -0.475970
     4  H    0.145885
     5  H    0.151812
     6  H    0.151711
     7  H    0.153924
     8  H    0.156553
     9  H    0.154403
    10  H    0.162041
    11  C   -0.298001
    12  C   -0.305582
    13  C   -0.476679
    14  H    0.149274
    15  H    0.153680
    16  H    0.142402
    17  H    0.156786
    18  H    0.160534
    19  H    0.156420
    20  H    0.160060
    21  C   -0.173562
    22  C   -0.226637
    23  C   -0.173835
    24  C    0.158972
    25  C   -0.171264
    26  C   -0.218450
    27  H    0.225319
    28  H    0.236922
    29  H    0.275899
    30  H    0.275473
    31  H    0.223215
    32  N    0.488073
    33  O   -0.460611
    34  O   -0.460433
 Sum of Mulliken charges =  -0.00000

 Dipole moment (field-independent basis, Debye):
    X=              4.2617    Y=             -2.9967    Z=              1.1590  Tot=              5.3372
 Quadrupole moment (field-independent basis, Debye-Ang):
   XX=           -121.6130   YY=            -90.7819   ZZ=            -95.4913
   XY=             13.9556   XZ=             -5.4341   YZ=             -1.9561

 Normal termination of Gaussian 16 at Wed May  5 15:27:39 2021.
