 Gaussian 16, Revision A.03,
 Gaussian 16:  EM64L-G16RevA.03 25-Dec-2016

 -------------
 #p 6-31g* mp2
 -------------

 ------------------------------------------------------
 Input file generated by CHIRIPA (05-May-2021 14:53:14)
 ------------------------------------------------------
 Symbolic Z-matrix:
 Charge =  0 Multiplicity = 1

                         Standard orientation:
 ---------------------------------------------------------------------
 Center     Atomic      Atomic             Coordinates (Angstroms)
 Number     Number       Type             X           Y           Z
 ---------------------------------------------------------------------
      1          6           0        4.140021    0.239893    0.014659
      2          6           0        3.509889    1.193510    1.030304
      3          6           0        2.027723    1.452010    0.757993
      4          1           0        4.018400    0.656619   -0.994545
      5          1           0        3.592317   -0.712602    0.027613
      6          1           0        4.059483    2.143441    1.016425
      7          1           0        3.633193    0.774557    2.037226
      8          1           0        1.460833    0.516017    0.791961
      9          1           0        1.889545    1.892679   -0.234639
     10          1           0        1.597353    2.136267    1.495851
     11          6           0        5.621479   -0.028352    0.273608
     12          6           0        6.251610   -0.981968   -0.742037
     13          6           0        7.733777   -1.240469   -0.469726
     14          1           0        6.169183    0.924144    0.260654
     15          1           0        5.743099   -0.445078    1.282812
     16          1           0        6.128307   -0.563016   -1.748959
     17          1           0        5.702016   -1.931900   -0.728158
     18          1           0        7.871954   -1.681138    0.522907
     19          1           0        8.300666   -0.304476   -0.503694
     20          1           0        8.164147   -1.924726   -1.207584
     21          6           0       -1.515510    0.910311   -0.430613
     22          6           0       -1.654349   -0.379980    0.091302
     23          6           0       -2.922461   -0.940211    0.271803
     24          6           0       -4.035207   -0.178627   -0.081861
     25          6           0       -3.929537    1.109519   -0.604165
     26          6           0       -2.651543    1.649639   -0.776072
     27          1           0       -0.526572    1.337700   -0.567493
     28          1           0       -0.773858   -0.956462    0.360466
     29          1           0       -3.058765   -1.936819    0.673816
     30          1           0       -4.825882    1.659846   -0.863249
     31          1           0       -2.546739    2.651935   -1.181612
     32          7           0       -5.382930   -0.761074    0.104679
     33          8           0       -6.347535   -0.069570   -0.214694
     34          8           0       -5.449154   -1.898069    0.566730
 ---------------------------------------------------------------------

 SCF Done:  E(RHF) =  -669.535111945     A.U. after   15 cycles
 E2 =    -0.2091529262D+01 EUMP2 =    -0.67162664120699D+03

 The electronic state is 1-A.
 Alpha  occ. eigenvalues --  -20.60679 -20.60674 -15.85733 -11.31067 -11.27650
 Alpha  occ. eigenvalues --  -11.27643 -11.27276 -11.26636 -11.26620 -11.22650
 Alpha  occ. eigenvalues --  -11.22534 -11.22278 -11.22182 -11.22061 -11.21543
 Alpha  occ. eigenvalues --   -1.59756  -1.39310  -1.19237  -1.09262  -1.08627
 Alpha  occ. eigenvalues --   -1.04645  -1.04401  -0.96894  -0.95464  -0.87925
 Alpha  occ. eigenvalues --   -0.86038  -0.82313  -0.80495  -0.79027  -0.77369
 Alpha  occ. eigenvalues --   -0.71951  -0.71079  -0.70326  -0.65891  -0.64887
 Alpha  occ. eigenvalues --   -0.64667  -0.62032  -0.61769  -0.60257  -0.58475
 Alpha  occ. eigenvalues --   -0.56194  -0.55217  -0.53532  -0.53237  -0.52955
 Alpha  occ. eigenvalues --   -0.52733  -0.50835  -0.48780  -0.48707  -0.48698
 Alpha  occ. eigenvalues --   -0.47494  -0.46577  -0.46469  -0.44723  -0.44623
 Alpha  occ. eigenvalues --   -0.37191  -0.36257
 Alpha virt. eigenvalues --    0.05171   0.11379   0.16658   0.20134   0.22238
 Alpha virt. eigenvalues --    0.23705   0.24823   0.25799   0.26840   0.27149
 Alpha virt. eigenvalues --    0.29274   0.29474   0.30874   0.31502   0.31949

 Mulliken charges:
               1
     1  C   -0.298887
     2  C   -0.300019
     3  C   -0.483879
     4  H    0.149901
     5  H    0.147895
     6  H    0.156017
     7  H    0.156077
     8  H    0.150437
     9  H    0.151173
    10  H    0.167308
    11  C   -0.298984
    12  C   -0.300187
    13  C   -0.476173
    14  H    0.151112
    15  H    0.151211
    16  H    0.152448
    17  H    0.152276
    18  H    0.156082
    19  H    0.155985
    20  H    0.161957
    21  C   -0.175031
    22  C   -0.223814
    23  C   -0.170870
    24  C    0.157899
    25  C   -0.170671
    26  C   -0.220953
    27  H    0.239009
    28  H    0.223140
    29  H    0.275053
    30  H    0.275046
    31  H    0.223077
    32  N    0.488078
    33  O   -0.460808
    34  O   -0.460903
 Sum of Mulliken charges =  -0.00000

 Dipole moment (field-independent basis, Debye):
    X=              5.0697    Y=              2.0983    Z=             -0.6087  Tot=              5.5204
 Quadrupole moment (field-independent basis, Debye-Ang):
   XX=           -133.0154   YY=            -91.5549   ZZ=            -94.3571
   XY=            -10.6234   XZ=              3.0604   YZ=             -2.1862

 Normal termination of Gaussian 16 at Thu May  6 15:26:45 2021.
