 Gaussian 16, Revision A.03,
 Gaussian 16:  EM64L-G16RevA.03 25-Dec-2016

 -------------
 #p 6-31g* mp2
 -------------

 ------------------------------------------------------
 Input file generated by CHIRIPA (05-May-2021 14:55:19)
 ------------------------------------------------------
 Symbolic Z-matrix:
 Charge =  0 Multiplicity = 1

                         Standard orientation:
 ---------------------------------------------------------------------
 Center     Atomic      Atomic             Coordinates (Angstroms)
 Number     Number       Type             X           Y           Z
 ---------------------------------------------------------------------
      1          6           0        4.661576   -0.447501   -0.996679
      2          6           0        4.441387    0.692817   -0.217119
      3          6           0        3.237633    0.858642    0.474276
      4          6           0        2.271500   -0.140129    0.363227
      5          6           0        2.461103   -1.287532   -0.405413
      6          6           0        3.672476   -1.432299   -1.088177
      7          1           0        5.599641   -0.568139   -1.530419
      8          1           0        5.207747    1.459251   -0.144221
      9          1           0        3.040895    1.731488    1.084893
     10          1           0        1.678316   -2.034408   -0.458699
     11          1           0        3.840724   -2.318928   -1.692848
     12          7           0        0.993107    0.024276    1.090608
     13          8           0        0.157849   -0.870117    0.976410
     14          8           0        0.850567    1.044417    1.761153
     15          6           0       -3.347430   -0.471874   -0.601256
     16          6           0       -3.635059   -1.527126    0.467245
     17          6           0       -3.973984   -2.894078   -0.128043
     18          1           0       -4.221027   -0.379680   -1.261009
     19          1           0       -2.514993   -0.815188   -1.231001
     20          1           0       -4.465800   -1.181298    1.095647
     21          1           0       -2.760748   -1.616680    1.124646
     22          1           0       -3.144634   -3.264419   -0.739293
     23          1           0       -4.859373   -2.826562   -0.768456
     24          1           0       -4.176037   -3.633315    0.653343
     25          6           0       -3.006988    0.899970   -0.021710
     26          6           0       -2.719358    1.955223   -1.090211
     27          6           0       -2.380433    3.322175   -0.494924
     28          1           0       -3.839426    1.243284    0.608035
     29          1           0       -2.133391    0.807777    0.638042
     30          1           0       -3.593669    2.044777   -1.747612
     31          1           0       -1.888618    1.609395   -1.718613
     32          1           0       -1.495045    3.254659    0.145489
     33          1           0       -3.209784    3.692516    0.116326
     34          1           0       -2.178381    4.061412   -1.276309
 ---------------------------------------------------------------------

 SCF Done:  E(RHF) =  -669.537164602     A.U. after   15 cycles
 E2 =    -0.2092591967D+01 EUMP2 =    -0.67162975656903D+03

 The electronic state is 1-A.
 Alpha  occ. eigenvalues --  -20.61243 -20.61236 -15.86226 -11.31451 -11.27996
 Alpha  occ. eigenvalues --  -11.27991 -11.27715 -11.26977 -11.26967 -11.20493
 Alpha  occ. eigenvalues --  -11.20136 -11.20038 -11.20022 -11.20019 -11.19760
 Alpha  occ. eigenvalues --   -1.60270  -1.39829  -1.19604  -1.09028  -1.07063
 Alpha  occ. eigenvalues --   -1.04982  -1.02313  -0.95885  -0.94772  -0.86388
 Alpha  occ. eigenvalues --   -0.85801  -0.82724  -0.78367  -0.77790  -0.76859
 Alpha  occ. eigenvalues --   -0.72445  -0.71576  -0.70711  -0.65262  -0.64987
 Alpha  occ. eigenvalues --   -0.63660  -0.62329  -0.59706  -0.58155  -0.56390
 Alpha  occ. eigenvalues --   -0.55493  -0.54063  -0.53317  -0.53072  -0.51537
 Alpha  occ. eigenvalues --   -0.51210  -0.49259  -0.49205  -0.48708  -0.46700
 Alpha  occ. eigenvalues --   -0.45363  -0.45255  -0.44445  -0.44148  -0.42519
 Alpha  occ. eigenvalues --   -0.37573  -0.36577
 Alpha virt. eigenvalues --    0.04688   0.11080   0.16193   0.21188   0.24205
 Alpha virt. eigenvalues --    0.25365   0.27138   0.27684   0.28337   0.28919
 Alpha virt. eigenvalues --    0.29376   0.30909   0.32102   0.32660   0.32920

 Mulliken charges:
               1
     1  C   -0.170140
     2  C   -0.218633
     3  C   -0.170244
     4  C    0.159081
     5  C   -0.170577
     6  C   -0.218580
     7  H    0.226668
     8  H    0.224468
     9  H    0.276252
    10  H    0.275958
    11  H    0.224487
    12  N    0.490691
    13  O   -0.461664
    14  O   -0.458850
    15  C   -0.292168
    16  C   -0.306557
    17  C   -0.474230
    18  H    0.141350
    19  H    0.145856
    20  H    0.146484
    21  H    0.174709
    22  H    0.151076
    23  H    0.150202
    24  H    0.156659
    25  C   -0.310059
    26  C   -0.297395
    27  C   -0.477649
    28  H    0.143850
    29  H    0.177693
    30  H    0.146566
    31  H    0.145037
    32  H    0.163177
    33  H    0.153489
    34  H    0.152993
 Sum of Mulliken charges =  -0.00000

 Dipole moment (field-independent basis, Debye):
    X=              4.9784    Y=             -0.6217    Z=             -2.3107  Tot=              5.5236
 Quadrupole moment (field-independent basis, Debye-Ang):
   XX=            -74.6111   YY=            -92.7216   ZZ=            -96.9525
   XY=             -0.9531   XZ=             -4.4819   YZ=              1.9569

 Normal termination of Gaussian 16 at Thu May  6 20:39:37 2021.
