 Gaussian 16, Revision A.03,
 Gaussian 16:  EM64L-G16RevA.03 25-Dec-2016

 -------------
 #p 6-31g* mp2
 -------------

 ------------------------------------------------------
 Input file generated by CHIRIPA (05-May-2021 14:57:27)
 ------------------------------------------------------
 Symbolic Z-matrix:
 Charge =  0 Multiplicity = 1

                         Standard orientation:
 ---------------------------------------------------------------------
 Center     Atomic      Atomic             Coordinates (Angstroms)
 Number     Number       Type             X           Y           Z
 ---------------------------------------------------------------------
      1          6           0        5.668746    0.981842    0.661737
      2          6           0        4.836559    1.683906   -0.216382
      3          6           0        3.603917    1.151040   -0.605224
      4          6           0        3.233270   -0.091932   -0.094410
      5          6           0        4.040312   -0.815675    0.782042
      6          6           0        5.268672   -0.263512    1.157273
      7          1           0        6.624628    1.403279    0.958511
      8          1           0        5.144675    2.651267   -0.602803
      9          1           0        2.940177    1.673149   -1.283656
     10          1           0        3.705921   -1.777848    1.150582
     11          1           0        5.912917   -0.810988    1.839375
     12          7           0        1.930594   -0.666267   -0.498855
     13          8           0        1.627056   -1.763134   -0.034759
     14          8           0        1.237762   -0.008689   -1.272296
     15          6           0       -4.606075    2.195282    0.467606
     16          6           0       -3.510547    2.142696   -0.400481
     17          6           0       -2.861185    0.930335   -0.651589
     18          6           0       -3.336005   -0.215221   -0.014770
     19          6           0       -4.424977   -0.195162    0.855304
     20          6           0       -5.058995    1.028243    1.091627
     21          1           0       -5.104555    3.141364    0.656929
     22          1           0       -3.156623    3.047444   -0.886500
     23          1           0       -2.010830    0.861093   -1.319063
     24          1           0       -4.754818   -1.113817    1.325086
     25          1           0       -5.909562    1.066091    1.766273
     26          7           0       -2.656676   -1.504539   -0.272781
     27          8           0       -3.094383   -2.499627    0.300674
     28          8           0       -1.699374   -1.495607   -1.043579
 ---------------------------------------------------------------------

 SCF Done:  E(RHF) =  -868.335342421     A.U. after   16 cycles
 E2 =    -0.2601093162D+01 EUMP2 =    -0.87093643558325D+03

 The electronic state is 1-A.
 Alpha  occ. eigenvalues --  -20.60148 -20.60085 -20.59301 -20.59123 -15.85194
 Alpha  occ. eigenvalues --  -15.84263 -11.30849 -11.30066 -11.27479 -11.27421
 Alpha  occ. eigenvalues --  -11.27239 -11.26752 -11.26603 -11.26585 -11.26542
 Alpha  occ. eigenvalues --  -11.26504 -11.25861 -11.25811  -1.59168  -1.58293
 Alpha  occ. eigenvalues --   -1.38727  -1.37825  -1.19043  -1.18302  -1.08378
 Alpha  occ. eigenvalues --   -1.07630  -1.04491  -1.03764  -0.95165  -0.94377
 Alpha  occ. eigenvalues --   -0.85875  -0.85142  -0.82003  -0.81201  -0.77004
 Alpha  occ. eigenvalues --   -0.76157  -0.71384  -0.70557  -0.70454  -0.70149
 Alpha  occ. eigenvalues --   -0.69639  -0.69407  -0.64692  -0.64492  -0.63938
 Alpha  occ. eigenvalues --   -0.63781  -0.61837  -0.61085  -0.54974  -0.54283
 Alpha  occ. eigenvalues --   -0.52804  -0.52587  -0.52088  -0.51859  -0.48172
 Alpha  occ. eigenvalues --   -0.48112  -0.47278  -0.47147  -0.44083  -0.43093
 Alpha  occ. eigenvalues --   -0.37040  -0.36334  -0.36109  -0.35394
 Alpha virt. eigenvalues --    0.05521   0.06376   0.11541   0.12253   0.16963
 Alpha virt. eigenvalues --    0.17763   0.21635   0.22319   0.27531   0.28160
 Alpha virt. eigenvalues --    0.28540   0.29299   0.31160   0.31809   0.32775

 Mulliken charges:
               1
     1  C   -0.171769
     2  C   -0.218391
     3  C   -0.171874
     4  C    0.159053
     5  C   -0.171258
     6  C   -0.218440
     7  H    0.224131
     8  H    0.221272
     9  H    0.272166
    10  H    0.277277
    11  H    0.222856
    12  N    0.487561
    13  O   -0.447855
    14  O   -0.462744
    15  C   -0.172348
    16  C   -0.220156
    17  C   -0.173648
    18  C    0.157109
    19  C   -0.172093
    20  C   -0.219358
    21  H    0.220800
    22  H    0.219387
    23  H    0.289026
    24  H    0.273349
    25  H    0.219186
    26  N    0.485424
    27  O   -0.469890
    28  O   -0.438771
 Sum of Mulliken charges =  -0.00000

 Dipole moment (field-independent basis, Debye):
    X=              2.4874    Y=              6.2831    Z=              2.1648  Tot=              7.0958
 Quadrupole moment (field-independent basis, Debye-Ang):
   XX=            -60.6228   YY=           -104.0347   ZZ=           -102.7565
   XY=             -7.7811   XZ=              0.0200   YZ=             -4.7659

 Normal termination of Gaussian 16 at Thu May  6 08:24:39 2021.
