 Gaussian 16, Revision A.03,
 Gaussian 16:  EM64L-G16RevA.03 25-Dec-2016

 -------------
 #p 6-31g* mp2
 -------------

 ------------------------------------------------------
 Input file generated by CHIRIPA (05-May-2021 14:55:20)
 ------------------------------------------------------
 Symbolic Z-matrix:
 Charge =  0 Multiplicity = 1

                         Standard orientation:
 ---------------------------------------------------------------------
 Center     Atomic      Atomic             Coordinates (Angstroms)
 Number     Number       Type             X           Y           Z
 ---------------------------------------------------------------------
      1          6           0       -3.643675   -2.173445   -0.409008
      2          6           0       -4.494793   -1.306021    0.283592
      3          6           0       -4.166606    0.045216    0.428499
      4          6           0       -2.974094    0.497239   -0.134421
      5          6           0       -2.105361   -0.342164   -0.830120
      6          6           0       -2.453773   -1.689601   -0.962677
      7          1           0       -3.906474   -3.221642   -0.516778
      8          1           0       -5.419532   -1.679002    0.714623
      9          1           0       -4.807211    0.738658    0.959707
     10          1           0       -1.190342    0.058921   -1.248794
     11          1           0       -1.790865   -2.360957   -1.501082
     12          7           0       -2.615951    1.925722    0.012449
     13          8           0       -1.559600    2.299235   -0.492771
     14          8           0       -3.398372    2.644805    0.630004
     15          6           0        3.388740   -0.695648    0.661031
     16          6           0        1.969905   -0.757389    0.094391
     17          6           0        0.993872   -1.481683    1.022052
     18          1           0        3.747184   -1.717323    0.847159
     19          1           0        3.364874   -0.190222    1.636413
     20          1           0        1.996641   -1.261320   -0.880266
     21          1           0        1.614869    0.264545   -0.090588
     22          1           0        0.937586   -0.976894    1.991908
     23          1           0        1.321527   -2.511428    1.197744
     24          1           0       -0.014377   -1.514236    0.597512
     25          6           0        4.376047    0.025420   -0.254946
     26          6           0        5.794882    0.087161    0.311694
     27          6           0        6.770914    0.811455   -0.615966
     28          1           0        4.399913   -0.480006   -1.230328
     29          1           0        4.017603    1.047095   -0.441074
     30          1           0        6.149917   -0.934773    0.496674
     31          1           0        5.768145    0.591092    1.286350
     32          1           0        6.443260    1.841200   -0.791659
     33          1           0        6.827201    0.306666   -1.585823
     34          1           0        7.779163    0.844008   -0.191426
 ---------------------------------------------------------------------

 SCF Done:  E(RHF) =  -669.534822822     A.U. after   15 cycles
 E2 =    -0.2092745842D+01 EUMP2 =    -0.67162756866447D+03

 The electronic state is 1-A.
 Alpha  occ. eigenvalues --  -20.60820 -20.60814 -15.85871 -11.31233 -11.27812
 Alpha  occ. eigenvalues --  -11.27800 -11.27556 -11.26821 -11.26810 -11.21692
 Alpha  occ. eigenvalues --  -11.21517 -11.21388 -11.21285 -11.21111 -11.20966
 Alpha  occ. eigenvalues --   -1.59891  -1.39445  -1.19426  -1.08811  -1.08411
 Alpha  occ. eigenvalues --   -1.04844  -1.03531  -0.95986  -0.95639  -0.86995
 Alpha  occ. eigenvalues --   -0.86219  -0.82483  -0.79603  -0.78221  -0.77526
 Alpha  occ. eigenvalues --   -0.72090  -0.71214  -0.70527  -0.65082  -0.65036
 Alpha  occ. eigenvalues --   -0.64816  -0.62209  -0.60919  -0.59384  -0.57623
 Alpha  occ. eigenvalues --   -0.55318  -0.55246  -0.53420  -0.52908  -0.52540
 Alpha  occ. eigenvalues --   -0.52259  -0.49903  -0.48848  -0.48844  -0.47918
 Alpha  occ. eigenvalues --   -0.46624  -0.45761  -0.45672  -0.44848  -0.43795
 Alpha  occ. eigenvalues --   -0.37401  -0.36330
 Alpha virt. eigenvalues --    0.04980   0.11178   0.16384   0.20817   0.22992
 Alpha virt. eigenvalues --    0.24207   0.26384   0.26683   0.27580   0.28060
 Alpha virt. eigenvalues --    0.29221   0.30201   0.31434   0.31643   0.32458

 Mulliken charges:
               1
     1  C   -0.170712
     2  C   -0.218596
     3  C   -0.170818
     4  C    0.158888
     5  C   -0.172954
     6  C   -0.219087
     7  H    0.226128
     8  H    0.223757
     9  H    0.275848
    10  H    0.280486
    11  H    0.225267
    12  N    0.488279
    13  O   -0.461026
    14  O   -0.460090
    15  C   -0.297620
    16  C   -0.305428
    17  C   -0.483661
    18  H    0.148116
    19  H    0.152205
    20  H    0.144698
    21  H    0.161897
    22  H    0.159088
    23  H    0.152078
    24  H    0.161514
    25  C   -0.299182
    26  C   -0.299775
    27  C   -0.475867
    28  H    0.147689
    29  H    0.153885
    30  H    0.150719
    31  H    0.152966
    32  H    0.156869
    33  H    0.154380
    34  H    0.160058
 Sum of Mulliken charges =  -0.00000

 Dipole moment (field-independent basis, Debye):
    X=             -1.3271    Y=             -4.9383    Z=             -0.4987  Tot=              5.1378
 Quadrupole moment (field-independent basis, Debye-Ang):
   XX=            -84.2776   YY=            -99.8723   ZZ=            -94.0407
   XY=             13.5252   XZ=             -0.3577   YZ=              1.6660

 Normal termination of Gaussian 16 at Wed May  5 22:10:59 2021.
