 Gaussian 16, Revision A.03,
 Gaussian 16:  EM64L-G16RevA.03 25-Dec-2016

 -------------
 #p 6-31g* mp2
 -------------

 ------------------------------------------------------
 Input file generated by CHIRIPA (05-May-2021 14:55:23)
 ------------------------------------------------------
 Symbolic Z-matrix:
 Charge =  0 Multiplicity = 1

                         Standard orientation:
 ---------------------------------------------------------------------
 Center     Atomic      Atomic             Coordinates (Angstroms)
 Number     Number       Type             X           Y           Z
 ---------------------------------------------------------------------
      1          6           0       -0.503129   -1.618582    1.221599
      2          6           0       -0.283677   -1.131202   -0.071004
      3          6           0       -1.316291   -0.511264   -0.780887
      4          6           0       -2.561454   -0.395056   -0.164970
      5          6           0       -2.811302   -0.870490    1.121432
      6          6           0       -1.764018   -1.486903    1.812649
      7          1           0        0.304728   -2.098795    1.765803
      8          1           0        0.694520   -1.232079   -0.532522
      9          1           0       -1.173930   -0.124991   -1.782857
     10          1           0       -3.797227   -0.755326    1.555144
     11          1           0       -1.937334   -1.864470    2.816367
     12          7           0       -3.662401    0.259378   -0.906611
     13          8           0       -4.750265    0.349428   -0.341739
     14          8           0       -3.416613    0.669882   -2.038738
     15          6           0        2.623868    0.927929    0.624024
     16          6           0        1.699328    2.063691    0.184415
     17          6           0        0.860491    2.621848    1.334462
     18          1           0        2.020647    0.122256    1.064434
     19          1           0        3.287796    1.292257    1.420177
     20          1           0        1.038278    1.697718   -0.611633
     21          1           0        2.304802    2.866672   -0.255173
     22          1           0        1.505925    3.013196    2.127472
     23          1           0        0.232205    1.837600    1.768987
     24          1           0        0.206865    3.432646    0.997952
     25          6           0        3.468944    0.359531   -0.514615
     26          6           0        4.393485   -0.776231   -0.075005
     27          6           0        5.232320   -1.334387   -1.225053
     28          1           0        2.805017   -0.004797   -1.310767
     29          1           0        4.072165    1.165204   -0.955024
     30          1           0        3.788010   -1.579212    0.364583
     31          1           0        5.054533   -0.410257    0.721043
     32          1           0        5.860607   -0.550139   -1.659577
     33          1           0        4.586888   -1.725736   -2.018062
     34          1           0        5.885947   -2.145185   -0.888542
 ---------------------------------------------------------------------

 SCF Done:  E(RHF) =  -669.534207615     A.U. after   15 cycles
 E2 =    -0.2095176379D+01 EUMP2 =    -0.67162938399450D+03

 The electronic state is 1-A.
 Alpha  occ. eigenvalues --  -20.60820 -20.60814 -15.85874 -11.31279 -11.27834
 Alpha  occ. eigenvalues --  -11.27830 -11.27590 -11.26878 -11.26841 -11.22496
 Alpha  occ. eigenvalues --  -11.22268 -11.22076 -11.22017 -11.21797 -11.21318
 Alpha  occ. eigenvalues --   -1.59894  -1.39446  -1.19458  -1.09205  -1.08829
 Alpha  occ. eigenvalues --   -1.04871  -1.04138  -0.96597  -0.95673  -0.87605
 Alpha  occ. eigenvalues --   -0.86264  -0.82505  -0.80238  -0.78986  -0.77551
 Alpha  occ. eigenvalues --   -0.72093  -0.71216  -0.70565  -0.66140  -0.65109
 Alpha  occ. eigenvalues --   -0.64659  -0.62182  -0.61560  -0.59964  -0.58199
 Alpha  occ. eigenvalues --   -0.55908  -0.55346  -0.53246  -0.53165  -0.53026
 Alpha  occ. eigenvalues --   -0.52890  -0.50550  -0.48854  -0.48845  -0.48529
 Alpha  occ. eigenvalues --   -0.47305  -0.46490  -0.46484  -0.44843  -0.44432
 Alpha  occ. eigenvalues --   -0.37388  -0.36406
 Alpha virt. eigenvalues --    0.04941   0.11092   0.16322   0.18828   0.23181
 Alpha virt. eigenvalues --    0.23722   0.24959   0.25481   0.26990   0.28720
 Alpha virt. eigenvalues --    0.29883   0.30749   0.31187   0.31343   0.31557

 Mulliken charges:
               1
     1  C   -0.173427
     2  C   -0.217984
     3  C   -0.173394
     4  C    0.158717
     5  C   -0.171145
     6  C   -0.218937
     7  H    0.226570
     8  H    0.232092
     9  H    0.275818
    10  H    0.276095
    11  H    0.224204
    12  N    0.488118
    13  O   -0.460082
    14  O   -0.460069
    15  C   -0.302941
    16  C   -0.297969
    17  C   -0.478554
    18  H    0.144396
    19  H    0.152782
    20  H    0.149202
    21  H    0.154232
    22  H    0.154220
    23  H    0.158016
    24  H    0.164359
    25  C   -0.301883
    26  C   -0.299175
    27  C   -0.475682
    28  H    0.141535
    29  H    0.156445
    30  H    0.143240
    31  H    0.155983
    32  H    0.158645
    33  H    0.154248
    34  H    0.162326
 Sum of Mulliken charges =  -0.00000

 Dipole moment (field-independent basis, Debye):
    X=              3.9013    Y=             -2.2400    Z=              2.6284  Tot=              5.2102
 Quadrupole moment (field-independent basis, Debye-Ang):
   XX=           -112.4823   YY=            -93.2244   ZZ=            -93.3697
   XY=              5.9266   XZ=             -9.6158   YZ=             -1.6090

 Normal termination of Gaussian 16 at Wed May  5 23:55:42 2021.
