 Gaussian 16, Revision A.03,
 Gaussian 16:  EM64L-G16RevA.03 25-Dec-2016

 -------------
 #p 6-31g* mp2
 -------------

 ------------------------------------------------------
 Input file generated by CHIRIPA (05-May-2021 14:55:24)
 ------------------------------------------------------
 Symbolic Z-matrix:
 Charge =  0 Multiplicity = 1

                         Standard orientation:
 ---------------------------------------------------------------------
 Center     Atomic      Atomic             Coordinates (Angstroms)
 Number     Number       Type             X           Y           Z
 ---------------------------------------------------------------------
      1          6           0        0.370034   -2.109346    0.863905
      2          6           0        0.533555   -1.941269   -0.515056
      3          6           0        1.547771   -1.118950   -1.014761
      4          6           0        2.384214   -0.476964   -0.102891
      5          6           0        2.246688   -0.624326    1.276478
      6          6           0        1.225614   -1.451498    1.753702
      7          1           0       -0.420497   -2.750029    1.243356
      8          1           0       -0.129421   -2.450920   -1.208428
      9          1           0        1.696770   -0.971097   -2.077473
     10          1           0        2.923161   -0.103179    1.942968
     11          1           0        1.100971   -1.580170    2.825128
     12          7           0        3.461549    0.396158   -0.620007
     13          8           0        4.185298    0.950687    0.204203
     14          8           0        3.561816    0.509448   -1.839740
     15          6           0       -2.403007    1.230930    0.486797
     16          6           0       -1.031304    1.581656   -0.090617
     17          6           0       -0.199790    2.454759    0.849632
     18          1           0       -2.949096    2.158409    0.707055
     19          1           0       -2.267617    0.712575    1.446157
     20          1           0       -1.169210    2.097968   -1.049272
     21          1           0       -0.488493    0.653231   -0.309705
     22          1           0       -0.032797    1.943453    1.803195
     23          1           0       -0.717383    3.396399    1.059425
     24          1           0        0.776829    2.693499    0.417105
     25          6           0       -3.246032    0.358484   -0.441575
     26          6           0       -4.617736    0.007758    0.135838
     27          6           0       -5.449251   -0.865345   -0.804411
     28          1           0       -3.381422    0.876838   -1.400936
     29          1           0       -2.699945   -0.568997   -0.661834
     30          1           0       -5.160547    0.936182    0.354926
     31          1           0       -4.479830   -0.508554    1.094493
     32          1           0       -4.931658   -1.806985   -1.014204
     33          1           0       -5.616242   -0.354040   -1.757974
     34          1           0       -6.425868   -1.104086   -0.371883
 ---------------------------------------------------------------------

 SCF Done:  E(RHF) =  -669.534255705     A.U. after   15 cycles
 E2 =    -0.2095710946D+01 EUMP2 =    -0.67162996665154D+03

 The electronic state is 1-A.
 Alpha  occ. eigenvalues --  -20.60875 -20.60867 -15.85929 -11.31333 -11.27932
 Alpha  occ. eigenvalues --  -11.27888 -11.27677 -11.26954 -11.26906 -11.22031
 Alpha  occ. eigenvalues --  -11.21777 -11.21578 -11.21534 -11.21413 -11.20990
 Alpha  occ. eigenvalues --   -1.59949  -1.39500  -1.19545  -1.08919  -1.08678
 Alpha  occ. eigenvalues --   -1.04946  -1.03726  -0.96205  -0.95734  -0.87214
 Alpha  occ. eigenvalues --   -0.86325  -0.82563  -0.79818  -0.78499  -0.77602
 Alpha  occ. eigenvalues --   -0.72144  -0.71279  -0.70623  -0.65366  -0.65176
 Alpha  occ. eigenvalues --   -0.64921  -0.62275  -0.61204  -0.59590  -0.57820
 Alpha  occ. eigenvalues --   -0.55568  -0.55426  -0.53277  -0.53016  -0.52813
 Alpha  occ. eigenvalues --   -0.52609  -0.50163  -0.48908  -0.48896  -0.48102
 Alpha  occ. eigenvalues --   -0.46857  -0.46004  -0.45926  -0.44890  -0.43990
 Alpha  occ. eigenvalues --   -0.37508  -0.36418
 Alpha virt. eigenvalues --    0.04910   0.10992   0.16355   0.20737   0.22830
 Alpha virt. eigenvalues --    0.23915   0.25999   0.26593   0.27375   0.28036
 Alpha virt. eigenvalues --    0.28734   0.30603   0.31278   0.31658   0.31796

 Mulliken charges:
               1
     1  C   -0.169601
     2  C   -0.219886
     3  C   -0.176028
     4  C    0.164394
     5  C   -0.169047
     6  C   -0.218254
     7  H    0.226674
     8  H    0.225015
     9  H    0.276764
    10  H    0.276830
    11  H    0.224488
    12  N    0.487698
    13  O   -0.459877
    14  O   -0.459969
    15  C   -0.295903
    16  C   -0.310334
    17  C   -0.475530
    18  H    0.150389
    19  H    0.144542
    20  H    0.151279
    21  H    0.164936
    22  H    0.150257
    23  H    0.154492
    24  H    0.163697
    25  C   -0.297551
    26  C   -0.299415
    27  C   -0.475076
    28  H    0.151505
    29  H    0.141004
    30  H    0.154496
    31  H    0.148795
    32  H    0.150792
    33  H    0.157038
    34  H    0.161387
 Sum of Mulliken charges =  -0.00000

 Dipole moment (field-independent basis, Debye):
    X=             -3.6458    Y=             -3.1088    Z=              1.8018  Tot=              5.1189
 Quadrupole moment (field-independent basis, Debye-Ang):
   XX=           -113.5401   YY=            -92.0445   ZZ=            -90.9549
   XY=             -6.1124   XZ=              6.1614   YZ=             -0.3234

 Normal termination of Gaussian 16 at Thu May  6 09:30:28 2021.
