 Gaussian 16, Revision A.03,
 Gaussian 16:  EM64L-G16RevA.03 25-Dec-2016

 -------------
 #p 6-31g* mp2
 -------------

 ------------------------------------------------------
 Input file generated by CHIRIPA (05-May-2021 14:55:19)
 ------------------------------------------------------
 Symbolic Z-matrix:
 Charge =  0 Multiplicity = 1

                         Standard orientation:
 ---------------------------------------------------------------------
 Center     Atomic      Atomic             Coordinates (Angstroms)
 Number     Number       Type             X           Y           Z
 ---------------------------------------------------------------------
      1          6           0       -4.313611   -1.737952    0.576374
      2          6           0       -3.465608   -1.744919   -0.535994
      3          6           0       -2.742762   -0.600239   -0.884917
      4          6           0       -2.892494    0.539099   -0.095753
      5          6           0       -3.729416    0.577354    1.018423
      6          6           0       -4.442582   -0.578881    1.348671
      7          1           0       -4.871375   -2.631656    0.840173
      8          1           0       -3.363484   -2.643638   -1.137592
      9          1           0       -2.079239   -0.578002   -1.740873
     10          1           0       -3.810523    1.488321    1.598921
     11          1           0       -5.100415   -0.570574    2.213096
     12          7           0       -2.132374    1.757037   -0.455257
     13          8           0       -2.281761    2.748063    0.256213
     14          8           0       -1.401597    1.697569   -1.441698
     15          6           0        4.616420   -0.501442   -0.056913
     16          6           0        5.424668    0.604367    0.622722
     17          6           0        6.930769    0.453952    0.406324
     18          1           0        4.947625   -1.476701    0.325342
     19          1           0        4.835320   -0.497047   -1.133695
     20          1           0        5.203256    0.598784    1.697693
     21          1           0        5.091367    1.577118    0.238945
     22          1           0        7.171198    0.481509   -0.661401
     23          1           0        7.283722   -0.502382    0.805635
     24          1           0        7.489348    1.254888    0.900640
     25          6           0        3.109074   -0.364779    0.150358
     26          6           0        2.300827   -1.470589   -0.529277
     27          6           0        0.794726   -1.320173   -0.312879
     28          1           0        2.890174   -0.369175    1.227140
     29          1           0        2.777870    0.610479   -0.231898
     30          1           0        2.634128   -2.443339   -0.145500
     31          1           0        2.522239   -1.465005   -1.604248
     32          1           0        0.441773   -0.363839   -0.712190
     33          1           0        0.554297   -1.347731    0.754846
     34          1           0        0.236146   -2.121110   -0.807196
 ---------------------------------------------------------------------

 SCF Done:  E(RHF) =  -669.535976549     A.U. after   15 cycles
 E2 =    -0.2092305763D+01 EUMP2 =    -0.67162828231224D+03

 The electronic state is 1-A.
 Alpha  occ. eigenvalues --  -20.60901 -20.60895 -15.85913 -11.31174 -11.27761
 Alpha  occ. eigenvalues --  -11.27734 -11.27496 -11.26750 -11.26736 -11.21324
 Alpha  occ. eigenvalues --  -11.21256 -11.21054 -11.20964 -11.20807 -11.20784
 Alpha  occ. eigenvalues --   -1.59950  -1.39511  -1.19356  -1.08771  -1.08092
 Alpha  occ. eigenvalues --   -1.04750  -1.03231  -0.95721  -0.95594  -0.86733
 Alpha  occ. eigenvalues --   -0.86141  -0.82460  -0.79312  -0.77902  -0.77506
 Alpha  occ. eigenvalues --   -0.72145  -0.71257  -0.70476  -0.65020  -0.64782
 Alpha  occ. eigenvalues --   -0.64693  -0.62115  -0.60611  -0.59074  -0.57303
 Alpha  occ. eigenvalues --   -0.55279  -0.54950  -0.53156  -0.52860  -0.52340
 Alpha  occ. eigenvalues --   -0.52102  -0.49641  -0.48896  -0.48886  -0.47622
 Alpha  occ. eigenvalues --   -0.46334  -0.45469  -0.45372  -0.44794  -0.43497
 Alpha  occ. eigenvalues --   -0.37330  -0.36310
 Alpha virt. eigenvalues --    0.04994   0.11285   0.16434   0.21204   0.23233
 Alpha virt. eigenvalues --    0.24480   0.26811   0.27077   0.27761   0.28006
 Alpha virt. eigenvalues --    0.29050   0.30569   0.31691   0.32070   0.32303

 Mulliken charges:
               1
     1  C   -0.170281
     2  C   -0.220123
     3  C   -0.164661
     4  C    0.157690
     5  C   -0.170766
     6  C   -0.218988
     7  H    0.225552
     8  H    0.223321
     9  H    0.276603
    10  H    0.275338
    11  H    0.223247
    12  N    0.488728
    13  O   -0.458650
    14  O   -0.460584
    15  C   -0.298173
    16  C   -0.299870
    17  C   -0.475585
    18  H    0.147442
    19  H    0.149607
    20  H    0.151290
    21  H    0.154720
    22  H    0.155101
    23  H    0.153805
    24  H    0.159993
    25  C   -0.300226
    26  C   -0.298564
    27  C   -0.487233
    28  H    0.148085
    29  H    0.157975
    30  H    0.148621
    31  H    0.152011
    32  H    0.172694
    33  H    0.153578
    34  H    0.148302
 Sum of Mulliken charges =  -0.00000

 Dipole moment (field-independent basis, Debye):
    X=             -2.7663    Y=             -4.1393    Z=              1.2483  Tot=              5.1327
 Quadrupole moment (field-independent basis, Debye-Ang):
   XX=            -80.4842   YY=            -98.6661   ZZ=            -91.6179
   XY=             10.2454   XZ=             -5.2763   YZ=              2.7354

 Normal termination of Gaussian 16 at Thu May  6 12:24:48 2021.
