 Gaussian 16, Revision A.03,
 Gaussian 16:  EM64L-G16RevA.03 25-Dec-2016

 -------------
 #p 6-31g* mp2
 -------------

 ------------------------------------------------------
 Input file generated by CHIRIPA (05-May-2021 14:57:24)
 ------------------------------------------------------
 Symbolic Z-matrix:
 Charge =  0 Multiplicity = 1

                         Standard orientation:
 ---------------------------------------------------------------------
 Center     Atomic      Atomic             Coordinates (Angstroms)
 Number     Number       Type             X           Y           Z
 ---------------------------------------------------------------------
      1          6           0        1.538857    2.110028   -1.596504
      2          6           0        1.731770    0.905433   -2.280798
      3          6           0        2.049444   -0.264098   -1.583784
      4          6           0        2.166949   -0.192572   -0.196568
      5          6           0        1.980736    0.992389    0.513700
      6          6           0        1.663736    2.149592   -0.203895
      7          1           0        1.292342    3.013759   -2.145955
      8          1           0        1.635427    0.871738   -3.362291
      9          1           0        2.204077   -1.210071   -2.088403
     10          1           0        2.083514    0.994688    1.592055
     11          1           0        1.514471    3.083689    0.330172
     12          7           0        2.502900   -1.424177    0.552223
     13          8           0        2.600732   -1.334746    1.774135
     14          8           0        2.662025   -2.455618   -0.096964
     15          6           0       -1.142999    1.659525    1.944506
     16          6           0       -1.753334    2.102074    0.766303
     17          6           0       -2.293396    1.185764   -0.141033
     18          6           0       -2.205219   -0.171854    0.162925
     19          6           0       -1.603399   -0.643897    1.328376
     20          6           0       -1.070109    0.290365    2.221295
     21          1           0       -0.726096    2.378309    2.643746
     22          1           0       -1.811381    3.164778    0.548739
     23          1           0       -2.771430    1.500910   -1.060589
     24          1           0       -1.560694   -1.709597    1.517787
     25          1           0       -0.596695   -0.056202    3.135524
     26          7           0       -2.773374   -1.151413   -0.790000
     27          8           0       -2.682893   -2.342119   -0.499022
     28          8           0       -3.298417   -0.709937   -1.809835
 ---------------------------------------------------------------------

 SCF Done:  E(RHF) =  -868.335358341     A.U. after   16 cycles
 E2 =    -0.2605947077D+01 EUMP2 =    -0.87094130541751D+03

 The electronic state is 1-A.
 Alpha  occ. eigenvalues --  -20.61078 -20.61025 -20.60911 -20.60877 -15.86097
 Alpha  occ. eigenvalues --  -15.85949 -11.31389 -11.31375 -11.28026 -11.27997
 Alpha  occ. eigenvalues --  -11.27878 -11.27859 -11.27719 -11.27702 -11.27062
 Alpha  occ. eigenvalues --  -11.27039 -11.26893 -11.26874  -1.60125  -1.59972
 Alpha  occ. eigenvalues --   -1.39682  -1.39522  -1.19647  -1.19476  -1.09007
 Alpha  occ. eigenvalues --   -1.08946  -1.04969  -1.04957  -0.95849  -0.95767
 Alpha  occ. eigenvalues --   -0.86484  -0.86272  -0.82705  -0.82570  -0.77749
 Alpha  occ. eigenvalues --   -0.77602  -0.72324  -0.72166  -0.71458  -0.71289
 Alpha  occ. eigenvalues --   -0.70768  -0.70659  -0.65246  -0.65230  -0.65004
 Alpha  occ. eigenvalues --   -0.64948  -0.62345  -0.62287  -0.55534  -0.55499
 Alpha  occ. eigenvalues --   -0.54263  -0.53098  -0.53037  -0.52333  -0.49090
 Alpha  occ. eigenvalues --   -0.49063  -0.48936  -0.48914  -0.45107  -0.44911
 Alpha  occ. eigenvalues --   -0.38237  -0.37917  -0.36127  -0.35833
 Alpha virt. eigenvalues --    0.04392   0.05273   0.10041   0.12124   0.15906
 Alpha virt. eigenvalues --    0.16749   0.19847   0.22114   0.26313   0.26378
 Alpha virt. eigenvalues --    0.28323   0.29112   0.30381   0.30832   0.31898

 Mulliken charges:
               1
     1  C   -0.172247
     2  C   -0.218256
     3  C   -0.171031
     4  C    0.157478
     5  C   -0.162287
     6  C   -0.211737
     7  H    0.223495
     8  H    0.226396
     9  H    0.278856
    10  H    0.266826
    11  H    0.213944
    12  N    0.487939
    13  O   -0.467648
    14  O   -0.455151
    15  C   -0.175957
    16  C   -0.214121
    17  C   -0.169508
    18  C    0.160073
    19  C   -0.173407
    20  C   -0.218863
    21  H    0.220921
    22  H    0.217344
    23  H    0.273281
    24  H    0.282469
    25  H    0.232596
    26  N    0.487456
    27  O   -0.455838
    28  O   -0.463024
 Sum of Mulliken charges =  -0.00000

 Dipole moment (field-independent basis, Debye):
    X=              0.7685    Y=              7.5102    Z=              0.6506  Tot=              7.5774
 Quadrupole moment (field-independent basis, Debye-Ang):
   XX=           -120.2625   YY=           -104.6073   ZZ=            -97.6656
   XY=              0.4610   XZ=            -12.1466   YZ=             -0.5755

 Normal termination of Gaussian 16 at Thu May  6 21:14:45 2021.
