 Gaussian 16, Revision A.03,
 Gaussian 16:  EM64L-G16RevA.03 25-Dec-2016

 -------------
 #p 6-31g* mp2
 -------------

 ------------------------------------------------------
 Input file generated by CHIRIPA (05-May-2021 14:53:15)
 ------------------------------------------------------
 Symbolic Z-matrix:
 Charge =  0 Multiplicity = 1

                         Standard orientation:
 ---------------------------------------------------------------------
 Center     Atomic      Atomic             Coordinates (Angstroms)
 Number     Number       Type             X           Y           Z
 ---------------------------------------------------------------------
      1          6           0        2.357900    1.165963    0.349326
      2          6           0        2.302275    2.283068   -0.693251
      3          6           0        1.342427    3.407756   -0.303940
      4          1           0        1.348797    0.755750    0.492087
      5          1           0        2.662223    1.590832    1.315901
      6          1           0        1.999488    1.855984   -1.657893
      7          1           0        3.311661    2.690540   -0.833687
      8          1           0        1.644801    3.860793    0.645759
      9          1           0        0.325172    3.021495   -0.183130
     10          1           0        1.318201    4.195676   -1.063186
     11          6           0        3.313167    0.034340   -0.025670
     12          6           0        3.368792   -1.082765    1.016907
     13          6           0        4.328640   -2.207453    0.627596
     14          1           0        3.008844   -0.390529   -0.992246
     15          1           0        4.322270    0.444553   -0.168432
     16          1           0        2.359406   -1.490237    1.157343
     17          1           0        3.671580   -0.655681    1.981549
     18          1           0        5.345895   -1.821192    0.506785
     19          1           0        4.026266   -2.660490   -0.322104
     20          1           0        4.352866   -2.995373    1.386842
     21          6           0       -3.521096    1.503616    0.751082
     22          6           0       -3.937308    0.201287    1.046421
     23          6           0       -3.221480   -0.899120    0.565545
     24          6           0       -2.089017   -0.659561   -0.211263
     25          6           0       -1.649045    0.626016   -0.522722
     26          6           0       -2.380303    1.711458   -0.031168
     27          1           0       -4.083162    2.352626    1.128785
     28          1           0       -4.822880    0.036870    1.653690
     29          1           0       -3.521385   -1.917898    0.779005
     30          1           0       -0.762231    0.758259   -1.130579
     31          1           0       -2.054727    2.721757   -0.262124
     32          7           0       -1.323034   -1.816590   -0.725996
     33          8           0       -0.328737   -1.578814   -1.408253
     34          8           0       -1.731458   -2.939340   -0.437443
 ---------------------------------------------------------------------

 SCF Done:  E(RHF) =  -669.535307284     A.U. after   15 cycles
 E2 =    -0.2093718323D+01 EUMP2 =    -0.67162902560641D+03

 The electronic state is 1-A.
 Alpha  occ. eigenvalues --  -20.60922 -20.60917 -15.85961 -11.31283 -11.27845
 Alpha  occ. eigenvalues --  -11.27829 -11.27568 -11.26849 -11.26819 -11.21787
 Alpha  occ. eigenvalues --  -11.21629 -11.21249 -11.21013 -11.20869 -11.20412
 Alpha  occ. eigenvalues --   -1.59986  -1.39541  -1.19453  -1.08851  -1.08212
 Alpha  occ. eigenvalues --   -1.04856  -1.03366  -0.95836  -0.95694  -0.86871
 Alpha  occ. eigenvalues --   -0.86240  -0.82535  -0.79482  -0.77944  -0.77576
 Alpha  occ. eigenvalues --   -0.72181  -0.71304  -0.70566  -0.65115  -0.64963
 Alpha  occ. eigenvalues --   -0.64770  -0.62262  -0.60679  -0.59261  -0.57410
 Alpha  occ. eigenvalues --   -0.55360  -0.55128  -0.53180  -0.52979  -0.52552
 Alpha  occ. eigenvalues --   -0.52224  -0.49777  -0.48939  -0.48933  -0.47769
 Alpha  occ. eigenvalues --   -0.46503  -0.45532  -0.45336  -0.44900  -0.43576
 Alpha  occ. eigenvalues --   -0.37421  -0.36409
 Alpha virt. eigenvalues --    0.04895   0.11104   0.16313   0.19862   0.22988
 Alpha virt. eigenvalues --    0.24370   0.26210   0.26535   0.27831   0.28335
 Alpha virt. eigenvalues --    0.29228   0.30659   0.31537   0.31777   0.32772

 Mulliken charges:
               1
     1  C   -0.300497
     2  C   -0.303348
     3  C   -0.480473
     4  H    0.149858
     5  H    0.147748
     6  H    0.153746
     7  H    0.155293
     8  H    0.158735
     9  H    0.144442
    10  H    0.160606
    11  C   -0.299648
    12  C   -0.299242
    13  C   -0.476588
    14  H    0.161831
    15  H    0.146215
    16  H    0.157262
    17  H    0.147047
    18  H    0.151523
    19  H    0.162219
    20  H    0.159220
    21  C   -0.170825
    22  C   -0.218450
    23  C   -0.170560
    24  C    0.156890
    25  C   -0.171872
    26  C   -0.221814
    27  H    0.226370
    28  H    0.223910
    29  H    0.275825
    30  H    0.279869
    31  H    0.227455
    32  N    0.488661
    33  O   -0.462293
    34  O   -0.459114
 Sum of Mulliken charges =  -0.00000

 Dipole moment (field-independent basis, Debye):
    X=             -2.7288    Y=              3.9237    Z=              1.7634  Tot=              5.0942
 Quadrupole moment (field-independent basis, Debye-Ang):
   XX=            -81.4456   YY=            -99.2588   ZZ=            -95.0790
   XY=             -3.7364   XZ=             -4.8862   YZ=             -3.4256

 Normal termination of Gaussian 16 at Wed May  5 21:55:52 2021.
