 Gaussian 16, Revision A.03,
 Gaussian 16:  EM64L-G16RevA.03 25-Dec-2016

 -------------
 #p 6-31g* mp2
 -------------

 ------------------------------------------------------
 Input file generated by CHIRIPA (05-May-2021 14:51:11)
 ------------------------------------------------------
 Symbolic Z-matrix:
 Charge =  0 Multiplicity = 1

                         Standard orientation:
 ---------------------------------------------------------------------
 Center     Atomic      Atomic             Coordinates (Angstroms)
 Number     Number       Type             X           Y           Z
 ---------------------------------------------------------------------
      1          6           0       -2.308323   -0.798434    0.121294
      2          6           0       -2.603063   -1.511089   -1.199022
      3          6           0       -2.538646   -3.033765   -1.076130
      4          1           0       -1.312979   -1.097180    0.477644
      5          1           0       -3.026752   -1.136641    0.880815
      6          1           0       -1.885161   -1.170605   -1.956190
      7          1           0       -3.597743   -1.210464   -1.552368
      8          1           0       -3.266451   -3.392049   -0.340919
      9          1           0       -1.544137   -3.351964   -0.747036
     10          1           0       -2.752530   -3.523048   -2.031491
     11          6           0       -2.368942    0.724278    0.014513
     12          6           0       -2.074202    1.436933    1.334829
     13          6           0       -2.138619    2.959609    1.211936
     14          1           0       -1.650514    1.062485   -0.745008
     15          1           0       -3.364287    1.023023   -0.341837
     16          1           0       -1.079522    1.136308    1.688175
     17          1           0       -2.792105    1.096449    2.091996
     18          1           0       -3.133128    3.277807    0.882843
     19          1           0       -1.410815    3.317893    0.476726
     20          1           0       -1.924735    3.448891    2.167298
     21          6           0        2.564539    0.580407   -0.554926
     22          6           0        1.705974    1.844199   -0.494269
     23          6           0        2.170359    2.921952   -1.474366
     24          1           0        3.609805    0.844414   -0.343582
     25          1           0        2.543952    0.180305   -1.578102
     26          1           0        1.727059    2.241023    0.528816
     27          1           0        0.662600    1.577124   -0.705593
     28          1           0        2.132488    2.549280   -2.503095
     29          1           0        3.202995    3.216953   -1.261673
     30          1           0        1.542729    3.816565   -1.414295
     31          6           0        2.112726   -0.506251    0.419119
     32          6           0        2.971292   -1.770043    0.358462
     33          6           0        2.506906   -2.847796    1.338559
     34          1           0        2.133314   -0.106149    1.442295
     35          1           0        1.067461   -0.770258    0.207776
     36          1           0        4.014666   -1.502967    0.569786
     37          1           0        2.950206   -2.166867   -0.664622
     38          1           0        1.474270   -3.142797    1.125866
     39          1           0        2.544777   -2.475124    2.367288
     40          1           0        3.134536   -3.742409    1.278489
 ---------------------------------------------------------------------

 SCF Done:  E(RHF) =  -470.732773082     A.U. after   11 cycles
 E2 =    -0.1585328052D+01 EUMP2 =    -0.47231810113403D+03

 The electronic state is 1-A.
 Alpha  occ. eigenvalues --  -11.21671 -11.21658 -11.21643 -11.21546 -11.21484
 Alpha  occ. eigenvalues --  -11.21425 -11.21406 -11.21345 -11.21136 -11.21133
 Alpha  occ. eigenvalues --  -11.21120 -11.21025  -1.08546  -1.08409  -1.03620
 Alpha  occ. eigenvalues --   -1.03513  -0.96056  -0.95978  -0.87075  -0.86991
 Alpha  occ. eigenvalues --   -0.79678  -0.79593  -0.78369  -0.78230  -0.65446
 Alpha  occ. eigenvalues --   -0.64805  -0.61131  -0.60835  -0.59404  -0.59345
 Alpha  occ. eigenvalues --   -0.57669  -0.57593  -0.55389  -0.55230  -0.52740
 Alpha  occ. eigenvalues --   -0.52673  -0.52481  -0.52410  -0.50125  -0.49818
 Alpha  occ. eigenvalues --   -0.48096  -0.47826  -0.46814  -0.46703  -0.46270
 Alpha  occ. eigenvalues --   -0.45803  -0.45525  -0.45253  -0.43855  -0.43784
 Alpha virt. eigenvalues --    0.19336   0.21633   0.23796   0.24746   0.25494
 Alpha virt. eigenvalues --    0.25877   0.26391   0.27298   0.28736   0.30167
 Alpha virt. eigenvalues --    0.31002   0.31265   0.31528   0.32063   0.32181

 Mulliken charges:
               1
     1  C   -0.305337
     2  C   -0.299611
     3  C   -0.475804
     4  H    0.155338
     5  H    0.150291
     6  H    0.151022
     7  H    0.152444
     8  H    0.155686
     9  H    0.154395
    10  H    0.160500
    11  C   -0.302852
    12  C   -0.301358
    13  C   -0.477346
    14  H    0.152509
    15  H    0.150179
    16  H    0.155072
    17  H    0.151790
    18  H    0.154719
    19  H    0.157104
    20  H    0.159895
    21  C   -0.297435
    22  C   -0.309025
    23  C   -0.475920
    24  H    0.150158
    25  H    0.149328
    26  H    0.152948
    27  H    0.160102
    28  H    0.155206
    29  H    0.155681
    30  H    0.160505
    31  C   -0.307134
    32  C   -0.299331
    33  C   -0.476330
    34  H    0.149698
    35  H    0.157185
    36  H    0.152422
    37  H    0.152024
    38  H    0.154906
    39  H    0.155576
    40  H    0.160801
 Sum of Mulliken charges =  -0.00000

 Dipole moment (field-independent basis, Debye):
    X=              0.0266    Y=             -0.0010    Z=              0.0072  Tot=              0.0275
 Quadrupole moment (field-independent basis, Debye-Ang):
   XX=            -83.3943   YY=            -86.6481   ZZ=            -84.6441
   XY=              0.1193   XZ=              0.3778   YZ=              0.7468

 Normal termination of Gaussian 16 at Wed May  5 21:28:28 2021.
