 Gaussian 16, Revision A.03,
 Gaussian 16:  EM64L-G16RevA.03 25-Dec-2016

 -------------
 #p 6-31g* mp2
 -------------

 ------------------------------------------------------
 Input file generated by CHIRIPA (05-May-2021 14:57:23)
 ------------------------------------------------------
 Symbolic Z-matrix:
 Charge =  0 Multiplicity = 1

                         Standard orientation:
 ---------------------------------------------------------------------
 Center     Atomic      Atomic             Coordinates (Angstroms)
 Number     Number       Type             X           Y           Z
 ---------------------------------------------------------------------
      1          6           0       -1.207854   -0.798412    1.247294
      2          6           0       -2.376643   -0.776608    2.015394
      3          6           0       -3.603865   -0.448436    1.431632
      4          6           0       -3.625915   -0.146066    0.070980
      5          6           0       -2.478696   -0.159141   -0.720859
      6          6           0       -1.262514   -0.490152   -0.115978
      7          1           0       -0.258806   -1.054446    1.708977
      8          1           0       -2.337191   -1.015567    3.074349
      9          1           0       -4.523945   -0.423926    2.002832
     10          1           0       -2.549610    0.083700   -1.774148
     11          1           0       -0.356415   -0.506285   -0.714951
     12          7           0       -4.919276    0.202858   -0.558202
     13          8           0       -4.912035    0.465334   -1.758906
     14          8           0       -5.915763    0.207262    0.161264
     15          6           0        4.091883   -2.198816   -0.539690
     16          6           0        4.723683   -1.434991    0.447184
     17          6           0        4.355515   -0.102899    0.658208
     18          6           0        3.347097    0.435826   -0.139388
     19          6           0        2.698827   -0.299446   -1.130553
     20          6           0        3.083250   -1.629609   -1.324026
     21          1           0        4.384199   -3.232868   -0.696802
     22          1           0        5.507324   -1.874418    1.057803
     23          1           0        4.828049    0.511146    1.415227
     24          1           0        1.921056    0.166265   -1.723516
     25          1           0        2.590849   -2.220425   -2.091179
     26          7           0        2.948730    1.845032    0.074724
     27          8           0        2.057441    2.296291   -0.641242
     28          8           0        3.535321    2.471624    0.954456
 ---------------------------------------------------------------------

 SCF Done:  E(RHF) =  -868.337195062     A.U. after   16 cycles
 E2 =    -0.2600408537D+01 EUMP2 =    -0.87093760359838D+03

 The electronic state is 1-A.
 Alpha  occ. eigenvalues --  -20.61597 -20.61591 -20.60606 -20.60600 -15.86654
 Alpha  occ. eigenvalues --  -15.85660 -11.32191 -11.31024 -11.28800 -11.28689
 Alpha  occ. eigenvalues --  -11.28427 -11.27796 -11.27723 -11.27606 -11.27597
 Alpha  occ. eigenvalues --  -11.27357 -11.26645 -11.26615  -1.60671  -1.59680
 Alpha  occ. eigenvalues --   -1.40220  -1.39234  -1.20351  -1.19202  -1.09692
 Alpha  occ. eigenvalues --   -1.08600  -1.05771  -1.04614  -0.96509  -0.95433
 Alpha  occ. eigenvalues --   -0.87145  -0.86018  -0.83333  -0.82275  -0.78382
 Alpha  occ. eigenvalues --   -0.77319  -0.72857  -0.72008  -0.71880  -0.71417
 Alpha  occ. eigenvalues --   -0.71001  -0.70320  -0.65979  -0.65753  -0.64863
 Alpha  occ. eigenvalues --   -0.64659  -0.63108  -0.61957  -0.56203  -0.55125
 Alpha  occ. eigenvalues --   -0.54102  -0.53842  -0.52926  -0.52695  -0.49631
 Alpha  occ. eigenvalues --   -0.49614  -0.48639  -0.48633  -0.45584  -0.44640
 Alpha  occ. eigenvalues --   -0.38306  -0.37383  -0.37176  -0.36203
 Alpha virt. eigenvalues --    0.04105   0.05232   0.10170   0.11451   0.15606
 Alpha virt. eigenvalues --    0.16718   0.19754   0.21763   0.25204   0.27024
 Alpha virt. eigenvalues --    0.28366   0.28599   0.30088   0.30788   0.32301

 Mulliken charges:
               1
     1  C   -0.171629
     2  C   -0.218083
     3  C   -0.170719
     4  C    0.158891
     5  C   -0.170514
     6  C   -0.214535
     7  H    0.224647
     8  H    0.222929
     9  H    0.275395
    10  H    0.275124
    11  H    0.217955
    12  N    0.488195
    13  O   -0.460514
    14  O   -0.460733
    15  C   -0.171417
    16  C   -0.217817
    17  C   -0.172044
    18  C    0.158784
    19  C   -0.180532
    20  C   -0.219224
    21  H    0.229242
    22  H    0.227001
    23  H    0.278408
    24  H    0.273220
    25  H    0.226315
    26  N    0.487807
    27  O   -0.459130
    28  O   -0.457024
 Sum of Mulliken charges =  -0.00000

 Dipole moment (field-independent basis, Debye):
    X=              6.2104    Y=             -6.1745    Z=              1.5323  Tot=              8.8905
 Quadrupole moment (field-independent basis, Debye-Ang):
   XX=           -124.9895   YY=           -109.9055   ZZ=            -98.2008
   XY=            -12.0675   XZ=             -9.8444   YZ=             -0.2430

 Normal termination of Gaussian 16 at Thu May  6 09:46:55 2021.
