 Gaussian 16, Revision A.03,
 Gaussian 16:  EM64L-G16RevA.03 25-Dec-2016

 -------------
 #p 6-31g* mp2
 -------------

 ------------------------------------------------------
 Input file generated by CHIRIPA (05-May-2021 14:51:12)
 ------------------------------------------------------
 Symbolic Z-matrix:
 Charge =  0 Multiplicity = 1

                         Standard orientation:
 ---------------------------------------------------------------------
 Center     Atomic      Atomic             Coordinates (Angstroms)
 Number     Number       Type             X           Y           Z
 ---------------------------------------------------------------------
      1          6           0        4.138673   -0.379659    0.214695
      2          6           0        4.893784    0.640491   -0.637999
      3          6           0        6.406931    0.583741   -0.425963
      4          1           0        4.368686   -0.204134    1.274520
      5          1           0        4.505445   -1.388071   -0.021902
      6          1           0        4.524726    1.646562   -0.400862
      7          1           0        4.661797    0.462639   -1.695906
      8          1           0        6.794790   -0.407716   -0.681265
      9          1           0        6.656941    0.782934    0.621137
     10          1           0        6.927027    1.321272   -1.045163
     11          6           0        2.624942   -0.335149    0.013787
     12          6           0        1.869831   -1.355299    0.866481
     13          6           0        0.356684   -1.298549    0.654446
     14          1           0        2.258170    0.673263    0.250385
     15          1           0        2.394929   -0.510674   -1.046038
     16          1           0        2.101818   -1.177446    1.924388
     17          1           0        2.238889   -2.361369    0.629344
     18          1           0        0.106674   -1.497742   -0.392654
     19          1           0       -0.031176   -0.307092    0.909747
     20          1           0       -0.163412   -2.036080    1.273645
     21          6           0       -3.608937   -0.232531   -0.542984
     22          6           0       -3.573538   -1.569661    0.197836
     23          6           0       -4.030702   -2.740273   -0.673061
     24          1           0       -4.630236   -0.046828   -0.902716
     25          1           0       -2.970534   -0.298426   -1.434890
     26          1           0       -4.210725   -1.500819    1.088829
     27          1           0       -2.552245   -1.752114    0.556010
     28          1           0       -3.389673   -2.837480   -1.555237
     29          1           0       -5.057577   -2.584758   -1.019392
     30          1           0       -3.997551   -3.686298   -0.123700
     31          6           0       -3.154678    0.947339    0.314502
     32          6           0       -3.190078    2.284469   -0.426318
     33          6           0       -2.732913    3.455081    0.444579
     34          1           0       -3.793081    1.013233    1.206407
     35          1           0       -2.133379    0.761634    0.674233
     36          1           0       -4.211370    2.466920   -0.784493
     37          1           0       -2.552890    2.215626   -1.317311
     38          1           0       -1.706039    3.299565    0.790910
     39          1           0       -3.373942    3.552288    1.326755
     40          1           0       -2.766064    4.401105   -0.104783
 ---------------------------------------------------------------------

 SCF Done:  E(RHF) =  -470.732528610     A.U. after   11 cycles
 E2 =    -0.1583748481D+01 EUMP2 =    -0.47231627709120D+03

 The electronic state is 1-A.
 Alpha  occ. eigenvalues --  -11.21683 -11.21643 -11.21542 -11.21472 -11.21414
 Alpha  occ. eigenvalues --  -11.21408 -11.21293 -11.21234 -11.21198 -11.21102
 Alpha  occ. eigenvalues --  -11.21049 -11.20978  -1.08501  -1.08329  -1.03609
 Alpha  occ. eigenvalues --   -1.03439  -0.96068  -0.95898  -0.87098  -0.86914
 Alpha  occ. eigenvalues --   -0.79711  -0.79491  -0.78331  -0.78113  -0.65136
 Alpha  occ. eigenvalues --   -0.64967  -0.61041  -0.60834  -0.59455  -0.59238
 Alpha  occ. eigenvalues --   -0.57706  -0.57485  -0.55428  -0.55128  -0.52821
 Alpha  occ. eigenvalues --   -0.52594  -0.52489  -0.52303  -0.50093  -0.49768
 Alpha  occ. eigenvalues --   -0.48023  -0.47814  -0.46767  -0.46492  -0.45967
 Alpha  occ. eigenvalues --   -0.45784  -0.45657  -0.45400  -0.43794  -0.43682
 Alpha virt. eigenvalues --    0.21312   0.22960   0.23904   0.24435   0.25571
 Alpha virt. eigenvalues --    0.26608   0.27210   0.27467   0.27938   0.29415
 Alpha virt. eigenvalues --    0.29673   0.31057   0.31768   0.32029   0.32295

 Mulliken charges:
               1
     1  C   -0.298376
     2  C   -0.299682
     3  C   -0.475749
     4  H    0.149844
     5  H    0.149716
     6  H    0.152020
     7  H    0.151980
     8  H    0.155251
     9  H    0.155274
    10  H    0.160416
    11  C   -0.298629
    12  C   -0.300300
    13  C   -0.481461
    14  H    0.149280
    15  H    0.149662
    16  H    0.152410
    17  H    0.152370
    18  H    0.155759
    19  H    0.159659
    20  H    0.161436
    21  C   -0.296814
    22  C   -0.309482
    23  C   -0.475064
    24  H    0.149008
    25  H    0.148862
    26  H    0.150667
    27  H    0.164884
    28  H    0.154406
    29  H    0.154665
    30  H    0.159470
    31  C   -0.305367
    32  C   -0.299239
    33  C   -0.475375
    34  H    0.148952
    35  H    0.156686
    36  H    0.151778
    37  H    0.151788
    38  H    0.153997
    39  H    0.155157
    40  H    0.160141
 Sum of Mulliken charges =  -0.00000

 Dipole moment (field-independent basis, Debye):
    X=              0.0754    Y=             -0.0183    Z=              0.0210  Tot=              0.0803
 Quadrupole moment (field-independent basis, Debye-Ang):
   XX=            -85.4263   YY=            -85.2810   ZZ=            -84.3810
   XY=             -0.6176   XZ=             -0.5943   YZ=              0.0555

 Normal termination of Gaussian 16 at Wed May  5 15:19:05 2021.
