 Gaussian 16, Revision A.03,
 Gaussian 16:  EM64L-G16RevA.03 25-Dec-2016

 -------------
 #p 6-31g* mp2
 -------------

 ------------------------------------------------------
 Input file generated by CHIRIPA (05-May-2021 14:53:11)
 ------------------------------------------------------
 Symbolic Z-matrix:
 Charge =  0 Multiplicity = 1

                         Standard orientation:
 ---------------------------------------------------------------------
 Center     Atomic      Atomic             Coordinates (Angstroms)
 Number     Number       Type             X           Y           Z
 ---------------------------------------------------------------------
      1          6           0        3.973407    0.780439    0.149310
      2          6           0        2.958597    0.921758    1.284288
      3          6           0        2.166385    2.227378    1.209789
      4          1           0        4.665640    1.633089    0.176649
      5          1           0        3.446551    0.836306   -0.813341
      6          1           0        3.487038    0.864255    2.244527
      7          1           0        2.268817    0.068574    1.254361
      8          1           0        1.613814    2.289423    0.266699
      9          1           0        2.838957    3.089625    1.262492
     10          1           0        1.446806    2.307737    2.030525
     11          6           0        4.773171   -0.519717    0.210129
     12          6           0        5.787980   -0.661036   -0.924849
     13          6           0        6.580193   -1.966656   -0.850350
     14          1           0        5.300027   -0.575584    1.172779
     15          1           0        4.080938   -1.372367    0.182789
     16          1           0        6.477761    0.192148   -0.894922
     17          1           0        5.259540   -0.603533   -1.885089
     18          1           0        5.907621   -2.828903   -0.903054
     19          1           0        7.132763   -2.028701    0.092739
     20          1           0        7.299772   -2.047015   -1.671087
     21          6           0       -2.308453    2.070169   -0.788648
     22          6           0       -3.680779    1.895503   -0.995370
     23          6           0       -4.305357    0.696263   -0.640019
     24          6           0       -3.523767   -0.311826   -0.077736
     25          6           0       -2.154505   -0.168087    0.140781
     26          6           0       -1.551031    1.039634   -0.222230
     27          1           0       -1.831464    3.005062   -1.067668
     28          1           0       -4.271497    2.694105   -1.435067
     29          1           0       -5.366018    0.534319   -0.788978
     30          1           0       -1.591915   -0.982358    0.581093
     31          1           0       -0.485082    1.172481   -0.060527
     32          7           0       -4.173808   -1.585898    0.302514
     33          8           0       -3.463050   -2.458674    0.796197
     34          8           0       -5.381758   -1.687614    0.099669
 ---------------------------------------------------------------------

 SCF Done:  E(RHF) =  -669.535466453     A.U. after   15 cycles
 E2 =    -0.2090990013D+01 EUMP2 =    -0.67162645646672D+03

 The electronic state is 1-A.
 Alpha  occ. eigenvalues --  -20.60732 -20.60727 -15.85785 -11.31139 -11.27706
 Alpha  occ. eigenvalues --  -11.27696 -11.27438 -11.26724 -11.26664 -11.22484
 Alpha  occ. eigenvalues --  -11.22193 -11.22081 -11.22006 -11.21874 -11.21369
 Alpha  occ. eigenvalues --   -1.59808  -1.39362  -1.19307  -1.09072  -1.08704
 Alpha  occ. eigenvalues --   -1.04710  -1.04197  -0.96656  -0.95542  -0.87677
 Alpha  occ. eigenvalues --   -0.86106  -0.82374  -0.80267  -0.78836  -0.77426
 Alpha  occ. eigenvalues --   -0.72004  -0.71131  -0.70419  -0.65742  -0.64958
 Alpha  occ. eigenvalues --   -0.64722  -0.62154  -0.61508  -0.60035  -0.58236
 Alpha  occ. eigenvalues --   -0.55984  -0.55193  -0.53364  -0.53085  -0.53035
 Alpha  occ. eigenvalues --   -0.52767  -0.50583  -0.48762  -0.48759  -0.48568
 Alpha  occ. eigenvalues --   -0.47303  -0.46385  -0.46288  -0.44770  -0.44425
 Alpha  occ. eigenvalues --   -0.37289  -0.36311
 Alpha virt. eigenvalues --    0.05108   0.11332   0.16600   0.19313   0.22673
 Alpha virt. eigenvalues --    0.23729   0.25769   0.26349   0.26990   0.28195
 Alpha virt. eigenvalues --    0.28742   0.30551   0.30985   0.31247   0.31926

 Mulliken charges:
               1
     1  C   -0.298352
     2  C   -0.301457
     3  C   -0.480943
     4  H    0.151587
     5  H    0.147585
     6  H    0.157618
     7  H    0.149386
     8  H    0.144712
     9  H    0.161909
    10  H    0.163679
    11  C   -0.298980
    12  C   -0.300122
    13  C   -0.476188
    14  H    0.151336
    15  H    0.150870
    16  H    0.152350
    17  H    0.152048
    18  H    0.156524
    19  H    0.156010
    20  H    0.161479
    21  C   -0.173135
    22  C   -0.218457
    23  C   -0.171449
    24  C    0.159005
    25  C   -0.173259
    26  C   -0.226063
    27  H    0.225523
    28  H    0.223193
    29  H    0.275380
    30  H    0.275387
    31  H    0.236038
    32  N    0.488016
    33  O   -0.460620
    34  O   -0.460612
 Sum of Mulliken charges =  -0.00000

 Dipole moment (field-independent basis, Debye):
    X=              2.5200    Y=              4.4943    Z=             -1.2863  Tot=              5.3107
 Quadrupole moment (field-independent basis, Debye-Ang):
   XX=           -106.2480   YY=            -98.0351   ZZ=            -94.3858
   XY=            -17.5642   XZ=              6.8733   YZ=             -0.3155

 Normal termination of Gaussian 16 at Thu May  6 05:41:08 2021.
