 Gaussian 16, Revision A.03,
 Gaussian 16:  EM64L-G16RevA.03 25-Dec-2016

 -------------
 #p 6-31g* mp2
 -------------

 ------------------------------------------------------
 Input file generated by CHIRIPA (05-May-2021 14:57:25)
 ------------------------------------------------------
 Symbolic Z-matrix:
 Charge =  0 Multiplicity = 1

                         Standard orientation:
 ---------------------------------------------------------------------
 Center     Atomic      Atomic             Coordinates (Angstroms)
 Number     Number       Type             X           Y           Z
 ---------------------------------------------------------------------
      1          6           0        4.220410   -2.225965    0.831539
      2          6           0        3.462839   -1.360900    1.627949
      3          6           0        3.065670   -0.112129    1.140738
      4          6           0        3.445323    0.240947   -0.153284
      5          6           0        4.199775   -0.598869   -0.971088
      6          6           0        4.585816   -1.842864   -0.463155
      7          1           0        4.524618   -3.194186    1.218065
      8          1           0        3.177618   -1.655774    2.633804
      9          1           0        2.478888    0.577051    1.735832
     10          1           0        4.468903   -0.277033   -1.969792
     11          1           0        5.174124   -2.512644   -1.083907
     12          7           0        3.030749    1.560437   -0.680041
     13          8           0        3.378052    1.847950   -1.823437
     14          8           0        2.366352    2.282156    0.060457
     15          6           0       -1.384025    1.046401    0.894703
     16          6           0       -2.624202    1.568168    1.277119
     17          6           0       -3.810630    0.983476    0.824271
     18          6           0       -3.719534   -0.126911   -0.013603
     19          6           0       -2.499089   -0.669935   -0.412261
     20          6           0       -1.325529   -0.069019    0.052720
     21          1           0       -0.467377    1.506905    1.251198
     22          1           0       -2.672664    2.434331    1.930921
     23          1           0       -4.784122    1.366962    1.104752
     24          1           0       -2.482759   -1.534279   -1.064992
     25          1           0       -0.363795   -0.476373   -0.245902
     26          7           0       -4.968741   -0.754486   -0.499434
     27          8           0       -4.861486   -1.731969   -1.236767
     28          8           0       -6.031471   -0.257014   -0.133696
 ---------------------------------------------------------------------

 SCF Done:  E(RHF) =  -868.339096848     A.U. after   16 cycles
 E2 =    -0.2599528326D+01 EUMP2 =    -0.87093862517427D+03

 The electronic state is 1-A.
 Alpha  occ. eigenvalues --  -20.61907 -20.61842 -20.60504 -20.60497 -15.86910
 Alpha  occ. eigenvalues --  -15.85556 -11.32203 -11.30830 -11.28793 -11.28672
 Alpha  occ. eigenvalues --  -11.28379 -11.27712 -11.27655 -11.27421 -11.27399
 Alpha  occ. eigenvalues --  -11.27020 -11.26380 -11.26344  -1.60936  -1.59581
 Alpha  occ. eigenvalues --   -1.40496  -1.39138  -1.20338  -1.18993  -1.09731
 Alpha  occ. eigenvalues --   -1.08382  -1.05714  -1.04395  -0.96586  -0.95233
 Alpha  occ. eigenvalues --   -0.87111  -0.85786  -0.83416  -0.82079  -0.78496
 Alpha  occ. eigenvalues --   -0.77160  -0.73124  -0.72263  -0.71774  -0.71409
 Alpha  occ. eigenvalues --   -0.70904  -0.70032  -0.65974  -0.65687  -0.64638
 Alpha  occ. eigenvalues --   -0.64398  -0.63059  -0.61756  -0.56172  -0.54812
 Alpha  occ. eigenvalues --   -0.54057  -0.53781  -0.52716  -0.52481  -0.49892
 Alpha  occ. eigenvalues --   -0.49857  -0.48535  -0.48525  -0.45905  -0.44564
 Alpha  occ. eigenvalues --   -0.38290  -0.37320  -0.36927  -0.36010
 Alpha virt. eigenvalues --    0.03994   0.05390   0.10270   0.11653   0.15525
 Alpha virt. eigenvalues --    0.16910   0.19996   0.21742   0.25590   0.26954
 Alpha virt. eigenvalues --    0.27437   0.28748   0.30333   0.30867   0.32587

 Mulliken charges:
               1
     1  C   -0.170398
     2  C   -0.217929
     3  C   -0.176917
     4  C    0.156420
     5  C   -0.170917
     6  C   -0.217936
     7  H    0.229696
     8  H    0.226705
     9  H    0.271408
    10  H    0.278443
    11  H    0.227537
    12  N    0.489046
    13  O   -0.453095
    14  O   -0.468017
    15  C   -0.173703
    16  C   -0.219473
    17  C   -0.170983
    18  C    0.157728
    19  C   -0.171324
    20  C   -0.220319
    21  H    0.237377
    22  H    0.223928
    23  H    0.274518
    24  H    0.273457
    25  H    0.219807
    26  N    0.488232
    27  O   -0.462080
    28  O   -0.461212
 Sum of Mulliken charges =  -0.00000

 Dipole moment (field-independent basis, Debye):
    X=              6.2589    Y=             -2.4745    Z=              3.5173  Tot=              7.5940
 Quadrupole moment (field-independent basis, Debye-Ang):
   XX=           -125.3495   YY=           -105.8296   ZZ=           -101.0085
   XY=            -28.0087   XZ=             -4.4009   YZ=              3.7197

 Normal termination of Gaussian 16 at Thu May  6 18:04:33 2021.
