 Gaussian 16, Revision A.03,
 Gaussian 16:  EM64L-G16RevA.03 25-Dec-2016

 -------------
 #p 6-31g* mp2
 -------------

 ------------------------------------------------------
 Input file generated by CHIRIPA (05-May-2021 14:55:25)
 ------------------------------------------------------
 Symbolic Z-matrix:
 Charge =  0 Multiplicity = 1

                         Standard orientation:
 ---------------------------------------------------------------------
 Center     Atomic      Atomic             Coordinates (Angstroms)
 Number     Number       Type             X           Y           Z
 ---------------------------------------------------------------------
      1          6           0       -2.237027    2.387342   -0.586358
      2          6           0       -3.554215    1.917461   -0.613727
      3          6           0       -3.839034    0.584252   -0.303920
      4          6           0       -2.777607   -0.255315    0.030427
      5          6           0       -1.454778    0.182991    0.066523
      6          6           0       -1.193353    1.520137   -0.246919
      7          1           0       -2.024859    3.424540   -0.828436
      8          1           0       -4.366742    2.588683   -0.876985
      9          1           0       -4.849508    0.194148   -0.317319
     10          1           0       -0.665850   -0.509946    0.332699
     11          1           0       -0.169438    1.882292   -0.224847
     12          7           0       -3.066749   -1.668807    0.360330
     13          8           0       -2.113867   -2.388349    0.651726
     14          8           0       -4.240787   -2.030396    0.321265
     15          6           0        3.929127   -0.533040   -0.250305
     16          6           0        3.298358   -1.918378   -0.105543
     17          6           0        4.180116   -3.031551   -0.672237
     18          1           0        4.130777   -0.338145   -1.312519
     19          1           0        4.902715   -0.526065    0.259078
     20          1           0        2.325626   -1.922330   -0.613867
     21          1           0        3.098010   -2.109920    0.956431
     22          1           0        5.146707   -3.056451   -0.158735
     23          1           0        4.369934   -2.867796   -1.737954
     24          1           0        3.710035   -4.013337   -0.558302
     25          6           0        3.059551    0.590268    0.311606
     26          6           0        3.690320    1.975605    0.166844
     27          6           0        2.808562    3.088779    0.733536
     28          1           0        2.085963    0.583292   -0.197778
     29          1           0        2.857901    0.395372    1.373820
     30          1           0        3.890668    2.167147   -0.895131
     31          1           0        4.663052    1.979557    0.675166
     32          1           0        2.618744    2.925023    1.799254
     33          1           0        1.841971    3.113679    0.220035
     34          1           0        3.278642    4.070564    0.619602
 ---------------------------------------------------------------------

 SCF Done:  E(RHF) =  -669.535359637     A.U. after   15 cycles
 E2 =    -0.2092028381D+01 EUMP2 =    -0.67162738801833D+03

 The electronic state is 1-A.
 Alpha  occ. eigenvalues --  -20.60713 -20.60708 -15.85765 -11.31117 -11.27691
 Alpha  occ. eigenvalues --  -11.27665 -11.27426 -11.26707 -11.26652 -11.22398
 Alpha  occ. eigenvalues --  -11.22208 -11.22085 -11.21878 -11.21818 -11.21173
 Alpha  occ. eigenvalues --   -1.59789  -1.39343  -1.19288  -1.09045  -1.08688
 Alpha  occ. eigenvalues --   -1.04690  -1.04079  -0.96556  -0.95524  -0.87571
 Alpha  occ. eigenvalues --   -0.86092  -0.82363  -0.80175  -0.78832  -0.77397
 Alpha  occ. eigenvalues --   -0.71985  -0.71112  -0.70400  -0.65716  -0.64939
 Alpha  occ. eigenvalues --   -0.64700  -0.62084  -0.61427  -0.59937  -0.58143
 Alpha  occ. eigenvalues --   -0.55876  -0.55196  -0.53214  -0.53046  -0.53007
 Alpha  occ. eigenvalues --   -0.52747  -0.50509  -0.48756  -0.48739  -0.48447
 Alpha  occ. eigenvalues --   -0.47198  -0.46353  -0.46246  -0.44751  -0.44341
 Alpha  occ. eigenvalues --   -0.37273  -0.36291
 Alpha virt. eigenvalues --    0.05121   0.11353   0.16598   0.18949   0.22757
 Alpha virt. eigenvalues --    0.23242   0.24668   0.26001   0.26593   0.28544
 Alpha virt. eigenvalues --    0.29605   0.30489   0.31169   0.31584   0.32178

 Mulliken charges:
               1
     1  C   -0.173148
     2  C   -0.218634
     3  C   -0.171157
     4  C    0.159224
     5  C   -0.176240
     6  C   -0.228536
     7  H    0.225513
     8  H    0.223132
     9  H    0.275301
    10  H    0.277966
    11  H    0.237627
    12  N    0.488006
    13  O   -0.460464
    14  O   -0.460834
    15  C   -0.298408
    16  C   -0.301658
    17  C   -0.476448
    18  H    0.150694
    19  H    0.152119
    20  H    0.153087
    21  H    0.155059
    22  H    0.155196
    23  H    0.155057
    24  H    0.165292
    25  C   -0.302882
    26  C   -0.300546
    27  C   -0.478945
    28  H    0.141508
    29  H    0.153141
    30  H    0.153708
    31  H    0.156925
    32  H    0.159541
    33  H    0.144796
    34  H    0.165009
 Sum of Mulliken charges =  -0.00000

 Dipole moment (field-independent basis, Debye):
    X=              1.2615    Y=              4.9046    Z=             -1.1158  Tot=              5.1857
 Quadrupole moment (field-independent basis, Debye-Ang):
   XX=            -94.8458   YY=            -98.2860   ZZ=            -94.8191
   XY=            -14.7826   XZ=              4.9093   YZ=             -0.0628

 Normal termination of Gaussian 16 at Wed May  5 20:51:25 2021.
