 Gaussian 16, Revision A.03,
 Gaussian 16:  EM64L-G16RevA.03 25-Dec-2016

 -------------
 #p 6-31g* mp2
 -------------

 ------------------------------------------------------
 Input file generated by CHIRIPA (05-May-2021 14:57:23)
 ------------------------------------------------------
 Symbolic Z-matrix:
 Charge =  0 Multiplicity = 1

                         Standard orientation:
 ---------------------------------------------------------------------
 Center     Atomic      Atomic             Coordinates (Angstroms)
 Number     Number       Type             X           Y           Z
 ---------------------------------------------------------------------
      1          6           0       -1.476951    0.435592    1.242020
      2          6           0       -2.034039   -0.847171    1.268363
      3          6           0       -3.300443   -1.082561    0.724893
      4          6           0       -3.985007   -0.007346    0.160470
      5          6           0       -3.456785    1.282055    0.119037
      6          6           0       -2.188847    1.494244    0.668451
      7          1           0       -0.492582    0.609437    1.666509
      8          1           0       -1.483458   -1.671226    1.713153
      9          1           0       -3.755386   -2.065616    0.731888
     10          1           0       -4.029719    2.083581   -0.331210
     11          1           0       -1.758685    2.491505    0.646588
     12          7           0       -5.326504   -0.244262   -0.418025
     13          8           0       -5.909270    0.719834   -0.909492
     14          8           0       -5.769803   -1.389567   -0.369027
     15          6           0        1.317092    0.144450   -0.845697
     16          6           0        2.055441    1.299846   -0.569249
     17          6           0        3.411777    1.214176   -0.241285
     18          6           0        4.000462   -0.048730   -0.198785
     19          6           0        3.291587   -1.218224   -0.469103
     20          6           0        1.936430   -1.108687   -0.794832
     21          1           0        0.263915    0.220271   -1.099599
     22          1           0        1.577079    2.274379   -0.607995
     23          1           0        4.006994    2.092458   -0.022755
     24          1           0        3.796095   -2.175678   -0.422509
     25          1           0        1.365493   -2.007679   -1.009052
     26          7           0        5.435731   -0.152059    0.147233
     27          8           0        5.931014   -1.276509    0.177946
     28          8           0        6.038232    0.893359    0.381176
 ---------------------------------------------------------------------

 SCF Done:  E(RHF) =  -868.336992551     A.U. after   16 cycles
 E2 =    -0.2601489797D+01 EUMP2 =    -0.87093848234754D+03

 The electronic state is 1-A.
 Alpha  occ. eigenvalues --  -20.61494 -20.61489 -20.61334 -20.61329 -15.86557
 Alpha  occ. eigenvalues --  -15.86396 -11.32083 -11.31871 -11.28718 -11.28689
 Alpha  occ. eigenvalues --  -11.28505 -11.28471 -11.28416 -11.28141 -11.27751
 Alpha  occ. eigenvalues --  -11.27685 -11.27530 -11.27454  -1.60568  -1.60410
 Alpha  occ. eigenvalues --   -1.40117  -1.39959  -1.20310  -1.20078  -1.09691
 Alpha  occ. eigenvalues --   -1.09416  -1.05725  -1.05500  -0.96496  -0.96209
 Alpha  occ. eigenvalues --   -0.87112  -0.86877  -0.83295  -0.83059  -0.78299
 Alpha  occ. eigenvalues --   -0.78113  -0.72767  -0.72607  -0.71900  -0.71739
 Alpha  occ. eigenvalues --   -0.71502  -0.71010  -0.65941  -0.65738  -0.65702
 Alpha  occ. eigenvalues --   -0.65477  -0.63052  -0.62832  -0.56255  -0.56004
 Alpha  occ. eigenvalues --   -0.54069  -0.53797  -0.53690  -0.53574  -0.49540
 Alpha  occ. eigenvalues --   -0.49513  -0.49376  -0.49356  -0.45486  -0.45340
 Alpha  occ. eigenvalues --   -0.38672  -0.37649  -0.37376  -0.37125
 Alpha virt. eigenvalues --    0.03962   0.04698   0.10061   0.10606   0.15309
 Alpha virt. eigenvalues --    0.16298   0.19897   0.21276   0.25277   0.27294
 Alpha virt. eigenvalues --    0.27621   0.27909   0.29842   0.30877   0.31283

 Mulliken charges:
               1
     1  C   -0.177689
     2  C   -0.223266
     3  C   -0.170466
     4  C    0.158076
     5  C   -0.169792
     6  C   -0.226149
     7  H    0.233835
     8  H    0.226663
     9  H    0.278307
    10  H    0.278267
    11  H    0.222977
    12  N    0.488062
    13  O   -0.458428
    14  O   -0.458283
    15  C   -0.176873
    16  C   -0.225880
    17  C   -0.169847
    18  C    0.157956
    19  C   -0.170035
    20  C   -0.223256
    21  H    0.235403
    22  H    0.220538
    23  H    0.277123
    24  H    0.277541
    25  H    0.225155
    26  N    0.488083
    27  O   -0.458796
    28  O   -0.459228
 Sum of Mulliken charges =  -0.00000

 Dipole moment (field-independent basis, Debye):
    X=             -0.4118    Y=              1.1113    Z=              0.8334  Tot=              1.4489
 Quadrupole moment (field-independent basis, Debye-Ang):
   XX=           -183.2541   YY=            -95.1744   ZZ=           -104.7703
   XY=             -1.7659   XZ=            -11.2537   YZ=             -0.7460

 Normal termination of Gaussian 16 at Wed May  5 19:26:13 2021.
