 Gaussian 16, Revision A.03,
 Gaussian 16:  EM64L-G16RevA.03 25-Dec-2016

 -------------
 #p 6-31g* mp2
 -------------

 ------------------------------------------------------
 Input file generated by CHIRIPA (05-May-2021 14:57:26)
 ------------------------------------------------------
 Symbolic Z-matrix:
 Charge =  0 Multiplicity = 1

                         Standard orientation:
 ---------------------------------------------------------------------
 Center     Atomic      Atomic             Coordinates (Angstroms)
 Number     Number       Type             X           Y           Z
 ---------------------------------------------------------------------
      1          6           0        6.100763    0.793292   -0.304961
      2          6           0        5.111968    1.555127    0.326238
      3          6           0        3.855289    1.004752    0.595296
      4          6           0        3.620560   -0.316490    0.217788
      5          6           0        4.585149   -1.101090   -0.412499
      6          6           0        5.834667   -0.530052   -0.671669
      7          1           0        7.074200    1.228862   -0.510132
      8          1           0        5.315812    2.583109    0.612151
      9          1           0        3.071645    1.571982    1.082708
     10          1           0        4.352331   -2.123142   -0.685672
     11          1           0        6.600675   -1.124068   -1.161997
     12          7           0        2.293961   -0.910085    0.497394
     13          8           0        2.112168   -2.076372    0.154813
     14          8           0        1.461084   -0.197817    1.053835
     15          6           0       -1.583866    1.244447   -0.648307
     16          6           0       -1.749776   -0.142897   -0.713664
     17          6           0       -2.994866   -0.722198   -0.451544
     18          6           0       -4.057237    0.119489   -0.125629
     19          6           0       -3.923594    1.505157   -0.052459
     20          6           0       -2.669390    2.062604   -0.318495
     21          1           0       -0.613110    1.685974   -0.853449
     22          1           0       -0.908515   -0.780743   -0.969552
     23          1           0       -3.151241   -1.793214   -0.495035
     24          1           0       -4.780881    2.115130    0.205241
     25          1           0       -2.543471    3.140350   -0.266993
     26          7           0       -5.380182   -0.482223    0.153938
     27          8           0       -6.300364    0.281138    0.438859
     28          8           0       -5.471875   -1.705815    0.082847
 ---------------------------------------------------------------------

 SCF Done:  E(RHF) =  -868.339491913     A.U. after   16 cycles
 E2 =    -0.2599225972D+01 EUMP2 =    -0.87093871788517D+03

 The electronic state is 1-A.
 Alpha  occ. eigenvalues --  -20.61918 -20.61895 -20.59909 -20.59896 -15.86917
 Alpha  occ. eigenvalues --  -15.84949 -11.32058 -11.30122 -11.28613 -11.28574
 Alpha  occ. eigenvalues --  -11.28272 -11.27552 -11.27525 -11.26713 -11.26569
 Alpha  occ. eigenvalues --  -11.26337 -11.25729 -11.25464  -1.60979  -1.58984
 Alpha  occ. eigenvalues --   -1.40532  -1.38543  -1.20205  -1.18258  -1.09639
 Alpha  occ. eigenvalues --   -1.07685  -1.05568  -1.03622  -0.96510  -0.94561
 Alpha  occ. eigenvalues --   -0.86975  -0.85029  -0.83343  -0.81396  -0.78428
 Alpha  occ. eigenvalues --   -0.76473  -0.73125  -0.72302  -0.71298  -0.71175
 Alpha  occ. eigenvalues --   -0.70303  -0.69375  -0.65852  -0.65559  -0.63907
 Alpha  occ. eigenvalues --   -0.63609  -0.62916  -0.60975  -0.56062  -0.54144
 Alpha  occ. eigenvalues --   -0.53914  -0.53649  -0.51971  -0.51715  -0.49906
 Alpha  occ. eigenvalues --   -0.49858  -0.47939  -0.47911  -0.45979  -0.43992
 Alpha  occ. eigenvalues --   -0.38167  -0.37162  -0.36202  -0.35199
 Alpha virt. eigenvalues --    0.04045   0.06042   0.10493   0.12450   0.15605
 Alpha virt. eigenvalues --    0.17604   0.20660   0.22504   0.26587   0.27466
 Alpha virt. eigenvalues --    0.28461   0.29146   0.30464   0.31493   0.32440

 Mulliken charges:
               1
     1  C   -0.169781
     2  C   -0.218326
     3  C   -0.172494
     4  C    0.157411
     5  C   -0.170564
     6  C   -0.218355
     7  H    0.228554
     8  H    0.225467
     9  H    0.274185
    10  H    0.277071
    11  H    0.226372
    12  N    0.486234
    13  O   -0.459582
    14  O   -0.462806
    15  C   -0.165314
    16  C   -0.209495
    17  C   -0.173687
    18  C    0.157863
    19  C   -0.173134
    20  C   -0.219712
    21  H    0.220713
    22  H    0.233439
    23  H    0.274965
    24  H    0.271328
    25  H    0.217312
    26  N    0.488172
    27  O   -0.464188
    28  O   -0.461645
 Sum of Mulliken charges =  -0.00000

 Dipole moment (field-independent basis, Debye):
    X=              9.9327    Y=              4.0649    Z=             -1.9639  Tot=             10.9105
 Quadrupole moment (field-independent basis, Debye-Ang):
   XX=           -108.8042   YY=            -98.2178   ZZ=           -105.6157
   XY=             -4.9054   XZ=             -0.4268   YZ=              3.4093

 Normal termination of Gaussian 16 at Thu May  6 03:35:37 2021.
