 Gaussian 16, Revision A.03,
 Gaussian 16:  EM64L-G16RevA.03 25-Dec-2016

 -------------
 #p 6-31g* mp2
 -------------

 ------------------------------------------------------
 Input file generated by CHIRIPA (05-May-2021 14:57:24)
 ------------------------------------------------------
 Symbolic Z-matrix:
 Charge =  0 Multiplicity = 1

                         Standard orientation:
 ---------------------------------------------------------------------
 Center     Atomic      Atomic             Coordinates (Angstroms)
 Number     Number       Type             X           Y           Z
 ---------------------------------------------------------------------
      1          6           0        4.245809   -1.473237    0.779646
      2          6           0        3.160364   -1.729108   -0.064664
      3          6           0        2.356161   -0.681984   -0.524379
      4          6           0        2.667543    0.614666   -0.118143
      5          6           0        3.742106    0.901699    0.722225
      6          6           0        4.532710   -0.160964    1.169709
      7          1           0        4.865252   -2.292703    1.132013
      8          1           0        2.935192   -2.747237   -0.369221
      9          1           0        1.509764   -0.851745   -1.178757
     10          1           0        3.941682    1.927145    1.008662
     11          1           0        5.375043    0.040718    1.825334
     12          7           0        1.823368    1.731434   -0.598348
     13          8           0        2.118706    2.864900   -0.225965
     14          8           0        0.882349    1.452146   -1.338022
     15          6           0       -4.443921    1.160840    1.112606
     16          6           0       -4.212386    1.219030   -0.265628
     17          6           0       -3.307418    0.342183   -0.871202
     18          6           0       -2.648390   -0.584465   -0.064793
     19          6           0       -2.857603   -0.667160    1.310954
     20          6           0       -3.766985    0.219590    1.895118
     21          1           0       -5.148638    1.845841    1.574715
     22          1           0       -4.736678    1.948986   -0.875813
     23          1           0       -3.109225    0.365421   -1.935908
     24          1           0       -2.319934   -1.405676    1.893126
     25          1           0       -3.944813    0.172112    2.965711
     26          7           0       -1.688006   -1.517985   -0.694555
     27          8           0       -1.120090   -2.325196    0.037921
     28          8           0       -1.521355   -1.424792   -1.908713
 ---------------------------------------------------------------------

 SCF Done:  E(RHF) =  -868.340671944     A.U. after   16 cycles
 E2 =    -0.2599451841D+01 EUMP2 =    -0.87094012378484D+03

 The electronic state is 1-A.
 Alpha  occ. eigenvalues --  -20.60834 -20.60761 -20.60248 -20.60242 -15.85798
 Alpha  occ. eigenvalues --  -15.85287 -11.30840 -11.30415 -11.27444 -11.27336
 Alpha  occ. eigenvalues --  -11.27126 -11.27059 -11.26799 -11.26732 -11.26398
 Alpha  occ. eigenvalues --  -11.26314 -11.26048 -11.25834  -1.59857  -1.59330
 Alpha  occ. eigenvalues --   -1.39410  -1.38886  -1.18998  -1.18588  -1.08465
 Alpha  occ. eigenvalues --   -1.08046  -1.04364  -1.03929  -0.95351  -0.94904
 Alpha  occ. eigenvalues --   -0.85782  -0.85358  -0.82200  -0.81725  -0.77272
 Alpha  occ. eigenvalues --   -0.76789  -0.72038  -0.71549  -0.71118  -0.70643
 Alpha  occ. eigenvalues --   -0.70136  -0.69692  -0.64670  -0.64391  -0.64236
 Alpha  occ. eigenvalues --   -0.63929  -0.61722  -0.61250  -0.54915  -0.54496
 Alpha  occ. eigenvalues --   -0.52696  -0.52471  -0.52312  -0.52005  -0.48816
 Alpha  occ. eigenvalues --   -0.48781  -0.48278  -0.48255  -0.44878  -0.44344
 Alpha  occ. eigenvalues --   -0.36966  -0.36608  -0.35936  -0.35516
 Alpha virt. eigenvalues --    0.05222   0.05697   0.11722   0.12108   0.16763
 Alpha virt. eigenvalues --    0.17228   0.21775   0.22298   0.27715   0.28223
 Alpha virt. eigenvalues --    0.28648   0.29194   0.31305   0.31795   0.32898

 Mulliken charges:
               1
     1  C   -0.171489
     2  C   -0.218727
     3  C   -0.173887
     4  C    0.154808
     5  C   -0.172493
     6  C   -0.219801
     7  H    0.223290
     8  H    0.230412
     9  H    0.291381
    10  H    0.271705
    11  H    0.219712
    12  N    0.487691
    13  O   -0.464971
    14  O   -0.461390
    15  C   -0.169283
    16  C   -0.218081
    17  C   -0.162351
    18  C    0.160930
    19  C   -0.171352
    20  C   -0.218803
    21  H    0.225120
    22  H    0.224486
    23  H    0.278962
    24  H    0.272257
    25  H    0.221590
    26  N    0.488500
    27  O   -0.470240
    28  O   -0.457978
 Sum of Mulliken charges =  -0.00000

 Dipole moment (field-independent basis, Debye):
    X=             -0.6758    Y=             -0.7058    Z=              3.7026  Tot=              3.8293
 Quadrupole moment (field-independent basis, Debye-Ang):
   XX=            -70.8413   YY=           -111.8407   ZZ=           -100.9454
   XY=            -14.9221   XZ=              1.1119   YZ=             -0.1424

 Normal termination of Gaussian 16 at Wed May  5 19:29:19 2021.
