 Gaussian 16, Revision A.03,
 Gaussian 16:  EM64L-G16RevA.03 25-Dec-2016

 -------------
 #p 6-31g* mp2
 -------------

 ------------------------------------------------------
 Input file generated by CHIRIPA (05-May-2021 14:57:23)
 ------------------------------------------------------
 Symbolic Z-matrix:
 Charge =  0 Multiplicity = 1

                         Standard orientation:
 ---------------------------------------------------------------------
 Center     Atomic      Atomic             Coordinates (Angstroms)
 Number     Number       Type             X           Y           Z
 ---------------------------------------------------------------------
      1          6           0        3.820458    2.490355   -0.524146
      2          6           0        2.706175    1.649561   -0.613374
      3          6           0        2.827133    0.280754   -0.355921
      4          6           0        4.083021   -0.215803   -0.010281
      5          6           0        5.211945    0.596220    0.086877
      6          6           0        5.067588    1.961933   -0.174921
      7          1           0        3.717406    3.552476   -0.725829
      8          1           0        1.736404    2.057174   -0.884373
      9          1           0        1.981026   -0.392821   -0.417712
     10          1           0        6.165659    0.160729    0.359265
     11          1           0        5.934687    2.612529   -0.104862
     12          7           0        4.223460   -1.663260    0.264573
     13          8           0        5.340876   -2.076106    0.567189
     14          8           0        3.213460   -2.357524    0.172183
     15          6           0       -1.543530   -0.006845    0.239093
     16          6           0       -2.309650    0.840201    1.046616
     17          6           0       -3.704593    0.839823    0.953441
     18          6           0       -4.303146   -0.024293    0.037839
     19          6           0       -3.567270   -0.879973   -0.780446
     20          6           0       -2.173674   -0.862719   -0.670257
     21          1           0       -0.460429    0.000005    0.318082
     22          1           0       -1.822980    1.505938    1.753717
     23          1           0       -4.321900    1.485213    1.566484
     24          1           0       -4.080937   -1.532513   -1.475969
     25          1           0       -1.581231   -1.521632   -1.298660
     26          7           0       -5.779197   -0.033627   -0.069807
     27          8           0       -6.282435   -0.804284   -0.884348
     28          8           0       -6.404938    0.729892    0.662398
 ---------------------------------------------------------------------

 SCF Done:  E(RHF) =  -868.337078915     A.U. after   16 cycles
 E2 =    -0.2599705931D+01 EUMP2 =    -0.87093678484592D+03

 The electronic state is 1-A.
 Alpha  occ. eigenvalues --  -20.61575 -20.61552 -20.60953 -20.60947 -15.86623
 Alpha  occ. eigenvalues --  -15.86007 -11.32078 -11.31451 -11.28762 -11.28576
 Alpha  occ. eigenvalues --  -11.28335 -11.28021 -11.27990 -11.27869 -11.27715
 Alpha  occ. eigenvalues --  -11.27593 -11.27102 -11.27047  -1.60637  -1.60026
 Alpha  occ. eigenvalues --   -1.40191  -1.39577  -1.20240  -1.19632  -1.09601
 Alpha  occ. eigenvalues --   -1.09034  -1.05671  -1.05036  -0.96435  -0.95855
 Alpha  occ. eigenvalues --   -0.87050  -0.86440  -0.83277  -0.82674  -0.78328
 Alpha  occ. eigenvalues --   -0.77689  -0.72839  -0.72225  -0.71960  -0.71383
 Alpha  occ. eigenvalues --   -0.71349  -0.70769  -0.65892  -0.65663  -0.65291
 Alpha  occ. eigenvalues --   -0.65041  -0.63035  -0.62371  -0.56145  -0.55592
 Alpha  occ. eigenvalues --   -0.53964  -0.53751  -0.53370  -0.53130  -0.49605
 Alpha  occ. eigenvalues --   -0.49586  -0.48991  -0.48974  -0.45578  -0.44964
 Alpha  occ. eigenvalues --   -0.38184  -0.37650  -0.37273  -0.36628
 Alpha virt. eigenvalues --    0.04209   0.04821   0.10375   0.11017   0.15669
 Alpha virt. eigenvalues --    0.16247   0.18227   0.21903   0.24799   0.26683
 Alpha virt. eigenvalues --    0.27346   0.29503   0.30204   0.30830   0.32227

 Mulliken charges:
               1
     1  C   -0.170445
     2  C   -0.219770
     3  C   -0.178355
     4  C    0.161876
     5  C   -0.169836
     6  C   -0.217703
     7  H    0.228696
     8  H    0.222621
     9  H    0.269523
    10  H    0.278393
    11  H    0.226924
    12  N    0.488104
    13  O   -0.456389
    14  O   -0.462665
    15  C   -0.175782
    16  C   -0.219729
    17  C   -0.170632
    18  C    0.159098
    19  C   -0.170539
    20  C   -0.218906
    21  H    0.222689
    22  H    0.223377
    23  H    0.276225
    24  H    0.277470
    25  H    0.226837
    26  N    0.487916
    27  O   -0.459050
    28  O   -0.459947
 Sum of Mulliken charges =  -0.00000

 Dipole moment (field-independent basis, Debye):
    X=              4.8665    Y=              5.1646    Z=             -0.5985  Tot=              7.1214
 Quadrupole moment (field-independent basis, Debye-Ang):
   XX=           -147.4637   YY=           -105.1485   ZZ=           -103.3165
   XY=             21.7916   XZ=             -4.5568   YZ=              3.1782

 Normal termination of Gaussian 16 at Fri May  7 09:31:33 2021.
