 Gaussian 16, Revision A.03,
 Gaussian 16:  EM64L-G16RevA.03 25-Dec-2016

 -------------
 #p 6-31g* mp2
 -------------

 ------------------------------------------------------
 Input file generated by CHIRIPA (05-May-2021 14:55:22)
 ------------------------------------------------------
 Symbolic Z-matrix:
 Charge =  0 Multiplicity = 1

                         Standard orientation:
 ---------------------------------------------------------------------
 Center     Atomic      Atomic             Coordinates (Angstroms)
 Number     Number       Type             X           Y           Z
 ---------------------------------------------------------------------
      1          6           0        1.784962    0.413072    0.788607
      2          6           0        2.579157    1.437610    0.263158
      3          6           0        3.894533    1.182610   -0.135976
      4          6           0        4.385757   -0.114350    0.005036
      5          6           0        3.619350   -1.156272    0.524950
      6          6           0        2.306674   -0.878323    0.917599
      7          1           0        0.764195    0.620076    1.096146
      8          1           0        2.176631    2.441477    0.161826
      9          1           0        4.531316    1.957112   -0.545943
     10          1           0        4.048451   -2.146927    0.613785
     11          1           0        1.692192   -1.675949    1.325337
     12          7           0        5.776857   -0.396455   -0.414076
     13          8           0        6.186118   -1.547563   -0.279563
     14          8           0        6.431601    0.538881   -0.869154
     15          6           0       -5.841741   -0.432597   -0.299078
     16          6           0       -7.274683   -0.017655    0.036306
     17          6           0       -8.306424   -1.067132   -0.378309
     18          1           0       -5.763907   -0.618742   -1.379003
     19          1           0       -5.617240   -1.385769    0.199375
     20          1           0       -7.495950    0.935147   -0.461513
     21          1           0       -7.349068    0.167708    1.115530
     22          1           0       -8.113640   -2.018173    0.128601
     23          1           0       -8.261357   -1.246373   -1.457401
     24          1           0       -9.323935   -0.750103   -0.129263
     25          6           0       -4.798865    0.606307    0.109354
     26          6           0       -3.365921    0.191366   -0.226031
     27          6           0       -2.334181    1.240843    0.188584
     28          1           0       -5.023366    1.559480   -0.389100
     29          1           0       -4.876698    0.792452    1.189279
     30          1           0       -3.291538    0.006003   -1.305255
     31          1           0       -3.144655   -0.761437    0.271788
     32          1           0       -2.379249    1.420084    1.267677
     33          1           0       -2.526965    2.191884   -0.318326
     34          1           0       -1.316671    0.923813   -0.060462
 ---------------------------------------------------------------------

 SCF Done:  E(RHF) =  -669.535611822     A.U. after   15 cycles
 E2 =    -0.2090719556D+01 EUMP2 =    -0.67162633137835D+03

 The electronic state is 1-A.
 Alpha  occ. eigenvalues --  -20.60738 -20.60733 -15.85791 -11.31155 -11.27720
 Alpha  occ. eigenvalues --  -11.27716 -11.27416 -11.26734 -11.26722 -11.22495
 Alpha  occ. eigenvalues --  -11.22247 -11.22091 -11.22072 -11.21935 -11.21464
 Alpha  occ. eigenvalues --   -1.59813  -1.39367  -1.19323  -1.09104  -1.08716
 Alpha  occ. eigenvalues --   -1.04726  -1.04244  -0.96715  -0.95551  -0.87739
 Alpha  occ. eigenvalues --   -0.86121  -0.82387  -0.80315  -0.78876  -0.77435
 Alpha  occ. eigenvalues --   -0.72009  -0.71136  -0.70444  -0.65729  -0.64973
 Alpha  occ. eigenvalues --   -0.64730  -0.62073  -0.61634  -0.60146  -0.58312
 Alpha  occ. eigenvalues --   -0.56000  -0.55259  -0.53384  -0.53143  -0.53010
 Alpha  occ. eigenvalues --   -0.52815  -0.50641  -0.48769  -0.48764  -0.48621
 Alpha  occ. eigenvalues --   -0.47328  -0.46429  -0.46327  -0.44773  -0.44488
 Alpha  occ. eigenvalues --   -0.37293  -0.36332
 Alpha virt. eigenvalues --    0.05070   0.11321   0.16475   0.20504   0.22398
 Alpha virt. eigenvalues --    0.23771   0.25990   0.26396   0.26867   0.27366
 Alpha virt. eigenvalues --    0.28865   0.30603   0.30778   0.31339   0.32291

 Mulliken charges:
               1
     1  C   -0.175861
     2  C   -0.220023
     3  C   -0.170969
     4  C    0.158575
     5  C   -0.170928
     6  C   -0.219644
     7  H    0.233202
     8  H    0.223878
     9  H    0.275475
    10  H    0.275415
    11  H    0.223398
    12  N    0.488055
    13  O   -0.460520
    14  O   -0.460494
    15  C   -0.298807
    16  C   -0.300116
    17  C   -0.476052
    18  H    0.150983
    19  H    0.149806
    20  H    0.152710
    21  H    0.152270
    22  H    0.155548
    23  H    0.155963
    24  H    0.161596
    25  C   -0.299099
    26  C   -0.298780
    27  C   -0.483213
    28  H    0.151132
    29  H    0.150056
    30  H    0.155587
    31  H    0.151078
    32  H    0.154512
    33  H    0.160043
    34  H    0.155227
 Sum of Mulliken charges =  -0.00000

 Dipole moment (field-independent basis, Debye):
    X=             -5.1242    Y=              1.0008    Z=              1.4434  Tot=              5.4169
 Quadrupole moment (field-independent basis, Debye-Ang):
   XX=           -138.2658   YY=            -90.6566   ZZ=            -94.4030
   XY=              4.9595   XZ=              6.3022   YZ=             -2.2905

 Normal termination of Gaussian 16 at Thu May  6 06:13:32 2021.
