 Gaussian 16, Revision A.03,
 Gaussian 16:  EM64L-G16RevA.03 25-Dec-2016

 -------------
 #p 6-31g* mp2
 -------------

 ------------------------------------------------------
 Input file generated by CHIRIPA (05-May-2021 14:51:13)
 ------------------------------------------------------
 Symbolic Z-matrix:
 Charge =  0 Multiplicity = 1

                         Standard orientation:
 ---------------------------------------------------------------------
 Center     Atomic      Atomic             Coordinates (Angstroms)
 Number     Number       Type             X           Y           Z
 ---------------------------------------------------------------------
      1          6           0       -2.868649   -0.151221   -0.325105
      2          6           0       -3.456838    0.840764    0.678879
      3          6           0       -4.190863    1.999839    0.003937
      4          1           0       -2.179487    0.380437   -0.995434
      5          1           0       -3.676738   -0.545765   -0.956550
      6          1           0       -2.648080    1.232279    1.309152
      7          1           0       -4.144533    0.306646    1.347017
      8          1           0       -5.016754    1.627162   -0.610569
      9          1           0       -3.511799    2.558053   -0.648650
     10          1           0       -4.603371    2.696846    0.740060
     11          6           0       -2.131745   -1.315580    0.334417
     12          6           0       -1.543556   -2.307565   -0.669568
     13          6           0       -0.809531   -3.466639    0.005375
     14          1           0       -1.323656   -0.921035    0.965861
     15          1           0       -2.820906   -1.847238    1.004746
     16          1           0       -0.855861   -1.773447   -1.337706
     17          1           0       -2.352313   -2.699079   -1.299840
     18          1           0       -1.488595   -4.024854    0.657961
     19          1           0        0.016360   -3.093962    0.619880
     20          1           0       -0.397022   -4.163647   -0.730749
     21          6           0        2.471952    0.009470   -0.246645
     22          6           0        3.397012   -0.926619    0.531806
     23          6           0        3.329335   -2.371406    0.036022
     24          1           0        1.439541   -0.358143   -0.169615
     25          1           0        2.737811   -0.026343   -1.312211
     26          1           0        3.130389   -0.888001    1.595778
     27          1           0        4.427315   -0.556628    0.453073
     28          1           0        3.615890   -2.430493   -1.018965
     29          1           0        2.311595   -2.763748    0.130233
     30          1           0        3.998389   -3.023310    0.606326
     31          6           0        2.528442    1.457330    0.237333
     32          6           0        1.603381    2.393420   -0.541117
     33          6           0        1.671059    3.838207   -0.045333
     34          1           0        2.262583    1.493143    1.302900
     35          1           0        3.560853    1.824943    0.160304
     36          1           0        0.573079    2.023428   -0.462384
     37          1           0        1.870005    2.354801   -1.605090
     38          1           0        2.688798    4.230549   -0.139544
     39          1           0        1.384503    3.897293    1.009653
     40          1           0        1.002005    4.490111   -0.615638
 ---------------------------------------------------------------------

 SCF Done:  E(RHF) =  -470.733240583     A.U. after   11 cycles
 E2 =    -0.1583892014D+01 EUMP2 =    -0.47231713259773D+03

 The electronic state is 1-A.
 Alpha  occ. eigenvalues --  -11.21671 -11.21641 -11.21638 -11.21623 -11.21460
 Alpha  occ. eigenvalues --  -11.21459 -11.21401 -11.21397 -11.21119 -11.21116
 Alpha  occ. eigenvalues --  -11.21094 -11.21020  -1.08502  -1.08456  -1.03598
 Alpha  occ. eigenvalues --   -1.03539  -0.96054  -0.95982  -0.87089  -0.86979
 Alpha  occ. eigenvalues --   -0.79664  -0.79598  -0.78296  -0.78289  -0.65316
 Alpha  occ. eigenvalues --   -0.64921  -0.61191  -0.60769  -0.59391  -0.59370
 Alpha  occ. eigenvalues --   -0.57660  -0.57603  -0.55538  -0.55105  -0.52728
 Alpha  occ. eigenvalues --   -0.52695  -0.52488  -0.52390  -0.50214  -0.49687
 Alpha  occ. eigenvalues --   -0.48044  -0.47856  -0.46756  -0.46545  -0.46034
 Alpha  occ. eigenvalues --   -0.45799  -0.45735  -0.45561  -0.43829  -0.43820
 Alpha virt. eigenvalues --    0.18772   0.22003   0.23762   0.25130   0.25734
 Alpha virt. eigenvalues --    0.26531   0.26877   0.27611   0.28767   0.29903
 Alpha virt. eigenvalues --    0.30822   0.31450   0.31576   0.31861   0.31971

 Mulliken charges:
               1
     1  C   -0.299817
     2  C   -0.299725
     3  C   -0.475750
     4  H    0.150958
     5  H    0.149928
     6  H    0.151631
     7  H    0.152095
     8  H    0.155294
     9  H    0.155370
    10  H    0.160411
    11  C   -0.299790
    12  C   -0.301812
    13  C   -0.480157
    14  H    0.149602
    15  H    0.150056
    16  H    0.154312
    17  H    0.152523
    18  H    0.155735
    19  H    0.158319
    20  H    0.161244
    21  C   -0.303271
    22  C   -0.299294
    23  C   -0.483040
    24  H    0.153242
    25  H    0.149803
    26  H    0.151435
    27  H    0.152194
    28  H    0.154978
    29  H    0.163089
    30  H    0.160241
    31  C   -0.298070
    32  C   -0.300987
    33  C   -0.475684
    34  H    0.149428
    35  H    0.150193
    36  H    0.151899
    37  H    0.152212
    38  H    0.155503
    39  H    0.155295
    40  H    0.160406
 Sum of Mulliken charges =  -0.00000

 Dipole moment (field-independent basis, Debye):
    X=             -0.0163    Y=             -0.0117    Z=             -0.0136  Tot=              0.0243
 Quadrupole moment (field-independent basis, Debye-Ang):
   XX=            -83.7312   YY=            -86.3397   ZZ=            -84.5144
   XY=              1.2544   XZ=             -0.7018   YZ=             -0.0878

 Normal termination of Gaussian 16 at Thu May  6 05:35:26 2021.
