 Gaussian 16, Revision A.03,
 Gaussian 16:  EM64L-G16RevA.03 25-Dec-2016

 -------------
 #p 6-31g* mp2
 -------------

 ------------------------------------------------------
 Input file generated by CHIRIPA (05-May-2021 14:57:22)
 ------------------------------------------------------
 Symbolic Z-matrix:
 Charge =  0 Multiplicity = 1

                         Standard orientation:
 ---------------------------------------------------------------------
 Center     Atomic      Atomic             Coordinates (Angstroms)
 Number     Number       Type             X           Y           Z
 ---------------------------------------------------------------------
      1          6           0       -1.825353    2.489762   -0.722753
      2          6           0       -0.831764    1.518832   -0.885843
      3          6           0       -1.115884    0.168002   -0.664298
      4          6           0       -2.410086   -0.178071   -0.278859
      5          6           0       -3.421537    0.765903   -0.108067
      6          6           0       -3.114795    2.110867   -0.335069
      7          1           0       -1.595855    3.536841   -0.896974
      8          1           0        0.170512    1.810180   -1.186847
      9          1           0       -0.365664   -0.604296   -0.783232
     10          1           0       -4.411398    0.444843    0.192788
     11          1           0       -3.888418    2.862741   -0.207644
     12          7           0       -2.722846   -1.605029   -0.041430
     13          8           0       -3.870856   -1.884060    0.297468
     14          8           0       -1.814055   -2.417429   -0.198728
     15          6           0        3.316743   -0.657573   -1.937495
     16          6           0        3.227304    0.683290   -1.549413
     17          6           0        2.698126    1.027634   -0.302038
     18          6           0        2.265904    0.000942    0.536042
     19          6           0        2.341822   -1.344180    0.178026
     20          6           0        2.874497   -1.665252   -1.074059
     21          1           0        3.729180   -0.916029   -2.908316
     22          1           0        3.569983    1.467967   -2.217917
     23          1           0        2.617245    2.057580    0.023675
     24          1           0        1.992037   -2.104245    0.866045
     25          1           0        2.942736   -2.707434   -1.372800
     26          7           0        1.703836    0.353165    1.859075
     27          8           0        1.329959   -0.570044    2.579171
     28          8           0        1.647807    1.545777    2.150921
 ---------------------------------------------------------------------

 SCF Done:  E(RHF) =  -868.336472277     A.U. after   16 cycles
 E2 =    -0.2604986050D+01 EUMP2 =    -0.87094145832722D+03

 The electronic state is 1-A.
 Alpha  occ. eigenvalues --  -20.61190 -20.61154 -20.60531 -20.60510 -15.86224
 Alpha  occ. eigenvalues --  -15.85574 -11.31808 -11.30850 -11.28458 -11.28264
 Alpha  occ. eigenvalues --  -11.28123 -11.27512 -11.27408 -11.27369 -11.27347
 Alpha  occ. eigenvalues --  -11.27151 -11.26421 -11.26383  -1.60240  -1.59589
 Alpha  occ. eigenvalues --   -1.39786  -1.39150  -1.20051  -1.19012  -1.09352
 Alpha  occ. eigenvalues --   -1.08429  -1.05450  -1.04426  -0.96149  -0.95284
 Alpha  occ. eigenvalues --   -0.86811  -0.85822  -0.82958  -0.82140  -0.77986
 Alpha  occ. eigenvalues --   -0.77208  -0.72435  -0.71823  -0.71590  -0.71053
 Alpha  occ. eigenvalues --   -0.70891  -0.70144  -0.65633  -0.65383  -0.64685
 Alpha  occ. eigenvalues --   -0.64469  -0.62733  -0.61862  -0.55861  -0.55024
 Alpha  occ. eigenvalues --   -0.53629  -0.53464  -0.52711  -0.52565  -0.49222
 Alpha  occ. eigenvalues --   -0.49179  -0.48562  -0.48543  -0.45134  -0.44576
 Alpha  occ. eigenvalues --   -0.38081  -0.37085  -0.36930  -0.35915
 Alpha virt. eigenvalues --    0.04414   0.05392   0.10332   0.11822   0.15900
 Alpha virt. eigenvalues --    0.16883   0.20729   0.21996   0.26403   0.27510
 Alpha virt. eigenvalues --    0.28340   0.28679   0.30556   0.31393   0.32047

 Mulliken charges:
               1
     1  C   -0.167666
     2  C   -0.218894
     3  C   -0.181676
     4  C    0.161345
     5  C   -0.169597
     6  C   -0.217650
     7  H    0.224117
     8  H    0.220665
     9  H    0.277527
    10  H    0.275092
    11  H    0.222863
    12  N    0.489242
    13  O   -0.459709
    14  O   -0.465288
    15  C   -0.171547
    16  C   -0.220225
    17  C   -0.186594
    18  C    0.159731
    19  C   -0.177174
    20  C   -0.217083
    21  H    0.229321
    22  H    0.224548
    23  H    0.274676
    24  H    0.286922
    25  H    0.231630
    26  N    0.490398
    27  O   -0.452875
    28  O   -0.462098
 Sum of Mulliken charges =  -0.00000

 Dipole moment (field-independent basis, Debye):
    X=              3.2222    Y=              3.5608    Z=             -5.3425  Tot=              7.1836
 Quadrupole moment (field-independent basis, Debye-Ang):
   XX=            -96.8296   YY=           -101.9888   ZZ=           -110.1606
   XY=            -16.5294   XZ=             -9.5213   YZ=             -2.6397

 Normal termination of Gaussian 16 at Fri May  7 07:58:34 2021.
