 Gaussian 16, Revision A.03,
 Gaussian 16:  EM64L-G16RevA.03 25-Dec-2016

 -------------
 #p 6-31g* mp2
 -------------

 ------------------------------------------------------
 Input file generated by CHIRIPA (05-May-2021 14:57:21)
 ------------------------------------------------------
 Symbolic Z-matrix:
 Charge =  0 Multiplicity = 1

                         Standard orientation:
 ---------------------------------------------------------------------
 Center     Atomic      Atomic             Coordinates (Angstroms)
 Number     Number       Type             X           Y           Z
 ---------------------------------------------------------------------
      1          6           0        2.055991    2.058151   -0.733204
      2          6           0        3.402029    2.328683   -0.465778
      3          6           0        4.290494    1.289714   -0.172994
      4          6           0        3.796728   -0.013819   -0.156090
      5          6           0        2.461219   -0.315439   -0.418254
      6          6           0        1.590702    0.739279   -0.708632
      7          1           0        1.372782    2.871364   -0.959711
      8          1           0        3.766170    3.351966   -0.484160
      9          1           0        5.337475    1.470842    0.037815
     10          1           0        2.127644   -1.345722   -0.392544
     11          1           0        0.545868    0.526214   -0.915922
     12          7           0        4.727806   -1.122065    0.152594
     13          8           0        4.267960   -2.261848    0.161250
     14          8           0        5.899799   -0.829941    0.380039
     15          6           0       -1.350719   -0.181573    1.260505
     16          6           0       -1.605213   -0.962729    0.128450
     17          6           0       -2.871704   -0.963446   -0.463622
     18          6           0       -3.864911   -0.167601    0.105113
     19          6           0       -3.642366    0.621487    1.232545
     20          6           0       -2.368314    0.606652    1.807974
     21          1           0       -0.363942   -0.187057    1.713977
     22          1           0       -0.816845   -1.575848   -0.298874
     23          1           0       -3.096089   -1.558659   -1.340429
     24          1           0       -4.448372    1.222426    1.635837
     25          1           0       -2.173539    1.214308    2.687101
     26          7           0       -5.209691   -0.160128   -0.512878
     27          8           0       -6.067721    0.549664    0.007331
     28          8           0       -5.380236   -0.864205   -1.505767
 ---------------------------------------------------------------------

 SCF Done:  E(RHF) =  -868.336501255     A.U. after   16 cycles
 E2 =    -0.2601856241D+01 EUMP2 =    -0.87093835749567D+03

 The electronic state is 1-A.
 Alpha  occ. eigenvalues --  -20.61445 -20.61433 -20.61350 -20.61345 -15.86497
 Alpha  occ. eigenvalues --  -15.86413 -11.31967 -11.31924 -11.28595 -11.28579
 Alpha  occ. eigenvalues --  -11.28524 -11.28472 -11.28275 -11.28195 -11.27626
 Alpha  occ. eigenvalues --  -11.27503 -11.27493 -11.27458  -1.60515  -1.60425
 Alpha  occ. eigenvalues --   -1.40067  -1.39973  -1.20163  -1.20108  -1.09542
 Alpha  occ. eigenvalues --   -1.09448  -1.05626  -1.05501  -0.96312  -0.96300
 Alpha  occ. eigenvalues --   -0.87045  -0.86849  -0.83154  -0.83125  -0.78277
 Alpha  occ. eigenvalues --   -0.78084  -0.72709  -0.72626  -0.71843  -0.71754
 Alpha  occ. eigenvalues --   -0.71244  -0.71165  -0.65909  -0.65764  -0.65670
 Alpha  occ. eigenvalues --   -0.65363  -0.63090  -0.62670  -0.56043  -0.55984
 Alpha  occ. eigenvalues --   -0.54148  -0.53829  -0.53653  -0.53354  -0.49476
 Alpha  occ. eigenvalues --   -0.49462  -0.49396  -0.49370  -0.45452  -0.45346
 Alpha  occ. eigenvalues --   -0.38286  -0.37963  -0.37209  -0.37065
 Alpha virt. eigenvalues --    0.04268   0.04428   0.10219   0.10542   0.15569
 Alpha virt. eigenvalues --    0.16020   0.19111   0.21674   0.24604   0.27439
 Alpha virt. eigenvalues --    0.27642   0.28753   0.30607   0.30855   0.31385

 Mulliken charges:
               1
     1  C   -0.173707
     2  C   -0.217984
     3  C   -0.170716
     4  C    0.160428
     5  C   -0.181387
     6  C   -0.226695
     7  H    0.229571
     8  H    0.226299
     9  H    0.277892
    10  H    0.270407
    11  H    0.232510
    12  N    0.488164
    13  O   -0.461042
    14  O   -0.457561
    15  C   -0.171948
    16  C   -0.232122
    17  C   -0.170736
    18  C    0.158023
    19  C   -0.169393
    20  C   -0.220052
    21  H    0.232614
    22  H    0.223041
    23  H    0.278739
    24  H    0.278179
    25  H    0.226565
    26  N    0.488046
    27  O   -0.458580
    28  O   -0.458555
 Sum of Mulliken charges =  -0.00000

 Dipole moment (field-independent basis, Debye):
    X=              1.3722    Y=              4.0267    Z=              1.1493  Tot=              4.4066
 Quadrupole moment (field-independent basis, Debye-Ang):
   XX=           -162.5565   YY=           -101.2057   ZZ=           -102.5649
   XY=             16.2235   XZ=            -12.5848   YZ=              1.9892

 Normal termination of Gaussian 16 at Thu May  6 14:29:52 2021.
