 Gaussian 16, Revision A.03,
 Gaussian 16:  EM64L-G16RevA.03 25-Dec-2016

 -------------
 #p 6-31g* mp2
 -------------

 ------------------------------------------------------
 Input file generated by CHIRIPA (05-May-2021 14:55:19)
 ------------------------------------------------------
 Symbolic Z-matrix:
 Charge =  0 Multiplicity = 1

                         Standard orientation:
 ---------------------------------------------------------------------
 Center     Atomic      Atomic             Coordinates (Angstroms)
 Number     Number       Type             X           Y           Z
 ---------------------------------------------------------------------
      1          6           0       -2.769803    1.383299   -1.297388
      2          6           0       -2.674599    0.093642   -1.830531
      3          6           0       -2.166365   -0.957061   -1.060942
      4          6           0       -1.760737   -0.681261    0.243931
      5          6           0       -1.843050    0.592870    0.803488
      6          6           0       -2.354457    1.628365    0.015605
      7          1           0       -3.165844    2.193604   -1.902330
      8          1           0       -2.996405   -0.099605   -2.849914
      9          1           0       -2.081595   -1.964988   -1.448646
     10          1           0       -1.514274    0.754678    1.822872
     11          1           0       -2.427234    2.628932    0.432275
     12          7           0       -1.221013   -1.785544    1.068344
     13          8           0       -0.870395   -1.516535    2.215226
     14          8           0       -1.158814   -2.899180    0.552027
     15          6           0        2.306688    1.212000    0.363141
     16          6           0        1.395070    2.342403   -0.115530
     17          6           0        1.283292    3.481278    0.898504
     18          1           0        1.925074    0.820326    1.315983
     19          1           0        3.306053    1.619101    0.570344
     20          1           0        0.398099    1.933034   -0.323089
     21          1           0        1.778790    2.731302   -1.067440
     22          1           0        2.267588    3.916780    1.098754
     23          1           0        0.879052    3.113976    1.847335
     24          1           0        0.626923    4.278565    0.536047
     25          6           0        2.428519    0.066112   -0.639767
     26          6           0        3.340137   -1.064291   -0.161097
     27          6           0        3.451916   -2.203167   -1.175130
     28          1           0        1.429154   -0.340990   -0.846970
     29          1           0        2.810133    0.457785   -1.592609
     30          1           0        2.956417   -1.453191    0.790813
     31          1           0        4.337109   -0.654923    0.046462
     32          1           0        3.856156   -1.835865   -2.123961
     33          1           0        2.467620   -2.638668   -1.375381
     34          1           0        4.108284   -3.000453   -0.812673
 ---------------------------------------------------------------------

 SCF Done:  E(RHF) =  -669.534739227     A.U. after   15 cycles
 E2 =    -0.2095107487D+01 EUMP2 =    -0.67162984671445D+03

 The electronic state is 1-A.
 Alpha  occ. eigenvalues --  -20.60941 -20.60936 -15.85990 -11.31359 -11.27915
 Alpha  occ. eigenvalues --  -11.27894 -11.27635 -11.26922 -11.26889 -11.21495
 Alpha  occ. eigenvalues --  -11.21365 -11.21211 -11.21159 -11.21105 -11.20592
 Alpha  occ. eigenvalues --   -1.60012  -1.39565  -1.19537  -1.08919  -1.08237
 Alpha  occ. eigenvalues --   -1.04938  -1.03352  -0.95836  -0.95752  -0.86852
 Alpha  occ. eigenvalues --   -0.86317  -0.82581  -0.79426  -0.78026  -0.77631
 Alpha  occ. eigenvalues --   -0.72202  -0.71343  -0.70616  -0.65180  -0.64913
 Alpha  occ. eigenvalues --   -0.64892  -0.62270  -0.60782  -0.59243  -0.57429
 Alpha  occ. eigenvalues --   -0.55409  -0.55132  -0.53337  -0.53002  -0.52518
 Alpha  occ. eigenvalues --   -0.52259  -0.49781  -0.48963  -0.48959  -0.47735
 Alpha  occ. eigenvalues --   -0.46443  -0.45553  -0.45453  -0.44946  -0.43601
 Alpha  occ. eigenvalues --   -0.37493  -0.36402
 Alpha virt. eigenvalues --    0.04883   0.11037   0.16344   0.20600   0.22913
 Alpha virt. eigenvalues --    0.24181   0.26331   0.26983   0.27381   0.28216
 Alpha virt. eigenvalues --    0.29101   0.30368   0.31338   0.31803   0.32360

 Mulliken charges:
               1
     1  C   -0.169500
     2  C   -0.217518
     3  C   -0.172262
     4  C    0.162172
     5  C   -0.173156
     6  C   -0.219678
     7  H    0.226736
     8  H    0.224470
     9  H    0.276318
    10  H    0.276572
    11  H    0.226339
    12  N    0.488232
    13  O   -0.460559
    14  O   -0.459837
    15  C   -0.300384
    16  C   -0.309763
    17  C   -0.476076
    18  H    0.154715
    19  H    0.149238
    20  H    0.161416
    21  H    0.149505
    22  H    0.158731
    23  H    0.151279
    24  H    0.153267
    25  C   -0.298860
    26  C   -0.301660
    27  C   -0.476177
    28  H    0.146438
    29  H    0.147129
    30  H    0.161451
    31  H    0.149865
    32  H    0.150869
    33  H    0.159248
    34  H    0.161438
 Sum of Mulliken charges =  -0.00000

 Dipole moment (field-independent basis, Debye):
    X=             -2.0265    Y=              3.7481    Z=             -2.8737  Tot=              5.1393
 Quadrupole moment (field-independent basis, Debye-Ang):
   XX=            -87.9895   YY=            -99.3489   ZZ=            -93.8110
   XY=             -4.9280   XZ=              5.4302   YZ=              4.8261

 Normal termination of Gaussian 16 at Thu May  6 09:13:25 2021.
