 Gaussian 16, Revision A.03,
 Gaussian 16:  EM64L-G16RevA.03 25-Dec-2016

 -------------
 #p 6-31g* mp2
 -------------

 ------------------------------------------------------
 Input file generated by CHIRIPA (05-May-2021 14:51:11)
 ------------------------------------------------------
 Symbolic Z-matrix:
 Charge =  0 Multiplicity = 1

                         Standard orientation:
 ---------------------------------------------------------------------
 Center     Atomic      Atomic             Coordinates (Angstroms)
 Number     Number       Type             X           Y           Z
 ---------------------------------------------------------------------
      1          6           0       -4.412094    0.530436    0.248994
      2          6           0       -3.154766    0.649698   -0.612916
      3          6           0       -2.086211    1.541197    0.020499
      4          1           0       -4.825577    1.533143    0.423793
      5          1           0       -4.136117    0.130005    1.234330
      6          1           0       -3.433235    1.048485   -1.596806
      7          1           0       -2.744336   -0.353427   -0.785843
      8          1           0       -1.779891    1.143477    0.993427
      9          1           0       -2.472705    2.553354    0.177856
     10          1           0       -1.196113    1.612506   -0.612351
     11          6           0       -5.489530   -0.357599   -0.370888
     12          6           0       -6.746857   -0.476861    0.491022
     13          6           0       -7.815412   -1.368360   -0.142393
     14          1           0       -5.765507    0.042831   -1.356224
     15          1           0       -5.076046   -1.360306   -0.545687
     16          1           0       -7.157288    0.526264    0.663949
     17          1           0       -6.468388   -0.875648    1.474912
     18          1           0       -7.428919   -2.380517   -0.299750
     19          1           0       -8.121732   -0.970640   -1.115321
     20          1           0       -8.705511   -1.439669    0.490458
     21          6           0        5.615198   -0.035817   -0.312500
     22          6           0        6.754250   -0.792910    0.371134
     23          6           0        8.076908   -0.682249   -0.387892
     24          1           0        5.487358   -0.421943   -1.333043
     25          1           0        5.894877    1.022200   -0.411361
     26          1           0        6.471932   -1.848919    0.469923
     27          1           0        6.879265   -0.405067    1.390235
     28          1           0        8.385005    0.364745   -0.474386
     29          1           0        7.975358   -1.087310   -1.399927
     30          1           0        8.877387   -1.230737    0.118322
     31          6           0        4.286426   -0.137021    0.434394
     32          6           0        3.147375    0.620073   -0.249240
     33          6           0        1.824715    0.509412    0.509786
     34          1           0        4.006746   -1.195038    0.533255
     35          1           0        4.414265    0.249106    1.454937
     36          1           0        3.022359    0.232230   -1.268340
     37          1           0        3.429692    1.676082   -0.348029
     38          1           0        1.926266    0.914472    1.521821
     39          1           0        1.516618   -0.537582    0.596280
     40          1           0        1.024236    1.057901    0.003572
 ---------------------------------------------------------------------

 SCF Done:  E(RHF) =  -470.733064561     A.U. after   11 cycles
 E2 =    -0.1582207779D+01 EUMP2 =    -0.47231527234041D+03

 The electronic state is 1-A.
 Alpha  occ. eigenvalues --  -11.21594 -11.21585 -11.21585 -11.21556 -11.21394
 Alpha  occ. eigenvalues --  -11.21377 -11.21335 -11.21317 -11.21065 -11.21058
 Alpha  occ. eigenvalues --  -11.21040 -11.20966  -1.08420  -1.08399  -1.03530
 Alpha  occ. eigenvalues --   -1.03483  -0.96009  -0.95904  -0.87060  -0.86889
 Alpha  occ. eigenvalues --   -0.79627  -0.79512  -0.78232  -0.78213  -0.65048
 Alpha  occ. eigenvalues --   -0.65030  -0.60920  -0.60888  -0.59601  -0.59119
 Alpha  occ. eigenvalues --   -0.57681  -0.57447  -0.55259  -0.55223  -0.53007
 Alpha  occ. eigenvalues --   -0.52435  -0.52420  -0.52182  -0.49899  -0.49879
 Alpha  occ. eigenvalues --   -0.47948  -0.47822  -0.46611  -0.46593  -0.45775
 Alpha  occ. eigenvalues --   -0.45753  -0.45697  -0.45682  -0.43960  -0.43525
 Alpha virt. eigenvalues --    0.22366   0.22984   0.23551   0.24853   0.26620
 Alpha virt. eigenvalues --    0.26679   0.26961   0.27427   0.27574   0.28853
 Alpha virt. eigenvalues --    0.29803   0.31302   0.31435   0.31866   0.32062

 Mulliken charges:
               1
     1  C   -0.298660
     2  C   -0.299460
     3  C   -0.479050
     4  H    0.149614
     5  H    0.149710
     6  H    0.151642
     7  H    0.152237
     8  H    0.157378
     9  H    0.154883
    10  H    0.162631
    11  C   -0.298265
    12  C   -0.299639
    13  C   -0.475694
    14  H    0.149475
    15  H    0.149635
    16  H    0.151927
    17  H    0.151956
    18  H    0.155160
    19  H    0.155157
    20  H    0.160234
    21  C   -0.298187
    22  C   -0.299599
    23  C   -0.475680
    24  H    0.149535
    25  H    0.149475
    26  H    0.151851
    27  H    0.151909
    28  H    0.155164
    29  H    0.155135
    30  H    0.160183
    31  C   -0.298419
    32  C   -0.299436
    33  C   -0.481287
    34  H    0.149321
    35  H    0.149579
    36  H    0.151440
    37  H    0.151706
    38  H    0.154744
    39  H    0.154222
    40  H    0.167473
 Sum of Mulliken charges =  -0.00000

 Dipole moment (field-independent basis, Debye):
    X=             -0.0284    Y=              0.0104    Z=              0.0052  Tot=              0.0306
 Quadrupole moment (field-independent basis, Debye-Ang):
   XX=            -86.5531   YY=            -83.7778   ZZ=            -84.5836
   XY=             -0.6394   XZ=              0.4646   YZ=             -0.1317

 Normal termination of Gaussian 16 at Wed May  5 18:14:30 2021.
