 Gaussian 16, Revision A.03,
 Gaussian 16:  EM64L-G16RevA.03 25-Dec-2016

 -------------
 #p 6-31g* mp2
 -------------

 ------------------------------------------------------
 Input file generated by CHIRIPA (05-May-2021 14:57:26)
 ------------------------------------------------------
 Symbolic Z-matrix:
 Charge =  0 Multiplicity = 1

                         Standard orientation:
 ---------------------------------------------------------------------
 Center     Atomic      Atomic             Coordinates (Angstroms)
 Number     Number       Type             X           Y           Z
 ---------------------------------------------------------------------
      1          6           0        2.120419   -1.704493    0.871789
      2          6           0        3.406858   -1.734068    1.420168
      3          6           0        4.387699   -0.841126    0.978409
      4          6           0        4.046079    0.072265   -0.017735
      5          6           0        2.773293    0.126493   -0.583744
      6          6           0        1.808292   -0.775944   -0.126657
      7          1           0        1.364630   -2.401840    1.220912
      8          1           0        3.652093   -2.454106    2.195701
      9          1           0        5.391494   -0.842173    1.385611
     10          1           0        2.558693    0.855709   -1.355501
     11          1           0        0.810052   -0.750685   -0.554352
     12          7           0        5.076067    1.022609   -0.493520
     13          8           0        4.749887    1.817642   -1.372249
     14          8           0        6.190048    0.954460    0.021298
     15          6           0       -4.557832    2.373828    0.751614
     16          6           0       -5.534127    1.417378    0.454001
     17          6           0       -5.168062    0.145636    0.003205
     18          6           0       -3.810438   -0.136973   -0.139209
     19          6           0       -2.814223    0.794530    0.149139
     20          6           0       -3.203384    2.059904    0.598504
     21          1           0       -4.851172    3.359274    1.101248
     22          1           0       -6.586763    1.658385    0.571971
     23          1           0       -5.903133   -0.613725   -0.234407
     24          1           0       -1.772848    0.524889    0.021665
     25          1           0       -2.443007    2.800714    0.828879
     26          7           0       -3.410676   -1.479939   -0.615689
     27          8           0       -2.207901   -1.704104   -0.732818
     28          8           0       -4.307686   -2.282962   -0.863002
 ---------------------------------------------------------------------

 SCF Done:  E(RHF) =  -868.339571518     A.U. after   16 cycles
 E2 =    -0.2598784500D+01 EUMP2 =    -0.87093835601764D+03

 The electronic state is 1-A.
 Alpha  occ. eigenvalues --  -20.61728 -20.61668 -20.60580 -20.60574 -15.86741
 Alpha  occ. eigenvalues --  -15.85629 -11.31900 -11.30894 -11.28496 -11.28401
 Alpha  occ. eigenvalues --  -11.28099 -11.27459 -11.27442 -11.27397 -11.27369
 Alpha  occ. eigenvalues --  -11.27071 -11.26423 -11.26319  -1.60758  -1.59658
 Alpha  occ. eigenvalues --   -1.40325  -1.39215  -1.20041  -1.19041  -1.09464
 Alpha  occ. eigenvalues --   -1.08431  -1.05416  -1.04429  -0.96341  -0.95291
 Alpha  occ. eigenvalues --   -0.86823  -0.85809  -0.83187  -0.82131  -0.78273
 Alpha  occ. eigenvalues --   -0.77208  -0.72973  -0.72065  -0.71847  -0.71146
 Alpha  occ. eigenvalues --   -0.70982  -0.70098  -0.65699  -0.65413  -0.64678
 Alpha  occ. eigenvalues --   -0.64385  -0.62780  -0.61764  -0.55901  -0.54853
 Alpha  occ. eigenvalues --   -0.53748  -0.53508  -0.52768  -0.52486  -0.49733
 Alpha  occ. eigenvalues --   -0.49679  -0.48611  -0.48592  -0.45774  -0.44643
 Alpha  occ. eigenvalues --   -0.37991  -0.37008  -0.36988  -0.36051
 Alpha virt. eigenvalues --    0.04265   0.05315   0.10650   0.11570   0.15816
 Alpha virt. eigenvalues --    0.16815   0.19737   0.21943   0.25129   0.27131
 Alpha virt. eigenvalues --    0.28626   0.28898   0.30152   0.31081   0.32372

 Mulliken charges:
               1
     1  C   -0.172429
     2  C   -0.219075
     3  C   -0.171804
     4  C    0.158404
     5  C   -0.173483
     6  C   -0.231620
     7  H    0.232939
     8  H    0.222820
     9  H    0.274318
    10  H    0.273038
    11  H    0.241039
    12  N    0.488126
    13  O   -0.462185
    14  O   -0.461261
    15  C   -0.169809
    16  C   -0.218286
    17  C   -0.170184
    18  C    0.158208
    19  C   -0.170833
    20  C   -0.219216
    21  H    0.228693
    22  H    0.225999
    23  H    0.276955
    24  H    0.270293
    25  H    0.226772
    26  N    0.491949
    27  O   -0.474625
    28  O   -0.454743
 Sum of Mulliken charges =  -0.00000

 Dipole moment (field-independent basis, Debye):
    X=             -5.4471    Y=              1.3670    Z=              3.4090  Tot=              6.5696
 Quadrupole moment (field-independent basis, Debye-Ang):
   XX=           -116.3026   YY=           -106.2167   ZZ=           -104.6514
   XY=            -32.4510   XZ=              3.3084   YZ=             -1.9756

 Normal termination of Gaussian 16 at Fri May  7 05:03:01 2021.
