 Gaussian 16, Revision A.03,
 Gaussian 16:  EM64L-G16RevA.03 25-Dec-2016

 -------------
 #p 6-31g* mp2
 -------------

 ------------------------------------------------------
 Input file generated by CHIRIPA (05-May-2021 14:53:18)
 ------------------------------------------------------
 Symbolic Z-matrix:
 Charge =  0 Multiplicity = 1

                         Standard orientation:
 ---------------------------------------------------------------------
 Center     Atomic      Atomic             Coordinates (Angstroms)
 Number     Number       Type             X           Y           Z
 ---------------------------------------------------------------------
      1          6           0        5.305475   -0.334106   -0.015466
      2          6           0        6.301761    0.805105    0.202698
      3          6           0        7.707740    0.463640   -0.291690
      4          1           0        5.668461   -1.233878    0.499895
      5          1           0        5.269116   -0.580162   -1.085760
      6          1           0        6.335203    1.049870    1.272085
      7          1           0        5.936266    1.702323   -0.313082
      8          1           0        7.695519    0.239891   -1.363319
      9          1           0        8.096723   -0.416269    0.230855
     10          1           0        8.403754    1.291866   -0.125958
     11          6           0        3.895507   -0.007826    0.473677
     12          6           0        2.899221   -1.147037    0.255513
     13          6           0        1.493242   -0.805572    0.749901
     14          1           0        3.931867    0.238230    1.543971
     15          1           0        3.532521    0.891947   -0.041684
     16          1           0        3.264717   -2.044255    0.771293
     17          1           0        2.865779   -1.391802   -0.813874
     18          1           0        1.104259    0.074337    0.227357
     19          1           0        1.505464   -0.581823    1.821530
     20          1           0        0.797229   -1.633798    0.584170
     21          6           0       -5.996266    0.016398    0.583873
     22          6           0       -5.326489    1.244247    0.566309
     23          6           0       -3.995471    1.321013    0.145543
     24          6           0       -3.361905    0.144894   -0.252740
     25          6           0       -4.002200   -1.093359   -0.246472
     26          6           0       -5.333152   -1.146436    0.178141
     27          1           0       -7.030207   -0.034034    0.912229
     28          1           0       -5.838964    2.148944    0.880854
     29          1           0       -3.453111    2.258410    0.122035
     30          1           0       -3.464919   -1.978094   -0.565834
     31          1           0       -5.850810   -2.101379    0.190742
     32          7           0       -1.952849    0.213624   -0.700223
     33          8           0       -1.416983   -0.836985   -1.046207
     34          8           0       -1.410980    1.316801   -0.696502
 ---------------------------------------------------------------------

 SCF Done:  E(RHF) =  -669.536044360     A.U. after   15 cycles
 E2 =    -0.2091915322D+01 EUMP2 =    -0.67162795968176D+03

 The electronic state is 1-A.
 Alpha  occ. eigenvalues --  -20.60989 -20.60981 -15.85985 -11.31306 -11.27864
 Alpha  occ. eigenvalues --  -11.27860 -11.27599 -11.26868 -11.26858 -11.20860
 Alpha  occ. eigenvalues --  -11.20478 -11.20460 -11.20245 -11.20178 -11.19136
 Alpha  occ. eigenvalues --   -1.60025  -1.39585  -1.19469  -1.08876  -1.07383
 Alpha  occ. eigenvalues --   -1.04863  -1.02393  -0.95727  -0.94818  -0.86265
 Alpha  occ. eigenvalues --   -0.85843  -0.82558  -0.78514  -0.77614  -0.77157
 Alpha  occ. eigenvalues --   -0.72217  -0.71331  -0.70580  -0.65126  -0.64869
 Alpha  occ. eigenvalues --   -0.64020  -0.62211  -0.59790  -0.58270  -0.56423
 Alpha  occ. eigenvalues --   -0.55378  -0.54118  -0.53195  -0.52956  -0.51525
 Alpha  occ. eigenvalues --   -0.51262  -0.49249  -0.48977  -0.48461  -0.46804
 Alpha  occ. eigenvalues --   -0.45529  -0.44990  -0.44682  -0.44575  -0.42611
 Alpha  occ. eigenvalues --   -0.37442  -0.36463
 Alpha virt. eigenvalues --    0.04890   0.11192   0.16375   0.21323   0.23856
 Alpha virt. eigenvalues --    0.25584   0.27244   0.27669   0.28178   0.28489
 Alpha virt. eigenvalues --    0.29358   0.30901   0.32351   0.32571   0.32718

 Mulliken charges:
               1
     1  C   -0.297463
     2  C   -0.298920
     3  C   -0.475115
     4  H    0.146936
     5  H    0.149110
     6  H    0.150191
     7  H    0.152028
     8  H    0.154652
     9  H    0.153753
    10  H    0.157981
    11  C   -0.298056
    12  C   -0.299238
    13  C   -0.481339
    14  H    0.145626
    15  H    0.152697
    16  H    0.144169
    17  H    0.153670
    18  H    0.176540
    19  H    0.140669
    20  H    0.164750
    21  C   -0.170542
    22  C   -0.218581
    23  C   -0.170654
    24  C    0.160268
    25  C   -0.170769
    26  C   -0.218572
    27  H    0.226028
    28  H    0.223866
    29  H    0.275881
    30  H    0.275630
    31  H    0.223854
    32  N    0.488737
    33  O   -0.457240
    34  O   -0.460546
 Sum of Mulliken charges =  -0.00000

 Dipole moment (field-independent basis, Debye):
    X=             -5.3729    Y=             -0.1896    Z=              1.4268  Tot=              5.5624
 Quadrupole moment (field-independent basis, Debye-Ang):
   XX=            -64.3577   YY=            -89.9238   ZZ=            -95.8136
   XY=              0.3142   XZ=             -4.0099   YZ=              0.9675

 Normal termination of Gaussian 16 at Thu May  6 07:37:13 2021.
