 Gaussian 16, Revision A.03,
 Gaussian 16:  EM64L-G16RevA.03 25-Dec-2016

 -------------
 #p 6-31g* mp2
 -------------

 ------------------------------------------------------
 Input file generated by CHIRIPA (05-May-2021 14:53:12)
 ------------------------------------------------------
 Symbolic Z-matrix:
 Charge =  0 Multiplicity = 1

                         Standard orientation:
 ---------------------------------------------------------------------
 Center     Atomic      Atomic             Coordinates (Angstroms)
 Number     Number       Type             X           Y           Z
 ---------------------------------------------------------------------
      1          6           0       -3.279439    0.620854   -0.627044
      2          6           0       -3.526150    2.068477   -0.201010
      3          6           0       -2.723443    3.073109   -1.028157
      4          1           0       -2.207477    0.397038   -0.539011
      5          1           0       -3.535645    0.510004   -1.689807
      6          1           0       -3.270867    2.176235    0.860986
      7          1           0       -4.597676    2.288814   -0.289885
      8          1           0       -2.984252    2.994743   -2.088552
      9          1           0       -1.649904    2.881524   -0.931142
     10          1           0       -2.914906    4.101669   -0.706809
     11          6           0       -4.074886   -0.395233    0.190612
     12          6           0       -3.828175   -1.842856   -0.235422
     13          6           0       -4.630882   -2.847487    0.591724
     14          1           0       -3.818680   -0.284383    1.253375
     15          1           0       -5.146847   -0.171417    0.102579
     16          1           0       -2.756648   -2.063193   -0.146547
     17          1           0       -4.083458   -1.950614   -1.297418
     18          1           0       -5.704420   -2.655903    0.494710
     19          1           0       -4.370073   -2.769122    1.652120
     20          1           0       -4.439419   -3.876048    0.270377
     21          6           0        0.642138    0.506920    1.188350
     22          6           0        0.709250   -0.417320    0.140593
     23          6           0        1.939749   -0.754553   -0.430978
     24          6           0        3.088433   -0.145660    0.072077
     25          6           0        3.054197    0.778791    1.114913
     26          6           0        1.812763    1.100979    1.671315
     27          1           0       -0.317990    0.763047    1.626469
     28          1           0       -0.198241   -0.880248   -0.236506
     29          1           0        2.020495   -1.466885   -1.243062
     30          1           0        3.976017    1.223676    1.469515
     31          1           0        1.763660    1.819090    2.484919
     32          7           0        4.396896   -0.494710   -0.524989
     33          8           0        5.394377    0.055726   -0.063807
     34          8           0        4.400213   -1.312123   -1.442847
 ---------------------------------------------------------------------

 SCF Done:  E(RHF) =  -669.535322168     A.U. after   15 cycles
 E2 =    -0.2092379161D+01 EUMP2 =    -0.67162770132883D+03

 The electronic state is 1-A.
 Alpha  occ. eigenvalues --  -20.60772 -20.60767 -15.85826 -11.31207 -11.27775
 Alpha  occ. eigenvalues --  -11.27767 -11.27525 -11.26794 -11.26769 -11.22605
 Alpha  occ. eigenvalues --  -11.22555 -11.22460 -11.22372 -11.21843 -11.21818
 Alpha  occ. eigenvalues --   -1.59847  -1.39400  -1.19380  -1.09439  -1.08773
 Alpha  occ. eigenvalues --   -1.04783  -1.04432  -0.96860  -0.95606  -0.87869
 Alpha  occ. eigenvalues --   -0.86189  -0.82435  -0.80502  -0.79271  -0.77478
 Alpha  occ. eigenvalues --   -0.72045  -0.71170  -0.70498  -0.66170  -0.65028
 Alpha  occ. eigenvalues --   -0.64734  -0.62131  -0.61839  -0.60225  -0.58471
 Alpha  occ. eigenvalues --   -0.56148  -0.55284  -0.53521  -0.53281  -0.53109
 Alpha  occ. eigenvalues --   -0.52878  -0.50801  -0.48811  -0.48806  -0.48796
 Alpha  occ. eigenvalues --   -0.47562  -0.46759  -0.46716  -0.44802  -0.44710
 Alpha  occ. eigenvalues --   -0.37355  -0.36378
 Alpha virt. eigenvalues --    0.05041   0.11155   0.16489   0.18249   0.22344
 Alpha virt. eigenvalues --    0.23238   0.24635   0.25509   0.27021   0.28309
 Alpha virt. eigenvalues --    0.29467   0.30749   0.30907   0.31296   0.32395

 Mulliken charges:
               1
     1  C   -0.304852
     2  C   -0.299816
     3  C   -0.477468
     4  H    0.143669
     5  H    0.154854
     6  H    0.146804
     7  H    0.156323
     8  H    0.158483
     9  H    0.155949
    10  H    0.162681
    11  C   -0.298834
    12  C   -0.301940
    13  C   -0.476023
    14  H    0.146404
    15  H    0.154718
    16  H    0.145374
    17  H    0.155873
    18  H    0.158138
    19  H    0.155687
    20  H    0.163356
    21  C   -0.173549
    22  C   -0.224547
    23  C   -0.171871
    24  C    0.158873
    25  C   -0.170952
    26  C   -0.218662
    27  H    0.227032
    28  H    0.231173
    29  H    0.276261
    30  H    0.275746
    31  H    0.223651
    32  N    0.488002
    33  O   -0.460341
    34  O   -0.460196
 Sum of Mulliken charges =  -0.00000

 Dipole moment (field-independent basis, Debye):
    X=             -4.7971    Y=              1.2429    Z=              2.0390  Tot=              5.3585
 Quadrupole moment (field-independent basis, Debye-Ang):
   XX=           -121.3229   YY=            -94.0013   ZZ=            -92.6561
   XY=              5.7551   XZ=              8.8962   YZ=              2.4066

 Normal termination of Gaussian 16 at Thu May  6 17:00:03 2021.
