 Gaussian 16, Revision A.03,
 Gaussian 16:  EM64L-G16RevA.03 25-Dec-2016

 -------------
 #p 6-31g* mp2
 -------------

 ------------------------------------------------------
 Input file generated by CHIRIPA (05-May-2021 14:51:07)
 ------------------------------------------------------
 Symbolic Z-matrix:
 Charge =  0 Multiplicity = 1

                         Standard orientation:
 ---------------------------------------------------------------------
 Center     Atomic      Atomic             Coordinates (Angstroms)
 Number     Number       Type             X           Y           Z
 ---------------------------------------------------------------------
      1          6           0        2.810792    0.178608    0.308845
      2          6           0        2.299369    0.573660    1.694618
      3          6           0        0.857125    1.080734    1.670070
      4          1           0        2.736482    1.044626   -0.363044
      5          1           0        2.155132   -0.598063   -0.108631
      6          1           0        2.956603    1.348368    2.109933
      7          1           0        2.375084   -0.293346    2.363337
      8          1           0        0.184399    0.310061    1.280066
      9          1           0        0.769222    1.961102    1.025223
     10          1           0        0.511805    1.357558    2.671060
     11          6           0        4.251156   -0.330323    0.317053
     12          6           0        4.762579   -0.725375   -1.068720
     13          6           0        6.204823   -1.232450   -1.044172
     14          1           0        4.906817    0.446348    0.734529
     15          1           0        4.325466   -1.196342    0.988942
     16          1           0        4.686864    0.141630   -1.737439
     17          1           0        4.105345   -1.500083   -1.484035
     18          1           0        6.292726   -2.112818   -0.399325
     19          1           0        6.877549   -0.461776   -0.654168
     20          1           0        6.550143   -1.509274   -2.045162
     21          6           0       -3.084084    0.654363   -0.091473
     22          6           0       -2.901652    1.725799   -1.166986
     23          6           0       -2.005118    2.876552   -0.708959
     24          1           0       -3.510223    1.116904    0.809308
     25          1           0       -2.098934    0.261119    0.195292
     26          1           0       -3.886956    2.115926   -1.452629
     27          1           0       -2.476075    1.260618   -2.065377
     28          1           0       -1.009614    2.506849   -0.442702
     29          1           0       -2.428512    3.367017    0.173528
     30          1           0       -1.888281    3.631064   -1.493128
     31          6           0       -3.977865   -0.502648   -0.534425
     32          6           0       -4.160297   -1.574084    0.541088
     33          6           0       -5.056830   -2.724836    0.083061
     34          1           0       -4.963014   -0.109404   -0.821190
     35          1           0       -3.551725   -0.965188   -1.435206
     36          1           0       -4.585874   -1.108903    1.439479
     37          1           0       -3.174992   -1.964211    0.826731
     38          1           0       -4.633437   -3.215302   -0.799425
     39          1           0       -6.052334   -2.355133   -0.183196
     40          1           0       -5.173667   -3.479349    0.867230
 ---------------------------------------------------------------------

 SCF Done:  E(RHF) =  -470.732759374     A.U. after   11 cycles
 E2 =    -0.1583239857D+01 EUMP2 =    -0.47231599923021D+03

 The electronic state is 1-A.
 Alpha  occ. eigenvalues --  -11.21629 -11.21626 -11.21583 -11.21529 -11.21442
 Alpha  occ. eigenvalues --  -11.21381 -11.21351 -11.21278 -11.21092 -11.21090
 Alpha  occ. eigenvalues --  -11.21058 -11.20941  -1.08466  -1.08377  -1.03571
 Alpha  occ. eigenvalues --   -1.03468  -0.96022  -0.95919  -0.87047  -0.86932
 Alpha  occ. eigenvalues --   -0.79691  -0.79491  -0.78303  -0.78158  -0.65099
 Alpha  occ. eigenvalues --   -0.65014  -0.60982  -0.60879  -0.59379  -0.59295
 Alpha  occ. eigenvalues --   -0.57670  -0.57506  -0.55462  -0.55080  -0.52705
 Alpha  occ. eigenvalues --   -0.52621  -0.52528  -0.52299  -0.50122  -0.49688
 Alpha  occ. eigenvalues --   -0.48150  -0.47714  -0.46667  -0.46534  -0.45934
 Alpha  occ. eigenvalues --   -0.45741  -0.45699  -0.45431  -0.43814  -0.43731
 Alpha virt. eigenvalues --    0.21673   0.23029   0.23654   0.24708   0.25453
 Alpha virt. eigenvalues --    0.26108   0.27139   0.27597   0.27715   0.29340
 Alpha virt. eigenvalues --    0.30523   0.31269   0.31814   0.31906   0.32036

 Mulliken charges:
               1
     1  C   -0.298343
     2  C   -0.299666
     3  C   -0.482580
     4  H    0.149517
     5  H    0.148878
     6  H    0.152164
     7  H    0.151961
     8  H    0.158057
     9  H    0.159326
    10  H    0.161257
    11  C   -0.298248
    12  C   -0.299689
    13  C   -0.475733
    14  H    0.149731
    15  H    0.149746
    16  H    0.152036
    17  H    0.151823
    18  H    0.155210
    19  H    0.155270
    20  H    0.160325
    21  C   -0.303725
    22  C   -0.298980
    23  C   -0.481687
    24  H    0.149563
    25  H    0.155433
    26  H    0.151486
    27  H    0.151324
    28  H    0.162396
    29  H    0.154766
    30  H    0.159120
    31  C   -0.297999
    32  C   -0.299393
    33  C   -0.475650
    34  H    0.149470
    35  H    0.149256
    36  H    0.152068
    37  H    0.151109
    38  H    0.155044
    39  H    0.155245
    40  H    0.160110
 Sum of Mulliken charges =  -0.00000

 Dipole moment (field-independent basis, Debye):
    X=              0.0381    Y=              0.0061    Z=              0.0290  Tot=              0.0483
 Quadrupole moment (field-independent basis, Debye-Ang):
   XX=            -85.5469   YY=            -84.6472   ZZ=            -84.7056
   XY=             -0.2043   XZ=             -0.3633   YZ=             -0.1193

 Normal termination of Gaussian 16 at Wed May  5 15:01:17 2021.
