 Gaussian 16, Revision A.03,
 Gaussian 16:  EM64L-G16RevA.03 25-Dec-2016

 -------------
 #p 6-31g* mp2
 -------------

 ------------------------------------------------------
 Input file generated by CHIRIPA (05-May-2021 14:55:19)
 ------------------------------------------------------
 Symbolic Z-matrix:
 Charge =  0 Multiplicity = 1

                         Standard orientation:
 ---------------------------------------------------------------------
 Center     Atomic      Atomic             Coordinates (Angstroms)
 Number     Number       Type             X           Y           Z
 ---------------------------------------------------------------------
      1          6           0       -3.632813   -2.199027    0.187154
      2          6           0       -2.611700   -1.690359    0.996540
      3          6           0       -2.291075   -0.329957    0.964101
      4          6           0       -3.015177    0.496958    0.106676
      5          6           0       -4.037941    0.020213   -0.711834
      6          6           0       -4.341425   -1.343626   -0.662951
      7          1           0       -3.875225   -3.257155    0.218740
      8          1           0       -2.059709   -2.352332    1.657708
      9          1           0       -1.505331    0.090355    1.580026
     10          1           0       -4.570559    0.704798   -1.360740
     11          1           0       -5.134935   -1.735884   -1.292650
     12          7           0       -2.684819    1.938974    0.063630
     13          8           0       -3.337641    2.646636   -0.700356
     14          8           0       -1.779317    2.334261    0.794693
     15          6           0        3.364923   -0.648178   -0.551931
     16          6           0        2.064841   -0.807015    0.237081
     17          6           0        0.945554   -1.441170   -0.589260
     18          1           0        3.172898   -0.035298   -1.443250
     19          1           0        3.688604   -1.633797   -0.914123
     20          1           0        1.744446    0.178421    0.598852
     21          1           0        2.260026   -1.419428    1.126726
     22          1           0        1.240593   -2.436057   -0.938195
     23          1           0        0.722083   -0.829128   -1.469069
     24          1           0        0.025428   -1.545327   -0.005841
     25          6           0        4.493314   -0.015621    0.260679
     26          6           0        5.793397    0.143216   -0.528334
     27          6           0        6.912683    0.777371    0.298008
     28          1           0        4.169635    0.969997    0.622872
     29          1           0        4.685340   -0.628501    1.151998
     30          1           0        5.598212    0.755629   -1.417978
     31          1           0        6.113792   -0.842221   -0.890104
     32          1           0        7.136154    0.165328    1.177817
     33          1           0        6.617645    1.772257    0.646942
     34          1           0        7.832811    0.881528   -0.285411
 ---------------------------------------------------------------------

 SCF Done:  E(RHF) =  -669.534389760     A.U. after   15 cycles
 E2 =    -0.2092697333D+01 EUMP2 =    -0.67162708709276D+03

 The electronic state is 1-A.
 Alpha  occ. eigenvalues --  -20.60808 -20.60802 -15.85861 -11.31222 -11.27803
 Alpha  occ. eigenvalues --  -11.27800 -11.27546 -11.26809 -11.26799 -11.21638
 Alpha  occ. eigenvalues --  -11.21503 -11.21353 -11.21268 -11.21089 -11.20961
 Alpha  occ. eigenvalues --   -1.59882  -1.39436  -1.19415  -1.08800  -1.08383
 Alpha  occ. eigenvalues --   -1.04837  -1.03504  -0.95964  -0.95631  -0.86977
 Alpha  occ. eigenvalues --   -0.86212  -0.82477  -0.79574  -0.78192  -0.77520
 Alpha  occ. eigenvalues --   -0.72081  -0.71205  -0.70518  -0.65072  -0.65010
 Alpha  occ. eigenvalues --   -0.64816  -0.62196  -0.60895  -0.59379  -0.57604
 Alpha  occ. eigenvalues --   -0.55313  -0.55231  -0.53456  -0.52907  -0.52480
 Alpha  occ. eigenvalues --   -0.52239  -0.49883  -0.48839  -0.48834  -0.47892
 Alpha  occ. eigenvalues --   -0.46595  -0.45737  -0.45646  -0.44841  -0.43776
 Alpha  occ. eigenvalues --   -0.37388  -0.36299
 Alpha virt. eigenvalues --    0.04999   0.11177   0.16387   0.20964   0.22985
 Alpha virt. eigenvalues --    0.24275   0.26490   0.26875   0.27527   0.28085
 Alpha virt. eigenvalues --    0.28974   0.30328   0.31427   0.31735   0.32433

 Mulliken charges:
               1
     1  C   -0.170522
     2  C   -0.219224
     3  C   -0.169589
     4  C    0.158954
     5  C   -0.170968
     6  C   -0.218575
     7  H    0.226065
     8  H    0.224647
     9  H    0.277541
    10  H    0.275789
    11  H    0.223684
    12  N    0.488119
    13  O   -0.460277
    14  O   -0.460803
    15  C   -0.297998
    16  C   -0.302778
    17  C   -0.481058
    18  H    0.152166
    19  H    0.147982
    20  H    0.158360
    21  H    0.147254
    22  H    0.152073
    23  H    0.158326
    24  H    0.159543
    25  C   -0.298933
    26  C   -0.299758
    27  C   -0.475836
    28  H    0.152855
    29  H    0.148064
    30  H    0.153062
    31  H    0.150781
    32  H    0.154378
    33  H    0.156599
    34  H    0.160073
 Sum of Mulliken charges =  -0.00000

 Dipole moment (field-independent basis, Debye):
    X=             -1.2373    Y=             -5.0091    Z=              0.1308  Tot=              5.1613
 Quadrupole moment (field-independent basis, Debye-Ang):
   XX=            -86.1538   YY=            -99.8168   ZZ=            -92.9781
   XY=             14.0061   XZ=              1.9240   YZ=             -1.5666

 Normal termination of Gaussian 16 at Thu May  6 01:18:48 2021.
