 Gaussian 16, Revision A.03,
 Gaussian 16:  EM64L-G16RevA.03 25-Dec-2016

 -------------
 #p 6-31g* mp2
 -------------

 ------------------------------------------------------
 Input file generated by CHIRIPA (05-May-2021 14:53:15)
 ------------------------------------------------------
 Symbolic Z-matrix:
 Charge =  0 Multiplicity = 1

                         Standard orientation:
 ---------------------------------------------------------------------
 Center     Atomic      Atomic             Coordinates (Angstroms)
 Number     Number       Type             X           Y           Z
 ---------------------------------------------------------------------
      1          6           0       -3.691606   -0.448511    0.018549
      2          6           0       -5.171261   -0.546679    0.391332
      3          6           0       -5.591927   -1.966382    0.772487
      4          1           0       -3.484583   -1.130693   -0.817343
      5          1           0       -3.083554   -0.797400    0.864684
      6          1           0       -5.776300   -0.196406   -0.454749
      7          1           0       -5.374826    0.135957    1.226308
      8          1           0       -5.013474   -2.322119    1.631232
      9          1           0       -5.417229   -2.656370   -0.059376
     10          1           0       -6.653313   -2.013690    1.035323
     11          6           0       -3.255927    0.964602   -0.364889
     12          6           0       -1.776271    1.062770   -0.737672
     13          6           0       -1.355605    2.482472   -1.118827
     14          1           0       -3.863979    1.313491   -1.211023
     15          1           0       -3.462950    1.646783    0.471003
     16          1           0       -1.572706    0.380134   -1.572648
     17          1           0       -1.171233    0.712497    0.108409
     18          1           0       -1.530304    3.172461   -0.286963
     19          1           0       -1.934059    2.838209   -1.977572
     20          1           0       -0.294220    2.529781   -1.381662
     21          6           0        2.371163    2.069268    1.180103
     22          6           0        2.670122    0.965826    1.986056
     23          6           0        2.862036   -0.297118    1.417999
     24          6           0        2.747013   -0.421137    0.034280
     25          6           0        2.450244    0.659095   -0.795370
     26          6           0        2.262370    1.912657   -0.205594
     27          1           0        2.223649    3.046709    1.629819
     28          1           0        2.755226    1.084492    3.062496
     29          1           0        3.094444   -1.168267    2.018420
     30          1           0        2.371870    0.509600   -1.865382
     31          1           0        2.030295    2.767832   -0.833975
     32          7           0        2.948046   -1.753193   -0.578592
     33          8           0        2.841253   -1.836111   -1.800212
     34          8           0        3.208600   -2.689118    0.174264
 ---------------------------------------------------------------------

 SCF Done:  E(RHF) =  -669.534908189     A.U. after   15 cycles
 E2 =    -0.2092385413D+01 EUMP2 =    -0.67162729360131D+03

 The electronic state is 1-A.
 Alpha  occ. eigenvalues --  -20.60786 -20.60781 -15.85840 -11.31225 -11.27795
 Alpha  occ. eigenvalues --  -11.27788 -11.27535 -11.26819 -11.26804 -11.21836
 Alpha  occ. eigenvalues --  -11.21665 -11.21575 -11.21556 -11.21445 -11.21076
 Alpha  occ. eigenvalues --   -1.59860  -1.39414  -1.19403  -1.08794  -1.08583
 Alpha  occ. eigenvalues --   -1.04818  -1.03715  -0.96190  -0.95621  -0.87220
 Alpha  occ. eigenvalues --   -0.86200  -0.82460  -0.79778  -0.78375  -0.77506
 Alpha  occ. eigenvalues --   -0.72059  -0.71183  -0.70500  -0.65215  -0.65056
 Alpha  occ. eigenvalues --   -0.64846  -0.62204  -0.61112  -0.59579  -0.57806
 Alpha  occ. eigenvalues --   -0.55476  -0.55303  -0.53301  -0.53015  -0.52722
 Alpha  occ. eigenvalues --   -0.52460  -0.50118  -0.48819  -0.48812  -0.48092
 Alpha  occ. eigenvalues --   -0.46793  -0.45923  -0.45834  -0.44815  -0.43977
 Alpha  occ. eigenvalues --   -0.37366  -0.36365
 Alpha virt. eigenvalues --    0.05020   0.11203   0.16419   0.20779   0.22808
 Alpha virt. eigenvalues --    0.24193   0.26252   0.26509   0.27309   0.28269
 Alpha virt. eigenvalues --    0.28445   0.30137   0.31195   0.31766   0.32331

 Mulliken charges:
               1
     1  C   -0.298757
     2  C   -0.299767
     3  C   -0.475866
     4  H    0.152505
     5  H    0.149820
     6  H    0.152019
     7  H    0.150768
     8  H    0.155456
     9  H    0.156816
    10  H    0.160148
    11  C   -0.298608
    12  C   -0.300595
    13  C   -0.475566
    14  H    0.149872
    15  H    0.147927
    16  H    0.155046
    17  H    0.154657
    18  H    0.152140
    19  H    0.156659
    20  H    0.151257
    21  C   -0.172249
    22  C   -0.218889
    23  C   -0.171134
    24  C    0.158649
    25  C   -0.170186
    26  C   -0.215264
    27  H    0.226117
    28  H    0.223555
    29  H    0.275711
    30  H    0.275844
    31  H    0.224413
    32  N    0.488155
    33  O   -0.460277
    34  O   -0.460379
 Sum of Mulliken charges =  -0.00000

 Dipole moment (field-independent basis, Debye):
    X=             -0.7119    Y=              4.6196    Z=              2.1816  Tot=              5.1582
 Quadrupole moment (field-independent basis, Debye-Ang):
   XX=            -99.4089   YY=            -99.6165   ZZ=            -89.7585
   XY=             12.7509   XZ=              7.2975   YZ=             -2.1480

 Normal termination of Gaussian 16 at Thu May  6 18:50:41 2021.
