 Gaussian 16, Revision A.03,
 Gaussian 16:  EM64L-G16RevA.03 25-Dec-2016

 -------------
 #p 6-31g* mp2
 -------------

 ------------------------------------------------------
 Input file generated by CHIRIPA (05-May-2021 14:57:25)
 ------------------------------------------------------
 Symbolic Z-matrix:
 Charge =  0 Multiplicity = 1

                         Standard orientation:
 ---------------------------------------------------------------------
 Center     Atomic      Atomic             Coordinates (Angstroms)
 Number     Number       Type             X           Y           Z
 ---------------------------------------------------------------------
      1          6           0       -1.936737   -1.622521    0.347742
      2          6           0       -2.568845   -1.544637   -0.897607
      3          6           0       -3.667521   -0.700550   -1.084631
      4          6           0       -4.109681    0.054939    0.000275
      5          6           0       -3.501101   -0.000718    1.253201
      6          6           0       -2.404058   -0.851672    1.417286
      7          1           0       -1.083894   -2.280895    0.484117
      8          1           0       -2.208086   -2.142130   -1.730013
      9          1           0       -4.175588   -0.620896   -2.038014
     10          1           0       -3.883571    0.607101    2.064182
     11          1           0       -1.915116   -0.910128    2.385564
     12          7           0       -5.271935    0.952170   -0.185576
     13          8           0       -5.642190    1.607450    0.786101
     14          8           0       -5.790648    0.983152   -1.299405
     15          6           0        4.969232    2.384869   -0.121152
     16          6           0        3.584578    2.255187    0.028638
     17          6           0        2.991346    0.990278    0.079878
     18          6           0        3.816510   -0.128640   -0.022181
     19          6           0        5.199081   -0.032134   -0.172099
     20          6           0        5.770652    1.242807   -0.220866
     21          1           0        5.421656    3.371378   -0.159997
     22          1           0        2.959717    3.140376    0.106328
     23          1           0        1.922045    0.861031    0.195243
     24          1           0        5.795962   -0.932999   -0.246901
     25          1           0        6.846270    1.340495   -0.337258
     26          7           0        3.199948   -1.473053    0.030757
     27          8           0        3.948881   -2.443232   -0.061389
     28          8           0        1.979429   -1.531169    0.163391
 ---------------------------------------------------------------------

 SCF Done:  E(RHF) =  -868.340191319     A.U. after   16 cycles
 E2 =    -0.2598108334D+01 EUMP2 =    -0.87093829965279D+03

 The electronic state is 1-A.
 Alpha  occ. eigenvalues --  -20.61669 -20.61616 -20.60381 -20.60375 -15.86688
 Alpha  occ. eigenvalues --  -15.85431 -11.31788 -11.30614 -11.28325 -11.28316
 Alpha  occ. eigenvalues --  -11.28008 -11.27275 -11.27264 -11.27203 -11.27180
 Alpha  occ. eigenvalues --  -11.26662 -11.26083 -11.26046  -1.60711  -1.59463
 Alpha  occ. eigenvalues --   -1.40274  -1.39021  -1.19934  -1.18761  -1.09375
 Alpha  occ. eigenvalues --   -1.08138  -1.05296  -1.04150  -0.96257  -0.95006
 Alpha  occ. eigenvalues --   -0.86705  -0.85524  -0.83103  -0.81862  -0.78176
 Alpha  occ. eigenvalues --   -0.76979  -0.72936  -0.72016  -0.71648  -0.71035
 Alpha  occ. eigenvalues --   -0.70789  -0.69716  -0.65589  -0.65291  -0.64386
 Alpha  occ. eigenvalues --   -0.64122  -0.62645  -0.61511  -0.55799  -0.54453
 Alpha  occ. eigenvalues --   -0.53641  -0.53380  -0.52483  -0.52216  -0.49684
 Alpha  occ. eigenvalues --   -0.49638  -0.48417  -0.48388  -0.45739  -0.44469
 Alpha  occ. eigenvalues --   -0.37896  -0.36889  -0.36654  -0.35791
 Alpha virt. eigenvalues --    0.04342   0.05568   0.10769   0.11887   0.15894
 Alpha virt. eigenvalues --    0.17121   0.20936   0.22241   0.26879   0.27742
 Alpha virt. eigenvalues --    0.27967   0.29243   0.30560   0.31773   0.32139

 Mulliken charges:
               1
     1  C   -0.171918
     2  C   -0.221380
     3  C   -0.172424
     4  C    0.156466
     5  C   -0.172986
     6  C   -0.223045
     7  H    0.247424
     8  H    0.225169
     9  H    0.273220
    10  H    0.272398
    11  H    0.223087
    12  N    0.488218
    13  O   -0.463041
    14  O   -0.462278
    15  C   -0.169903
    16  C   -0.218580
    17  C   -0.171390
    18  C    0.157573
    19  C   -0.170551
    20  C   -0.218548
    21  H    0.228042
    22  H    0.226216
    23  H    0.275025
    24  H    0.276209
    25  H    0.225319
    26  N    0.491719
    27  O   -0.457005
    28  O   -0.473037
 Sum of Mulliken charges =  -0.00000

 Dipole moment (field-independent basis, Debye):
    X=              6.7335    Y=              1.5080    Z=              0.4509  Tot=              6.9150
 Quadrupole moment (field-independent basis, Debye-Ang):
   XX=           -118.9939   YY=           -105.7692   ZZ=           -101.2469
   XY=             29.8521   XZ=             -3.6671   YZ=              1.7404

 Normal termination of Gaussian 16 at Thu May  6 16:25:01 2021.
