 Gaussian 16, Revision A.03,
 Gaussian 16:  EM64L-G16RevA.03 25-Dec-2016

 -------------
 #p 6-31g* mp2
 -------------

 ------------------------------------------------------
 Input file generated by CHIRIPA (05-May-2021 14:51:08)
 ------------------------------------------------------
 Symbolic Z-matrix:
 Charge =  0 Multiplicity = 1

                         Standard orientation:
 ---------------------------------------------------------------------
 Center     Atomic      Atomic             Coordinates (Angstroms)
 Number     Number       Type             X           Y           Z
 ---------------------------------------------------------------------
      1          6           0       -2.932843   -0.038898   -0.099095
      2          6           0       -1.938553    0.241011    1.028301
      3          6           0       -0.491807    0.306245    0.537927
      4          1           0       -2.666609   -0.986344   -0.587367
      5          1           0       -2.838991    0.744201   -0.864172
      6          1           0       -2.035220   -0.541622    1.791687
      7          1           0       -2.207299    1.187805    1.514070
      8          1           0       -0.373177    1.098989   -0.207784
      9          1           0       -0.200120   -0.640265    0.071410
     10          1           0        0.202088    0.507267    1.360095
     11          6           0       -4.383332   -0.107051    0.375421
     12          6           0       -5.377622   -0.386959   -0.751975
     13          6           0       -6.824368   -0.452194   -0.261602
     14          1           0       -4.477184   -0.890149    1.140498
     15          1           0       -4.649566    0.840396    0.863693
     16          1           0       -5.108876   -1.333753   -1.237744
     17          1           0       -5.280955    0.395673   -1.515361
     18          1           0       -7.116055    0.494316    0.204916
     19          1           0       -6.942998   -1.244937    0.484110
     20          1           0       -7.518263   -0.653215   -1.083769
     21          6           0        3.684082    0.774930    0.161859
     22          6           0        2.937894    1.818148   -0.670539
     23          6           0        2.998942    3.217486   -0.057417
     24          1           0        3.259834    0.751729    1.174984
     25          1           0        4.733123    1.083747    0.269277
     26          1           0        1.890896    1.506756   -0.777520
     27          1           0        3.363841    1.838733   -1.681856
     28          1           0        4.037041    3.552989    0.034187
     29          1           0        2.555727    3.219126    0.943662
     30          1           0        2.459153    3.947496   -0.668622
     31          6           0        3.632093   -0.628982   -0.438185
     32          6           0        4.378281   -1.672200    0.394213
     33          6           0        4.317233   -3.071538   -0.218909
     34          1           0        2.583052   -0.937798   -0.545603
     35          1           0        4.056341   -0.605781   -1.451310
     36          1           0        3.952334   -1.692784    1.405530
     37          1           0        5.425279   -1.360807    0.501194
     38          1           0        4.760448   -3.073178   -1.219987
     39          1           0        3.279134   -3.407041   -0.310513
     40          1           0        4.857022   -3.801548    0.392296
 ---------------------------------------------------------------------

 SCF Done:  E(RHF) =  -470.732864606     A.U. after   11 cycles
 E2 =    -0.1583393646D+01 EUMP2 =    -0.47231625825140D+03

 The electronic state is 1-A.
 Alpha  occ. eigenvalues --  -11.21684 -11.21636 -11.21540 -11.21463 -11.21417
 Alpha  occ. eigenvalues --  -11.21400 -11.21303 -11.21244 -11.21203 -11.21098
 Alpha  occ. eigenvalues --  -11.21035 -11.20989  -1.08494  -1.08330  -1.03607
 Alpha  occ. eigenvalues --   -1.03437  -0.96059  -0.95900  -0.87092  -0.86907
 Alpha  occ. eigenvalues --   -0.79706  -0.79481  -0.78315  -0.78128  -0.65125
 Alpha  occ. eigenvalues --   -0.64969  -0.61088  -0.60782  -0.59408  -0.59272
 Alpha  occ. eigenvalues --   -0.57666  -0.57513  -0.55427  -0.55111  -0.52764
 Alpha  occ. eigenvalues --   -0.52603  -0.52489  -0.52324  -0.50089  -0.49767
 Alpha  occ. eigenvalues --   -0.48063  -0.47796  -0.46797  -0.46392  -0.45939
 Alpha  occ. eigenvalues --   -0.45758  -0.45679  -0.45433  -0.43835  -0.43692
 Alpha virt. eigenvalues --    0.20901   0.22939   0.23956   0.24697   0.25497
 Alpha virt. eigenvalues --    0.26418   0.26618   0.27718   0.27862   0.29485
 Alpha virt. eigenvalues --    0.30017   0.30852   0.31788   0.31875   0.32370

 Mulliken charges:
               1
     1  C   -0.298633
     2  C   -0.300497
     3  C   -0.479574
     4  H    0.149739
     5  H    0.149814
     6  H    0.152108
     7  H    0.152454
     8  H    0.157426
     9  H    0.156253
    10  H    0.161540
    11  C   -0.298330
    12  C   -0.299700
    13  C   -0.475749
    14  H    0.149634
    15  H    0.149806
    16  H    0.152021
    17  H    0.152036
    18  H    0.155248
    19  H    0.155232
    20  H    0.160398
    21  C   -0.297433
    22  C   -0.307796
    23  C   -0.475419
    24  H    0.149238
    25  H    0.148881
    26  H    0.162772
    27  H    0.150782
    28  H    0.154822
    29  H    0.154653
    30  H    0.159247
    31  C   -0.301458
    32  C   -0.299465
    33  C   -0.475530
    34  H    0.153148
    35  H    0.149165
    36  H    0.151678
    37  H    0.151715
    38  H    0.155099
    39  H    0.154664
    40  H    0.160010
 Sum of Mulliken charges =  -0.00000

 Dipole moment (field-independent basis, Debye):
    X=             -0.0772    Y=             -0.0085    Z=             -0.0011  Tot=              0.0777
 Quadrupole moment (field-independent basis, Debye-Ang):
   XX=            -85.4479   YY=            -84.9964   ZZ=            -84.6548
   XY=             -0.0402   XZ=             -0.1925   YZ=             -0.5813

 Normal termination of Gaussian 16 at Wed May  5 19:40:29 2021.
