 Gaussian 16, Revision A.03,
 Gaussian 16:  EM64L-G16RevA.03 25-Dec-2016

 -------------
 #p 6-31g* mp2
 -------------

 ------------------------------------------------------
 Input file generated by CHIRIPA (05-May-2021 14:57:21)
 ------------------------------------------------------
 Symbolic Z-matrix:
 Charge =  0 Multiplicity = 1

                         Standard orientation:
 ---------------------------------------------------------------------
 Center     Atomic      Atomic             Coordinates (Angstroms)
 Number     Number       Type             X           Y           Z
 ---------------------------------------------------------------------
      1          6           0        5.807261   -0.609320    0.560371
      2          6           0        4.848310   -1.620085    0.436722
      3          6           0        3.524816   -1.307332    0.112536
      4          6           0        3.193566    0.032707   -0.082038
      5          6           0        4.126185    1.062290    0.034029
      6          6           0        5.443778    0.726286    0.358986
      7          1           0        6.833091   -0.861305    0.812506
      8          1           0        5.127738   -2.658199    0.592559
      9          1           0        2.762303   -2.069950    0.010521
     10          1           0        3.817526    2.088029   -0.127235
     11          1           0        6.186403    1.513344    0.454354
     12          7           0        1.795565    0.376111   -0.425647
     13          8           0        1.529155    1.564373   -0.592071
     14          8           0        0.992693   -0.549493   -0.522038
     15          6           0       -2.867134    2.483352    0.108488
     16          6           0       -3.825797    1.952921    0.978044
     17          6           0       -4.142302    0.591674    0.940856
     18          6           0       -3.477806   -0.213881    0.017375
     19          6           0       -2.518017    0.284827   -0.862047
     20          6           0       -2.217449    1.649083   -0.807169
     21          1           0       -2.627456    3.541970    0.144247
     22          1           0       -4.331941    2.598452    1.690189
     23          1           0       -4.880363    0.154760    1.602512
     24          1           0       -2.030228   -0.383666   -1.561045
     25          1           0       -1.472508    2.058270   -1.483686
     26          7           0       -3.804440   -1.656564   -0.031359
     27          8           0       -3.204869   -2.345158   -0.854152
     28          8           0       -4.653843   -2.071428    0.754161
 ---------------------------------------------------------------------

 SCF Done:  E(RHF) =  -868.340377171     A.U. after   16 cycles
 E2 =    -0.2599427202D+01 EUMP2 =    -0.87093980437310D+03

 The electronic state is 1-A.
 Alpha  occ. eigenvalues --  -20.61529 -20.61487 -20.59569 -20.59545 -15.86510
 Alpha  occ. eigenvalues --  -15.84600 -11.31608 -11.29679 -11.28170 -11.28107
 Alpha  occ. eigenvalues --  -11.27845 -11.27118 -11.27074 -11.26330 -11.26061
 Alpha  occ. eigenvalues --  -11.25967 -11.25341 -11.24994  -1.60560  -1.58640
 Alpha  occ. eigenvalues --   -1.40119  -1.38199  -1.19757  -1.17838  -1.09206
 Alpha  occ. eigenvalues --   -1.07304  -1.05116  -1.03171  -0.96085  -0.94180
 Alpha  occ. eigenvalues --   -0.86528  -0.84601  -0.82925  -0.81006  -0.77996
 Alpha  occ. eigenvalues --   -0.76070  -0.72753  -0.71849  -0.70861  -0.70835
 Alpha  occ. eigenvalues --   -0.69954  -0.68982  -0.65413  -0.65119  -0.63491
 Alpha  occ. eigenvalues --   -0.63171  -0.62461  -0.60519  -0.55634  -0.53760
 Alpha  occ. eigenvalues --   -0.53463  -0.53204  -0.51587  -0.51270  -0.49493
 Alpha  occ. eigenvalues --   -0.49457  -0.47595  -0.47562  -0.45577  -0.43667
 Alpha  occ. eigenvalues --   -0.37725  -0.36707  -0.35855  -0.34707
 Alpha virt. eigenvalues --    0.04513   0.06424   0.10952   0.12900   0.16060
 Alpha virt. eigenvalues --    0.17964   0.21117   0.22963   0.27053   0.27979
 Alpha virt. eigenvalues --    0.29008   0.29748   0.30718   0.32175   0.32481

 Mulliken charges:
               1
     1  C   -0.169833
     2  C   -0.218727
     3  C   -0.170316
     4  C    0.157610
     5  C   -0.170689
     6  C   -0.218686
     7  H    0.227291
     8  H    0.226166
     9  H    0.279558
    10  H    0.274005
    11  H    0.224171
    12  N    0.490137
    13  O   -0.468262
    14  O   -0.458322
    15  C   -0.173461
    16  C   -0.220111
    17  C   -0.174174
    18  C    0.153814
    19  C   -0.159767
    20  C   -0.212037
    21  H    0.220861
    22  H    0.216514
    23  H    0.269596
    24  H    0.280319
    25  H    0.234000
    26  N    0.488326
    27  O   -0.460915
    28  O   -0.467069
 Sum of Mulliken charges =  -0.00000

 Dipole moment (field-independent basis, Debye):
    X=              6.6931    Y=              3.7717    Z=              1.2159  Tot=              7.7783
 Quadrupole moment (field-independent basis, Debye-Ang):
   XX=            -81.1346   YY=           -103.2838   ZZ=           -103.6492
   XY=            -21.1513   XZ=              0.8640   YZ=              0.3621

 Normal termination of Gaussian 16 at Thu May  6 14:30:46 2021.
