 Gaussian 16, Revision A.03,
 Gaussian 16:  EM64L-G16RevA.03 25-Dec-2016

 -------------
 #p 6-31g* mp2
 -------------

 ------------------------------------------------------
 Input file generated by CHIRIPA (05-May-2021 14:51:12)
 ------------------------------------------------------
 Symbolic Z-matrix:
 Charge =  0 Multiplicity = 1

                         Standard orientation:
 ---------------------------------------------------------------------
 Center     Atomic      Atomic             Coordinates (Angstroms)
 Number     Number       Type             X           Y           Z
 ---------------------------------------------------------------------
      1          6           0       -2.065382   -0.457568    0.502765
      2          6           0       -2.180297   -1.766023    1.285532
      3          6           0       -0.821718   -2.314681    1.722605
      4          1           0       -1.432746   -0.620463   -0.380514
      5          1           0       -1.549905    0.288648    1.123120
      6          1           0       -2.696634   -2.509131    0.664402
      7          1           0       -2.812890   -1.600042    2.166947
      8          1           0       -0.303297   -1.594088    2.363375
      9          1           0       -0.186381   -2.508342    0.852293
     10          1           0       -0.927250   -3.250327    2.280536
     11          6           0       -3.415213    0.103403    0.058920
     12          6           0       -3.300298    1.411858   -0.723847
     13          6           0       -4.658877    1.960516   -1.160919
     14          1           0       -3.930690   -0.642813   -0.561435
     15          1           0       -4.047849    0.266298    0.942199
     16          1           0       -2.667705    1.245877   -1.605262
     17          1           0       -2.783960    2.154966   -0.102717
     18          1           0       -5.294214    2.154177   -0.290607
     19          1           0       -5.177298    1.239923   -1.801690
     20          1           0       -4.553345    2.896163   -1.718851
     21          6           0        3.041593    0.877373   -0.328230
     22          6           0        2.828198    1.715874    0.932470
     23          6           0        3.436601    3.114271    0.822352
     24          1           0        4.118694    0.795453   -0.528454
     25          1           0        2.602891    1.402453   -1.188013
     26          1           0        3.265956    1.188718    1.789845
     27          1           0        1.751489    1.795646    1.129824
     28          1           0        2.992739    3.662669   -0.014814
     29          1           0        4.515811    3.052293    0.648957
     30          1           0        3.272420    3.696482    1.734457
     31          6           0        2.439002   -0.523209   -0.233455
     32          6           0        2.652397   -1.361708   -1.494156
     33          6           0        2.043993   -2.760105   -1.384037
     34          1           0        2.877703   -1.048288    0.626328
     35          1           0        1.361901   -0.441289   -0.033231
     36          1           0        3.729107   -1.441481   -1.691509
     37          1           0        2.214640   -0.834554   -2.351531
     38          1           0        0.964783   -2.698128   -1.210643
     39          1           0        2.487855   -3.308504   -0.546872
     40          1           0        2.208175   -3.342317   -2.296141
 ---------------------------------------------------------------------

 SCF Done:  E(RHF) =  -470.732818041     A.U. after   11 cycles
 E2 =    -0.1584045602D+01 EUMP2 =    -0.47231686364299D+03

 The electronic state is 1-A.
 Alpha  occ. eigenvalues --  -11.21651 -11.21609 -11.21595 -11.21576 -11.21469
 Alpha  occ. eigenvalues --  -11.21406 -11.21349 -11.21272 -11.21107 -11.21103
 Alpha  occ. eigenvalues --  -11.21053 -11.20968  -1.08483  -1.08391  -1.03570
 Alpha  occ. eigenvalues --   -1.03502  -0.96008  -0.95957  -0.87030  -0.86971
 Alpha  occ. eigenvalues --   -0.79694  -0.79519  -0.78391  -0.78103  -0.65154
 Alpha  occ. eigenvalues --   -0.64990  -0.61066  -0.60825  -0.59413  -0.59295
 Alpha  occ. eigenvalues --   -0.57653  -0.57548  -0.55387  -0.55163  -0.52683
 Alpha  occ. eigenvalues --   -0.52672  -0.52484  -0.52342  -0.50049  -0.49805
 Alpha  occ. eigenvalues --   -0.48170  -0.47747  -0.46783  -0.46498  -0.46153
 Alpha  occ. eigenvalues --   -0.45748  -0.45695  -0.45199  -0.43811  -0.43760
 Alpha virt. eigenvalues --    0.20412   0.23162   0.23336   0.24362   0.26045
 Alpha virt. eigenvalues --    0.26308   0.26826   0.27550   0.28197   0.29892
 Alpha virt. eigenvalues --    0.30622   0.31397   0.31618   0.31771   0.32008

 Mulliken charges:
               1
     1  C   -0.301177
     2  C   -0.299517
     3  C   -0.483710
     4  H    0.150214
     5  H    0.149873
     6  H    0.151637
     7  H    0.151963
     8  H    0.155609
     9  H    0.164517
    10  H    0.159759
    11  C   -0.298212
    12  C   -0.299699
    13  C   -0.475731
    14  H    0.149792
    15  H    0.150137
    16  H    0.151628
    17  H    0.151833
    18  H    0.155357
    19  H    0.155321
    20  H    0.160363
    21  C   -0.297939
    22  C   -0.299870
    23  C   -0.475675
    24  H    0.149344
    25  H    0.149285
    26  H    0.151817
    27  H    0.151960
    28  H    0.155211
    29  H    0.155172
    30  H    0.159994
    31  C   -0.305155
    32  C   -0.299550
    33  C   -0.479540
    34  H    0.149568
    35  H    0.158074
    36  H    0.151988
    37  H    0.151322
    38  H    0.157203
    39  H    0.156224
    40  H    0.160605
 Sum of Mulliken charges =  -0.00000

 Dipole moment (field-independent basis, Debye):
    X=             -0.0089    Y=             -0.0138    Z=              0.0027  Tot=              0.0166
 Quadrupole moment (field-independent basis, Debye-Ang):
   XX=            -84.9659   YY=            -85.7467   ZZ=            -84.0704
   XY=             -0.3515   XZ=             -0.0654   YZ=              0.4605

 Normal termination of Gaussian 16 at Wed May  5 18:20:08 2021.
