 Gaussian 16, Revision A.03,
 Gaussian 16:  EM64L-G16RevA.03 25-Dec-2016

 -------------
 #p 6-31g* mp2
 -------------

 ------------------------------------------------------
 Input file generated by CHIRIPA (05-May-2021 14:55:24)
 ------------------------------------------------------
 Symbolic Z-matrix:
 Charge =  0 Multiplicity = 1

                         Standard orientation:
 ---------------------------------------------------------------------
 Center     Atomic      Atomic             Coordinates (Angstroms)
 Number     Number       Type             X           Y           Z
 ---------------------------------------------------------------------
      1          6           0        3.706006   -2.156525    0.833940
      2          6           0        4.443637   -0.968127    0.822491
      3          6           0        3.899122    0.200328    0.281413
      4          6           0        2.608358    0.144254   -0.242107
      5          6           0        1.848368   -1.024376   -0.245298
      6          6           0        2.413005   -2.180813    0.300948
      7          1           0        4.136814   -3.059541    1.256270
      8          1           0        5.448031   -0.946315    1.235725
      9          1           0        4.448052    1.133935    0.259669
     10          1           0        0.849590   -1.015055   -0.664551
     11          1           0        1.837832   -3.102315    0.308490
     12          7           0        2.021254    1.374883   -0.817658
     13          8           0        0.882019    1.299256   -1.272699
     14          8           0        2.711432    2.391776   -0.802837
     15          6           0       -3.468806   -0.502033   -0.311984
     16          6           0       -4.193612   -1.745201    0.204904
     17          6           0       -4.197662   -2.890908   -0.807585
     18          1           0       -3.945683   -0.168198   -1.243695
     19          1           0       -2.434391   -0.769410   -0.568670
     20          1           0       -5.225951   -1.475249    0.461843
     21          1           0       -3.715074   -2.076003    1.135596
     22          1           0       -3.173949   -3.188462   -1.056731
     23          1           0       -4.693411   -2.584294   -1.734312
     24          1           0       -4.720933   -3.769502   -0.417560
     25          6           0       -3.456301    0.651969    0.688942
     26          6           0       -2.731496    1.895138    0.172055
     27          6           0       -2.727445    3.040844    1.184544
     28          1           0       -4.490717    0.919346    0.945630
     29          1           0       -2.979424    0.318134    1.620654
     30          1           0       -3.210034    2.225940   -0.758637
     31          1           0       -1.699156    1.625185   -0.084883
     32          1           0       -2.231697    2.734231    2.111271
     33          1           0       -3.751159    3.338398    1.433689
     34          1           0       -2.204174    3.919438    0.794520
 ---------------------------------------------------------------------

 SCF Done:  E(RHF) =  -669.536149308     A.U. after   15 cycles
 E2 =    -0.2091374001D+01 EUMP2 =    -0.67162752330914D+03

 The electronic state is 1-A.
 Alpha  occ. eigenvalues --  -20.60972 -20.60961 -15.85994 -11.31312 -11.27880
 Alpha  occ. eigenvalues --  -11.27870 -11.27609 -11.26881 -11.26871 -11.21467
 Alpha  occ. eigenvalues --  -11.21073 -11.21066 -11.20831 -11.20545 -11.20230
 Alpha  occ. eigenvalues --   -1.60025  -1.39582  -1.19480  -1.08884  -1.07972
 Alpha  occ. eigenvalues --   -1.04876  -1.03027  -0.95727  -0.95528  -0.86550
 Alpha  occ. eigenvalues --   -0.86276  -0.82563  -0.79123  -0.77743  -0.77575
 Alpha  occ. eigenvalues --   -0.72218  -0.71336  -0.70589  -0.65138  -0.64881
 Alpha  occ. eigenvalues --   -0.64614  -0.62224  -0.60428  -0.58919  -0.57091
 Alpha  occ. eigenvalues --   -0.55379  -0.54845  -0.53207  -0.52968  -0.52217
 Alpha  occ. eigenvalues --   -0.51939  -0.49509  -0.48984  -0.48975  -0.47429
 Alpha  occ. eigenvalues --   -0.46195  -0.45380  -0.45245  -0.44703  -0.43293
 Alpha  occ. eigenvalues --   -0.37456  -0.36477
 Alpha virt. eigenvalues --    0.04871   0.11174   0.16337   0.20483   0.22884
 Alpha virt. eigenvalues --    0.24834   0.25311   0.27442   0.27579   0.28319
 Alpha virt. eigenvalues --    0.29266   0.31167   0.31870   0.32088   0.32434

 Mulliken charges:
               1
     1  C   -0.170492
     2  C   -0.218600
     3  C   -0.170585
     4  C    0.157988
     5  C   -0.172339
     6  C   -0.218848
     7  H    0.226129
     8  H    0.223923
     9  H    0.275915
    10  H    0.277029
    11  H    0.224058
    12  N    0.489792
    13  O   -0.461445
    14  O   -0.458436
    15  C   -0.296789
    16  C   -0.299424
    17  C   -0.474186
    18  H    0.151880
    19  H    0.145648
    20  H    0.152815
    21  H    0.148643
    22  H    0.149664
    23  H    0.157048
    24  H    0.159014
    25  C   -0.297916
    26  C   -0.309722
    27  C   -0.475381
    28  H    0.147148
    29  H    0.145038
    30  H    0.151138
    31  H    0.175173
    32  H    0.150674
    33  H    0.150363
    34  H    0.165084
 Sum of Mulliken charges =  -0.00000

 Dipole moment (field-independent basis, Debye):
    X=              2.2758    Y=             -4.2401    Z=              1.9362  Tot=              5.1871
 Quadrupole moment (field-independent basis, Debye-Ang):
   XX=            -80.1273   YY=            -96.0638   ZZ=            -96.7482
   XY=             -9.2352   XZ=              6.6271   YZ=              0.9610

 Normal termination of Gaussian 16 at Thu May  6 06:23:14 2021.
