 Gaussian 16, Revision A.03,
 Gaussian 16:  EM64L-G16RevA.03 25-Dec-2016

 -------------
 #p 6-31g* mp2
 -------------

 ------------------------------------------------------
 Input file generated by CHIRIPA (05-May-2021 14:57:22)
 ------------------------------------------------------
 Symbolic Z-matrix:
 Charge =  0 Multiplicity = 1

                         Standard orientation:
 ---------------------------------------------------------------------
 Center     Atomic      Atomic             Coordinates (Angstroms)
 Number     Number       Type             X           Y           Z
 ---------------------------------------------------------------------
      1          6           0        5.595234    0.437510    0.058919
      2          6           0        4.666834    1.368776    0.535717
      3          6           0        3.295493    1.108513    0.456759
      4          6           0        2.885764   -0.098542   -0.107538
      5          6           0        3.786216   -1.046386   -0.591343
      6          6           0        5.152743   -0.764979   -0.502100
      7          1           0        6.658655    0.647901    0.124251
      8          1           0        5.007599    2.303476    0.971906
      9          1           0        2.555107    1.811821    0.818151
     10          1           0        3.416180   -1.969384   -1.020954
     11          1           0        5.871481   -1.490063   -0.873198
     12          7           0        1.436535   -0.385262   -0.196571
     13          8           0        1.101182   -1.456072   -0.698110
     14          8           0        0.663424    0.466246    0.236868
     15          6           0       -2.955562   -2.403529    0.650739
     16          6           0       -3.536460   -1.998171   -0.555396
     17          6           0       -3.635421   -0.640727   -0.874925
     18          6           0       -3.140958    0.288609    0.038930
     19          6           0       -2.556844   -0.083855    1.248629
     20          6           0       -2.468466   -1.446764    1.547322
     21          1           0       -2.882796   -3.460147    0.890864
     22          1           0       -3.915591   -2.738996   -1.253597
     23          1           0       -4.080413   -0.299203   -1.801618
     24          1           0       -2.187834    0.677940    1.924586
     25          1           0       -2.016838   -1.758666    2.484763
     26          7           0       -3.240122    1.728567   -0.288310
     27          8           0       -2.796963    2.527638    0.533719
     28          8           0       -3.759127    2.030870   -1.360637
 ---------------------------------------------------------------------

 SCF Done:  E(RHF) =  -868.338350793     A.U. after   16 cycles
 E2 =    -0.2600061711D+01 EUMP2 =    -0.87093841250420D+03

 The electronic state is 1-A.
 Alpha  occ. eigenvalues --  -20.61035 -20.61018 -20.59420 -20.59401 -15.86066
 Alpha  occ. eigenvalues --  -15.84461 -11.31342 -11.29550 -11.27921 -11.27870
 Alpha  occ. eigenvalues --  -11.27632 -11.26911 -11.26874 -11.26237 -11.26161
 Alpha  occ. eigenvalues --  -11.25988 -11.25211 -11.25150  -1.60096  -1.58482
 Alpha  occ. eigenvalues --   -1.39653  -1.38048  -1.19508  -1.17750  -1.08922
 Alpha  occ. eigenvalues --   -1.07218  -1.04895  -1.03166  -0.95771  -0.94097
 Alpha  occ. eigenvalues --   -0.86298  -0.84601  -0.82603  -0.80967  -0.77658
 Alpha  occ. eigenvalues --   -0.76018  -0.72299  -0.71418  -0.70715  -0.70613
 Alpha  occ. eigenvalues --   -0.69768  -0.68970  -0.65162  -0.64896  -0.63467
 Alpha  occ. eigenvalues --   -0.63252  -0.62239  -0.60567  -0.55405  -0.53765
 Alpha  occ. eigenvalues --   -0.53234  -0.52984  -0.51510  -0.51331  -0.49042
 Alpha  occ. eigenvalues --   -0.48957  -0.47464  -0.47441  -0.45081  -0.43518
 Alpha  occ. eigenvalues --   -0.37490  -0.36496  -0.35709  -0.34663
 Alpha virt. eigenvalues --    0.04848   0.06576   0.11159   0.12956   0.16367
 Alpha virt. eigenvalues --    0.18075   0.21319   0.22763   0.27236   0.28201
 Alpha virt. eigenvalues --    0.28634   0.29654   0.30885   0.32207   0.32461

 Mulliken charges:
               1
     1  C   -0.170486
     2  C   -0.218668
     3  C   -0.171117
     4  C    0.157474
     5  C   -0.171192
     6  C   -0.218662
     7  H    0.226252
     8  H    0.225067
     9  H    0.278867
    10  H    0.274324
    11  H    0.223401
    12  N    0.488683
    13  O   -0.461827
    14  O   -0.460333
    15  C   -0.164872
    16  C   -0.217351
    17  C   -0.169898
    18  C    0.161191
    19  C   -0.147124
    20  C   -0.216622
    21  H    0.219399
    22  H    0.216944
    23  H    0.270167
    24  H    0.271589
    25  H    0.215959
    26  N    0.489330
    27  O   -0.463360
    28  O   -0.467134
 Sum of Mulliken charges =  -0.00000

 Dipole moment (field-independent basis, Debye):
    X=              5.8040    Y=             -3.9870    Z=              1.5209  Tot=              7.2039
 Quadrupole moment (field-independent basis, Debye-Ang):
   XX=            -78.5954   YY=           -105.0554   ZZ=           -101.2750
   XY=             18.2855   XZ=             -1.6570   YZ=              3.4975

 Normal termination of Gaussian 16 at Fri May  7 00:12:08 2021.
