 Gaussian 16, Revision A.03,
 Gaussian 16:  EM64L-G16RevA.03 25-Dec-2016

 -------------
 #p 6-31g* mp2
 -------------

 ------------------------------------------------------
 Input file generated by CHIRIPA (05-May-2021 14:55:19)
 ------------------------------------------------------
 Symbolic Z-matrix:
 Charge =  0 Multiplicity = 1

                         Standard orientation:
 ---------------------------------------------------------------------
 Center     Atomic      Atomic             Coordinates (Angstroms)
 Number     Number       Type             X           Y           Z
 ---------------------------------------------------------------------
      1          6           0        5.445345    0.580177   -0.684072
      2          6           0        5.007365   -0.685531   -1.087407
      3          6           0        3.790711   -1.196362   -0.625506
      4          6           0        3.033900   -0.410983    0.242656
      5          6           0        3.443158    0.853678    0.662694
      6          6           0        4.663222    1.344394    0.188154
      7          1           0        6.391796    0.969190   -1.047797
      8          1           0        5.612697   -1.281249   -1.764710
      9          1           0        3.427719   -2.173050   -0.921709
     10          1           0        2.817868    1.424158    1.338698
     11          1           0        5.000856    2.327693    0.503071
     12          7           0        1.744078   -0.941130    0.738341
     13          8           0        1.095788   -0.229487    1.502488
     14          8           0        1.405829   -2.058263    0.353325
     15          6           0       -4.680659   -0.058197   -0.496645
     16          6           0       -5.970799   -0.108319    0.322508
     17          6           0       -7.011715   -1.057736   -0.271539
     18          1           0       -4.917736    0.251551   -1.523678
     19          1           0       -4.258413   -1.070337   -0.565019
     20          1           0       -6.389750    0.903844    0.390483
     21          1           0       -5.730598   -0.417797    1.347760
     22          1           0       -6.617278   -2.077663   -0.324161
     23          1           0       -7.280176   -0.748512   -1.286877
     24          1           0       -7.925964   -1.078162    0.329786
     25          6           0       -3.630327    0.886634    0.084584
     26          6           0       -2.340187    0.936755   -0.734570
     27          6           0       -1.299270    1.886174   -0.140523
     28          1           0       -4.052571    1.898775    0.152957
     29          1           0       -3.393249    0.576886    1.111616
     30          1           0       -2.580387    1.246235   -1.759822
     31          1           0       -1.921234   -0.075408   -0.802545
     32          1           0       -1.030809    1.576949    0.874814
     33          1           0       -1.693708    2.906100   -0.087901
     34          1           0       -0.385021    1.906599   -0.741848
 ---------------------------------------------------------------------

 SCF Done:  E(RHF) =  -669.536156737     A.U. after   15 cycles
 E2 =    -0.2091172653D+01 EUMP2 =    -0.67162732939050D+03

 The electronic state is 1-A.
 Alpha  occ. eigenvalues --  -20.60922 -20.60900 -15.85944 -11.31263 -11.27827
 Alpha  occ. eigenvalues --  -11.27820 -11.27566 -11.26835 -11.26824 -11.20930
 Alpha  occ. eigenvalues --  -11.20593 -11.20575 -11.20498 -11.20446 -11.19957
 Alpha  occ. eigenvalues --   -1.59972  -1.39529  -1.19431  -1.08837  -1.07576
 Alpha  occ. eigenvalues --   -1.04827  -1.02676  -0.95683  -0.95133  -0.86227
 Alpha  occ. eigenvalues --   -0.86159  -0.82515  -0.78762  -0.77568  -0.77378
 Alpha  occ. eigenvalues --   -0.72177  -0.71287  -0.70540  -0.65089  -0.64831
 Alpha  occ. eigenvalues --   -0.64191  -0.62174  -0.60046  -0.58537  -0.56758
 Alpha  occ. eigenvalues --   -0.55334  -0.54397  -0.53157  -0.52919  -0.51866
 Alpha  occ. eigenvalues --   -0.51568  -0.49104  -0.48935  -0.48880  -0.47079
 Alpha  occ. eigenvalues --   -0.45813  -0.44994  -0.44896  -0.44708  -0.42949
 Alpha  occ. eigenvalues --   -0.37410  -0.36428
 Alpha virt. eigenvalues --    0.04943   0.11215   0.16416   0.21332   0.23726
 Alpha virt. eigenvalues --    0.25106   0.27227   0.27501   0.28078   0.28339
 Alpha virt. eigenvalues --    0.28924   0.30935   0.32067   0.32490   0.32662

 Mulliken charges:
               1
     1  C   -0.170611
     2  C   -0.218588
     3  C   -0.170852
     4  C    0.158118
     5  C   -0.170623
     6  C   -0.218614
     7  H    0.225897
     8  H    0.223698
     9  H    0.275704
    10  H    0.276354
    11  H    0.223869
    12  N    0.489560
    13  O   -0.460381
    14  O   -0.460193
    15  C   -0.298440
    16  C   -0.299276
    17  C   -0.475375
    18  H    0.146584
    19  H    0.152474
    20  H    0.149807
    21  H    0.153009
    22  H    0.155706
    23  H    0.153520
    24  H    0.158311
    25  C   -0.298650
    26  C   -0.299701
    27  C   -0.478875
    28  H    0.145228
    29  H    0.154948
    30  H    0.145278
    31  H    0.160282
    32  H    0.176123
    33  H    0.146238
    34  H    0.149473
 Sum of Mulliken charges =  -0.00000

 Dipole moment (field-independent basis, Debye):
    X=              4.7586    Y=              1.7415    Z=             -1.6121  Tot=              5.3176
 Quadrupole moment (field-independent basis, Debye-Ang):
   XX=            -69.0220   YY=            -93.2156   ZZ=            -94.7008
   XY=              2.7148   XZ=             -5.1357   YZ=              3.3525

 Normal termination of Gaussian 16 at Thu May  6 07:39:06 2021.
