 Gaussian 16, Revision A.03,
 Gaussian 16:  EM64L-G16RevA.03 25-Dec-2016

 -------------
 #p 6-31g* mp2
 -------------

 ------------------------------------------------------
 Input file generated by CHIRIPA (05-May-2021 14:51:08)
 ------------------------------------------------------
 Symbolic Z-matrix:
 Charge =  0 Multiplicity = 1

                         Standard orientation:
 ---------------------------------------------------------------------
 Center     Atomic      Atomic             Coordinates (Angstroms)
 Number     Number       Type             X           Y           Z
 ---------------------------------------------------------------------
      1          6           0        2.865534   -0.463323   -0.417449
      2          6           0        3.855049    0.636330   -0.030658
      3          6           0        4.633856    1.179106   -1.229261
      4          1           0        3.410601   -1.283590   -0.904284
      5          1           0        2.162772   -0.068479   -1.164188
      6          1           0        4.554878    0.239938    0.716155
      7          1           0        3.307589    1.453990    0.455485
      8          1           0        3.950659    1.600307   -1.973862
      9          1           0        5.205034    0.379357   -1.711712
     10          1           0        5.335395    1.964087   -0.930080
     11          6           0        2.079399   -1.016002    0.770097
     12          6           0        1.089883   -2.115655    0.383307
     13          6           0        0.311076   -2.658431    1.581909
     14          1           0        2.782160   -1.410847    1.516836
     15          1           0        1.534331   -0.195735    1.256933
     16          1           0        1.637343   -2.933315   -0.102837
     17          1           0        0.390054   -1.719263   -0.363506
     18          1           0       -0.260102   -1.858683    2.064360
     19          1           0        0.994274   -3.079633    2.326510
     20          1           0       -0.390462   -3.443412    1.282729
     21          6           0       -2.455393    0.159054   -0.672343
     22          6           0       -3.432861   -0.964246   -0.324872
     23          6           0       -3.387035   -2.118617   -1.326432
     24          1           0       -2.682614    0.535877   -1.678981
     25          1           0       -1.436734   -0.250759   -0.714559
     26          1           0       -4.449208   -0.552160   -0.281965
     27          1           0       -3.203409   -1.338308    0.681132
     28          1           0       -2.384403   -2.556727   -1.363705
     29          1           0       -3.637279   -1.766111   -2.332274
     30          1           0       -4.093567   -2.910518   -1.058915
     31          6           0       -2.489539    1.320271    0.319695
     32          6           0       -1.512071    2.443572   -0.027776
     33          6           0       -1.557898    3.597942    0.973784
     34          1           0       -3.508198    1.730084    0.361910
     35          1           0       -2.262319    0.943449    1.326333
     36          1           0       -1.741523    2.817634   -1.033780
     37          1           0       -0.495724    2.031485   -0.070683
     38          1           0       -1.307653    3.245437    1.979626
     39          1           0       -2.560530    4.036052    1.011056
     40          1           0       -0.851365    4.389843    0.706267
 ---------------------------------------------------------------------

 SCF Done:  E(RHF) =  -470.733379187     A.U. after   11 cycles
 E2 =    -0.1584031580D+01 EUMP2 =    -0.47231741076768D+03

 The electronic state is 1-A.
 Alpha  occ. eigenvalues --  -11.21671 -11.21670 -11.21636 -11.21605 -11.21469
 Alpha  occ. eigenvalues --  -11.21445 -11.21405 -11.21377 -11.21157 -11.21122
 Alpha  occ. eigenvalues --  -11.21090 -11.21077  -1.08515  -1.08447  -1.03603
 Alpha  occ. eigenvalues --   -1.03547  -0.96034  -0.96012  -0.87052  -0.87027
 Alpha  occ. eigenvalues --   -0.79687  -0.79596  -0.78362  -0.78228  -0.65400
 Alpha  occ. eigenvalues --   -0.64859  -0.61138  -0.60813  -0.59413  -0.59362
 Alpha  occ. eigenvalues --   -0.57645  -0.57621  -0.55346  -0.55273  -0.52725
 Alpha  occ. eigenvalues --   -0.52705  -0.52481  -0.52416  -0.50002  -0.49944
 Alpha  occ. eigenvalues --   -0.48032  -0.47906  -0.46913  -0.46550  -0.46077
 Alpha  occ. eigenvalues --   -0.45832  -0.45761  -0.45325  -0.43839  -0.43819
 Alpha virt. eigenvalues --    0.18578   0.21984   0.23732   0.25069   0.25403
 Alpha virt. eigenvalues --    0.26102   0.26973   0.27641   0.28636   0.29899
 Alpha virt. eigenvalues --    0.31006   0.31471   0.31645   0.31893   0.32544

 Mulliken charges:
               1
     1  C   -0.298923
     2  C   -0.299794
     3  C   -0.475793
     4  H    0.150009
     5  H    0.149867
     6  H    0.152055
     7  H    0.151999
     8  H    0.155482
     9  H    0.155233
    10  H    0.160394
    11  C   -0.299241
    12  C   -0.307153
    13  C   -0.476805
    14  H    0.150106
    15  H    0.149830
    16  H    0.152827
    17  H    0.157879
    18  H    0.155113
    19  H    0.155800
    20  H    0.161157
    21  C   -0.306123
    22  C   -0.299899
    23  C   -0.477632
    24  H    0.149714
    25  H    0.156564
    26  H    0.151917
    27  H    0.153449
    28  H    0.156649
    29  H    0.155122
    30  H    0.160382
    31  C   -0.298044
    32  C   -0.300909
    33  C   -0.475719
    34  H    0.150002
    35  H    0.149333
    36  H    0.152316
    37  H    0.151725
    38  H    0.155169
    39  H    0.155558
    40  H    0.160385
 Sum of Mulliken charges =  -0.00000

 Dipole moment (field-independent basis, Debye):
    X=              0.0087    Y=             -0.0094    Z=             -0.0008  Tot=              0.0128
 Quadrupole moment (field-independent basis, Debye-Ang):
   XX=            -84.0612   YY=            -85.0831   ZZ=            -85.4355
   XY=             -1.2789   XZ=              0.9496   YZ=             -0.5897

 Normal termination of Gaussian 16 at Wed May  5 19:40:40 2021.
