 Gaussian 16, Revision A.03,
 Gaussian 16:  EM64L-G16RevA.03 25-Dec-2016

 -------------
 #p 6-31g* mp2
 -------------

 ------------------------------------------------------
 Input file generated by CHIRIPA (05-May-2021 14:55:25)
 ------------------------------------------------------
 Symbolic Z-matrix:
 Charge =  0 Multiplicity = 1

                         Standard orientation:
 ---------------------------------------------------------------------
 Center     Atomic      Atomic             Coordinates (Angstroms)
 Number     Number       Type             X           Y           Z
 ---------------------------------------------------------------------
      1          6           0       -1.385394    1.260923    0.299139
      2          6           0       -2.533008    1.875735    0.810520
      3          6           0       -3.796206    1.320724    0.585043
      4          6           0       -3.875434    0.144818   -0.159444
      5          6           0       -2.750588   -0.491388   -0.682179
      6          6           0       -1.497649    0.081404   -0.444268
      7          1           0       -0.408096    1.698975    0.479125
      8          1           0       -2.448845    2.791832    1.388212
      9          1           0       -4.701018    1.775818    0.969259
     10          1           0       -2.866269   -1.403896   -1.254337
     11          1           0       -0.608112   -0.398255   -0.842637
     12          7           0       -5.207295   -0.452159   -0.404728
     13          8           0       -5.250260   -1.488726   -1.063757
     14          8           0       -6.183024    0.127802    0.066691
     15          6           0        5.429122   -0.366972    0.016217
     16          6           0        6.004939    0.847749   -0.712393
     17          6           0        7.505453    0.721521   -0.977568
     18          1           0        5.961047   -0.501819    0.967961
     19          1           0        5.622346   -1.269242   -0.580415
     20          1           0        5.809468    1.747638   -0.115227
     21          1           0        5.471452    0.979834   -1.662425
     22          1           0        7.715142   -0.159336   -1.592972
     23          1           0        8.055079    0.612830   -0.036984
     24          1           0        7.896301    1.600694   -1.499250
     25          6           0        3.930052   -0.255639    0.288469
     26          6           0        3.354235   -1.470360    1.017078
     27          6           0        1.853720   -1.344131    1.282254
     28          1           0        3.736827    0.646632    0.885100
     29          1           0        3.398127   -0.120791   -0.663276
     30          1           0        3.887721   -1.602445    1.967110
     31          1           0        3.549706   -2.370248    0.419912
     32          1           0        1.304095   -1.235441    0.341669
     33          1           0        1.644032   -0.463274    1.897658
     34          1           0        1.462873   -2.223305    1.803936
 ---------------------------------------------------------------------

 SCF Done:  E(RHF) =  -669.535334462     A.U. after   15 cycles
 E2 =    -0.2091126422D+01 EUMP2 =    -0.67162646088416D+03

 The electronic state is 1-A.
 Alpha  occ. eigenvalues --  -20.60717 -20.60712 -15.85771 -11.31125 -11.27697
 Alpha  occ. eigenvalues --  -11.27687 -11.27424 -11.26708 -11.26682 -11.22423
 Alpha  occ. eigenvalues --  -11.22229 -11.22188 -11.22105 -11.22026 -11.21549
 Alpha  occ. eigenvalues --   -1.59793  -1.39347  -1.19296  -1.09172  -1.08691
 Alpha  occ. eigenvalues --   -1.04702  -1.04261  -0.96727  -0.95527  -0.87747
 Alpha  occ. eigenvalues --   -0.86097  -0.82363  -0.80332  -0.78978  -0.77414
 Alpha  occ. eigenvalues --   -0.71989  -0.71116  -0.70398  -0.65809  -0.64948
 Alpha  occ. eigenvalues --   -0.64731  -0.62104  -0.61622  -0.60087  -0.58323
 Alpha  occ. eigenvalues --   -0.56048  -0.55181  -0.53408  -0.53252  -0.52984
 Alpha  occ. eigenvalues --   -0.52736  -0.50658  -0.48765  -0.48745  -0.48622
 Alpha  occ. eigenvalues --   -0.47356  -0.46521  -0.46431  -0.44755  -0.44507
 Alpha  occ. eigenvalues --   -0.37263  -0.36296
 Alpha virt. eigenvalues --    0.05120   0.11293   0.16596   0.19874   0.22445
 Alpha virt. eigenvalues --    0.23852   0.25023   0.26127   0.27013   0.27562
 Alpha virt. eigenvalues --    0.29392   0.29610   0.31179   0.31523   0.31958

 Mulliken charges:
               1
     1  C   -0.171530
     2  C   -0.218796
     3  C   -0.171064
     4  C    0.158620
     5  C   -0.172022
     6  C   -0.218444
     7  H    0.226528
     8  H    0.223068
     9  H    0.275344
    10  H    0.275429
    11  H    0.226184
    12  N    0.488055
    13  O   -0.460597
    14  O   -0.460648
    15  C   -0.298610
    16  C   -0.300064
    17  C   -0.476096
    18  H    0.151581
    19  H    0.151343
    20  H    0.151511
    21  H    0.151671
    22  H    0.156284
    23  H    0.156165
    24  H    0.161565
    25  C   -0.298322
    26  C   -0.300188
    27  C   -0.477273
    28  H    0.147477
    29  H    0.145699
    30  H    0.155549
    31  H    0.154703
    32  H    0.146241
    33  H    0.153628
    34  H    0.167011
 Sum of Mulliken charges =  -0.00000

 Dipole moment (field-independent basis, Debye):
    X=              4.8907    Y=              2.0530    Z=              0.9210  Tot=              5.3835
 Quadrupole moment (field-independent basis, Debye-Ang):
   XX=           -131.2093   YY=            -91.4182   ZZ=            -93.4995
   XY=             -9.4848   XZ=             -4.8626   YZ=              2.3705

 Normal termination of Gaussian 16 at Thu May  6 00:02:04 2021.
