 Gaussian 16, Revision A.03,
 Gaussian 16:  EM64L-G16RevA.03 25-Dec-2016

 -------------
 #p 6-31g* mp2
 -------------

 ------------------------------------------------------
 Input file generated by CHIRIPA (05-May-2021 14:55:23)
 ------------------------------------------------------
 Symbolic Z-matrix:
 Charge =  0 Multiplicity = 1

                         Standard orientation:
 ---------------------------------------------------------------------
 Center     Atomic      Atomic             Coordinates (Angstroms)
 Number     Number       Type             X           Y           Z
 ---------------------------------------------------------------------
      1          6           0        1.072861    1.385148    1.756132
      2          6           0        2.165065    1.856063    1.020027
      3          6           0        2.919630    0.982338    0.231494
      4          6           0        2.552257   -0.362083    0.202149
      5          6           0        1.469513   -0.861619    0.924243
      6          6           0        0.729177    0.030199    1.705979
      7          1           0        0.492224    2.070906    2.366044
      8          1           0        2.434282    2.907821    1.057069
      9          1           0        3.769983    1.320122   -0.348350
     10          1           0        1.225461   -1.915471    0.867218
     11          1           0       -0.118539   -0.338327    2.276603
     12          7           0        3.343549   -1.296633   -0.629038
     13          8           0        2.999363   -2.476503   -0.637921
     14          8           0        4.292967   -0.831567   -1.255901
     15          6           0       -2.414799    0.493525   -0.683826
     16          6           0       -2.298443    2.010188   -0.839323
     17          6           0       -0.921983    2.449267   -1.339687
     18          1           0       -1.640832    0.142241    0.012249
     19          1           0       -2.205598    0.015663   -1.650923
     20          1           0       -2.509159    2.485117    0.127454
     21          1           0       -3.072899    2.357926   -1.534960
     22          1           0       -0.706278    2.002420   -2.315598
     23          1           0       -0.139335    2.130335   -0.643738
     24          1           0       -0.860824    3.537066   -1.443654
     25          6           0       -3.785118    0.039102   -0.184370
     26          6           0       -3.901474   -1.477561   -0.028873
     27          6           0       -5.277933   -1.916639    0.471491
     28          1           0       -3.994319    0.516964    0.782727
     29          1           0       -4.559085    0.390386   -0.880444
     30          1           0       -3.127017   -1.825299    0.666765
     31          1           0       -3.690757   -1.952490   -0.995649
     32          1           0       -6.060582   -1.597707   -0.224458
     33          1           0       -5.493639   -1.469793    1.447402
     34          1           0       -5.339092   -3.004440    0.575459
 ---------------------------------------------------------------------

 SCF Done:  E(RHF) =  -669.533905375     A.U. after   15 cycles
 E2 =    -0.2094839035D+01 EUMP2 =    -0.67162874440982D+03

 The electronic state is 1-A.
 Alpha  occ. eigenvalues --  -20.60851 -20.60846 -15.85907 -11.31330 -11.27914
 Alpha  occ. eigenvalues --  -11.27898 -11.27632 -11.26926 -11.26898 -11.22012
 Alpha  occ. eigenvalues --  -11.21939 -11.21768 -11.21633 -11.21416 -11.21147
 Alpha  occ. eigenvalues --   -1.59925  -1.39477  -1.19527  -1.08933  -1.08762
 Alpha  occ. eigenvalues --   -1.04931  -1.03854  -0.96289  -0.95722  -0.87309
 Alpha  occ. eigenvalues --   -0.86315  -0.82551  -0.79930  -0.78603  -0.77583
 Alpha  occ. eigenvalues --   -0.72124  -0.71247  -0.70611  -0.65484  -0.65166
 Alpha  occ. eigenvalues --   -0.64893  -0.62262  -0.61306  -0.59664  -0.57915
 Alpha  occ. eigenvalues --   -0.55659  -0.55408  -0.53403  -0.53016  -0.52974
 Alpha  occ. eigenvalues --   -0.52623  -0.50223  -0.48888  -0.48875  -0.48201
 Alpha  occ. eigenvalues --   -0.46957  -0.46105  -0.46056  -0.44869  -0.44111
 Alpha  occ. eigenvalues --   -0.37392  -0.36468
 Alpha virt. eigenvalues --    0.04925   0.11025   0.16314   0.20372   0.22947
 Alpha virt. eigenvalues --    0.23981   0.25674   0.26610   0.27673   0.28301
 Alpha virt. eigenvalues --    0.28733   0.30654   0.31328   0.31664   0.32091

 Mulliken charges:
               1
     1  C   -0.174567
     2  C   -0.218762
     3  C   -0.168960
     4  C    0.159578
     5  C   -0.170020
     6  C   -0.215925
     7  H    0.227341
     8  H    0.225270
     9  H    0.276650
    10  H    0.276806
    11  H    0.224787
    12  N    0.488070
    13  O   -0.459867
    14  O   -0.459869
    15  C   -0.304110
    16  C   -0.297767
    17  C   -0.486672
    18  H    0.150118
    19  H    0.152866
    20  H    0.144257
    21  H    0.153338
    22  H    0.157384
    23  H    0.166462
    24  H    0.155741
    25  C   -0.298122
    26  C   -0.298281
    27  C   -0.475777
    28  H    0.145343
    29  H    0.151650
    30  H    0.145035
    31  H    0.155653
    32  H    0.156935
    33  H    0.153704
    34  H    0.161710
 Sum of Mulliken charges =  -0.00000

 Dipole moment (field-independent basis, Debye):
    X=             -2.6353    Y=              3.2198    Z=              2.9239  Tot=              5.0854
 Quadrupole moment (field-independent basis, Debye-Ang):
   XX=           -108.4123   YY=            -95.0322   ZZ=            -92.9912
   XY=             11.9829   XZ=              6.8461   YZ=             -1.1540

 Normal termination of Gaussian 16 at Wed May  5 19:03:17 2021.
