 Gaussian 16, Revision A.03,
 Gaussian 16:  EM64L-G16RevA.03 25-Dec-2016

 -------------
 #p 6-31g* mp2
 -------------

 ------------------------------------------------------
 Input file generated by CHIRIPA (05-May-2021 14:51:10)
 ------------------------------------------------------
 Symbolic Z-matrix:
 Charge =  0 Multiplicity = 1

                         Standard orientation:
 ---------------------------------------------------------------------
 Center     Atomic      Atomic             Coordinates (Angstroms)
 Number     Number       Type             X           Y           Z
 ---------------------------------------------------------------------
      1          6           0       -3.338679    0.275289   -0.225497
      2          6           0       -4.850992    0.429049   -0.060412
      3          6           0       -5.452337    1.440892   -1.036296
      4          1           0       -2.859375    1.253543   -0.083257
      5          1           0       -3.118953   -0.033423   -1.256909
      6          1           0       -5.067894    0.736038    0.970766
      7          1           0       -5.326734   -0.549721   -0.202872
      8          1           0       -5.265071    1.136310   -2.071072
      9          1           0       -5.004760    2.429374   -0.890766
     10          1           0       -6.534302    1.535112   -0.900894
     11          6           0       -2.722924   -0.732838    0.743138
     12          6           0       -1.210611   -0.886598    0.578053
     13          6           0       -0.609266   -1.898441    1.553937
     14          1           0       -2.942650   -0.424126    1.774551
     15          1           0       -3.202228   -1.711092    0.600898
     16          1           0       -0.734869    0.092172    0.720513
     17          1           0       -0.993709   -1.193587   -0.453125
     18          1           0       -1.056843   -2.886923    1.408407
     19          1           0       -0.796532   -1.593859    2.588713
     20          1           0        0.472700   -1.992661    1.418536
     21          6           0        2.610984   -0.345841   -0.536313
     22          6           0        3.323762   -1.697603   -0.484607
     23          6           0        2.471144   -2.837235   -1.043242
     24          1           0        1.670555   -0.412565    0.027677
     25          1           0        2.336371   -0.123541   -1.576778
     26          1           0        3.598176   -1.916644    0.555265
     27          1           0        4.262696   -1.627597   -1.048625
     28          1           0        2.208509   -2.645181   -2.088583
     29          1           0        1.540213   -2.935870   -0.475579
     30          1           0        2.999955   -3.794338   -0.996632
     31          6           0        3.450619    0.803390    0.018672
     32          6           0        2.737841    2.155152   -0.033035
     33          6           0        3.590459    3.294784    0.525600
     34          1           0        3.725232    0.581090    1.059136
     35          1           0        4.391048    0.870115   -0.545319
     36          1           0        1.798906    2.085147    0.530984
     37          1           0        2.463427    2.374194   -1.072907
     38          1           0        4.521390    3.393419   -0.042062
     39          1           0        3.853094    3.102730    1.570941
     40          1           0        3.061648    4.251888    0.478990
 ---------------------------------------------------------------------

 SCF Done:  E(RHF) =  -470.732080661     A.U. after   11 cycles
 E2 =    -0.1584566009D+01 EUMP2 =    -0.47231664667006D+03

 The electronic state is 1-A.
 Alpha  occ. eigenvalues --  -11.21657 -11.21616 -11.21597 -11.21570 -11.21437
 Alpha  occ. eigenvalues --  -11.21373 -11.21352 -11.21254 -11.21141 -11.21081
 Alpha  occ. eigenvalues --  -11.21068 -11.21009  -1.08491  -1.08379  -1.03616
 Alpha  occ. eigenvalues --   -1.03480  -0.96038  -0.95950  -0.87056  -0.86963
 Alpha  occ. eigenvalues --   -0.79658  -0.79568  -0.78388  -0.78100  -0.65125
 Alpha  occ. eigenvalues --   -0.65068  -0.61089  -0.60931  -0.59494  -0.59176
 Alpha  occ. eigenvalues --   -0.57620  -0.57566  -0.55415  -0.55154  -0.52752
 Alpha  occ. eigenvalues --   -0.52642  -0.52462  -0.52366  -0.50002  -0.49865
 Alpha  occ. eigenvalues --   -0.47969  -0.47866  -0.46686  -0.46580  -0.46005
 Alpha  occ. eigenvalues --   -0.45764  -0.45675  -0.45401  -0.43823  -0.43749
 Alpha virt. eigenvalues --    0.20743   0.23085   0.23236   0.24414   0.25897
 Alpha virt. eigenvalues --    0.26688   0.26813   0.27541   0.28019   0.29496
 Alpha virt. eigenvalues --    0.30668   0.31174   0.31525   0.31921   0.32460

 Mulliken charges:
               1
     1  C   -0.298385
     2  C   -0.299726
     3  C   -0.475721
     4  H    0.149828
     5  H    0.149821
     6  H    0.151908
     7  H    0.152000
     8  H    0.155256
     9  H    0.155236
    10  H    0.160300
    11  C   -0.297823
    12  C   -0.304044
    13  C   -0.482413
    14  H    0.149559
    15  H    0.149911
    16  H    0.152573
    17  H    0.154882
    18  H    0.155994
    19  H    0.155842
    20  H    0.164544
    21  C   -0.310331
    22  C   -0.299550
    23  C   -0.481968
    24  H    0.164268
    25  H    0.148944
    26  H    0.151008
    27  H    0.152056
    28  H    0.154763
    29  H    0.161784
    30  H    0.160108
    31  C   -0.297470
    32  C   -0.300380
    33  C   -0.475683
    34  H    0.149008
    35  H    0.149467
    36  H    0.151760
    37  H    0.152137
    38  H    0.155340
    39  H    0.155131
    40  H    0.160067
 Sum of Mulliken charges =  -0.00000

 Dipole moment (field-independent basis, Debye):
    X=             -0.0491    Y=             -0.0037    Z=              0.0012  Tot=              0.0493
 Quadrupole moment (field-independent basis, Debye-Ang):
   XX=            -85.3505   YY=            -85.5867   ZZ=            -84.0205
   XY=              0.1822   XZ=             -0.7675   YZ=              0.4388

 Normal termination of Gaussian 16 at Wed May  5 15:11:31 2021.
