 Gaussian 16, Revision A.03,
 Gaussian 16:  EM64L-G16RevA.03 25-Dec-2016

 -------------
 #p 6-31g* mp2
 -------------

 ------------------------------------------------------
 Input file generated by CHIRIPA (05-May-2021 14:55:25)
 ------------------------------------------------------
 Symbolic Z-matrix:
 Charge =  0 Multiplicity = 1

                         Standard orientation:
 ---------------------------------------------------------------------
 Center     Atomic      Atomic             Coordinates (Angstroms)
 Number     Number       Type             X           Y           Z
 ---------------------------------------------------------------------
      1          6           0        3.481226   -0.931019   -1.641459
      2          6           0        3.552496    0.356528   -1.099551
      3          6           0        2.760125    0.710385   -0.003430
      4          6           0        1.903697   -0.252532    0.528183
      5          6           0        1.810092   -1.543535    0.010651
      6          6           0        2.611784   -1.875277   -1.085609
      7          1           0        4.100379   -1.197313   -2.493007
      8          1           0        4.226807    1.091898   -1.529179
      9          1           0        2.795362    1.699935    0.435850
     10          1           0        1.128337   -2.255022    0.460557
     11          1           0        2.554345   -2.875960   -1.504391
     12          7           0        1.059916    0.110374    1.688671
     13          8           0        0.313479   -0.756165    2.138760
     14          8           0        1.160974    1.254486    2.126199
     15          6           0       -2.625268   -0.306077   -0.139609
     16          6           0       -3.841847   -1.123806   -0.574626
     17          6           0       -3.848721   -2.533681    0.016985
     18          1           0       -1.709958   -0.835108   -0.438405
     19          1           0       -2.606767   -0.244518    0.957325
     20          1           0       -3.858814   -1.182637   -1.670467
     21          1           0       -4.754369   -0.592674   -0.274929
     22          1           0       -3.855982   -2.492362    1.110987
     23          1           0       -2.955339   -3.085677   -0.292480
     24          1           0       -4.727026   -3.100704   -0.306938
     25          6           0       -2.604203    1.105676   -0.722907
     26          6           0       -1.387625    1.923406   -0.287890
     27          6           0       -1.380749    3.333280   -0.879500
     28          1           0       -2.622705    1.044118   -1.819841
     29          1           0       -3.519513    1.634708   -0.424111
     30          1           0       -0.475103    1.392274   -0.587587
     31          1           0       -1.370658    1.982236    0.807951
     32          1           0       -2.274132    3.885276   -0.570036
     33          1           0       -1.373489    3.291961   -1.973503
     34          1           0       -0.502446    3.900303   -0.555578
 ---------------------------------------------------------------------

 SCF Done:  E(RHF) =  -669.535887366     A.U. after   15 cycles
 E2 =    -0.2094423318D+01 EUMP2 =    -0.67163031068386D+03

 The electronic state is 1-A.
 Alpha  occ. eigenvalues --  -20.60911 -20.60879 -15.85887 -11.31269 -11.27829
 Alpha  occ. eigenvalues --  -11.27825 -11.27569 -11.26851 -11.26841 -11.21083
 Alpha  occ. eigenvalues --  -11.20881 -11.20756 -11.20623 -11.20613 -11.20566
 Alpha  occ. eigenvalues --   -1.59932  -1.39490  -1.19442  -1.08835  -1.07806
 Alpha  occ. eigenvalues --   -1.04840  -1.02965  -0.95670  -0.95420  -0.86447
 Alpha  occ. eigenvalues --   -0.86236  -0.82506  -0.79046  -0.77702  -0.77485
 Alpha  occ. eigenvalues --   -0.72135  -0.71197  -0.70540  -0.65093  -0.64843
 Alpha  occ. eigenvalues --   -0.64442  -0.62185  -0.60376  -0.58786  -0.57029
 Alpha  occ. eigenvalues --   -0.55339  -0.54718  -0.53180  -0.52928  -0.52144
 Alpha  occ. eigenvalues --   -0.51852  -0.49378  -0.48918  -0.48892  -0.47413
 Alpha  occ. eigenvalues --   -0.46060  -0.45192  -0.44988  -0.44756  -0.43195
 Alpha  occ. eigenvalues --   -0.37379  -0.36436
 Alpha virt. eigenvalues --    0.04939   0.11115   0.16411   0.21260   0.23370
 Alpha virt. eigenvalues --    0.24695   0.26469   0.27397   0.27757   0.28318
 Alpha virt. eigenvalues --    0.28704   0.31047   0.31309   0.32194   0.32401

 Mulliken charges:
               1
     1  C   -0.170820
     2  C   -0.218123
     3  C   -0.171431
     4  C    0.158318
     5  C   -0.172434
     6  C   -0.218678
     7  H    0.225960
     8  H    0.223945
     9  H    0.276018
    10  H    0.276453
    11  H    0.223862
    12  N    0.492325
    13  O   -0.458408
    14  O   -0.459046
    15  C   -0.300378
    16  C   -0.299670
    17  C   -0.473940
    18  H    0.142091
    19  H    0.165714
    20  H    0.147568
    21  H    0.151549
    22  H    0.160263
    23  H    0.149733
    24  H    0.157295
    25  C   -0.297621
    26  C   -0.308127
    27  C   -0.474706
    28  H    0.144097
    29  H    0.149023
    30  H    0.141556
    31  H    0.172786
    32  H    0.155496
    33  H    0.150090
    34  H    0.159243
 Sum of Mulliken charges =  -0.00000

 Dipole moment (field-independent basis, Debye):
    X=              3.0777    Y=             -1.2652    Z=             -3.8205  Tot=              5.0665
 Quadrupole moment (field-independent basis, Debye-Ang):
   XX=            -83.1054   YY=            -91.2046   ZZ=            -99.3586
   XY=             -1.6598   XZ=             -7.4180   YZ=              1.2196

 Normal termination of Gaussian 16 at Thu May  6 03:14:10 2021.
