 Gaussian 16, Revision A.03,
 Gaussian 16:  EM64L-G16RevA.03 25-Dec-2016

 -------------
 #p 6-31g* mp2
 -------------

 ------------------------------------------------------
 Input file generated by CHIRIPA (05-May-2021 14:55:20)
 ------------------------------------------------------
 Symbolic Z-matrix:
 Charge =  0 Multiplicity = 1

                         Standard orientation:
 ---------------------------------------------------------------------
 Center     Atomic      Atomic             Coordinates (Angstroms)
 Number     Number       Type             X           Y           Z
 ---------------------------------------------------------------------
      1          6           0        5.696682   -0.266244    0.623288
      2          6           0        5.340704   -0.364896   -0.725811
      3          6           0        3.995765   -0.359585   -1.107463
      4          6           0        3.028446   -0.253737   -0.109274
      5          6           0        3.351370   -0.153937    1.243150
      6          6           0        4.702631   -0.161265    1.601738
      7          1           0        6.743919   -0.271153    0.910807
      8          1           0        6.110562   -0.446540   -1.487846
      9          1           0        3.692166   -0.434624   -2.144581
     10          1           0        2.561445   -0.073773    1.980042
     11          1           0        4.976153   -0.084511    2.650232
     12          7           0        1.601272   -0.247048   -0.501103
     13          8           0        0.768052   -0.152763    0.397502
     14          8           0        1.342897   -0.336216   -1.699406
     15          6           0       -4.464791   -0.340044   -0.181565
     16          6           0       -5.719322   -0.767506    0.580940
     17          6           0       -6.282328   -2.102260    0.091807
     18          1           0       -4.700315   -0.269956   -1.252341
     19          1           0       -3.698734   -1.121286   -0.080507
     20          1           0       -6.482299    0.014937    0.479623
     21          1           0       -5.480834   -0.836400    1.650049
     22          1           0       -5.540691   -2.899115    0.208418
     23          1           0       -6.547846   -2.042942   -0.968657
     24          1           0       -7.178801   -2.388743    0.650486
     25          6           0       -3.890182    0.992434    0.295986
     26          6           0       -2.635651    1.419897   -0.466519
     27          6           0       -2.072645    2.754650    0.022615
     28          1           0       -4.656239    1.773676    0.194927
     29          1           0       -3.654659    0.922346    1.366761
     30          1           0       -2.874140    1.488790   -1.535628
     31          1           0       -1.872674    0.637453   -0.365203
     32          1           0       -1.807127    2.695332    1.083078
     33          1           0       -2.814283    3.551505   -0.093997
     34          1           0       -1.176172    3.041133   -0.536066
 ---------------------------------------------------------------------

 SCF Done:  E(RHF) =  -669.536618631     A.U. after   15 cycles
 E2 =    -0.2091267931D+01 EUMP2 =    -0.67162788656157D+03

 The electronic state is 1-A.
 Alpha  occ. eigenvalues --  -20.61069 -20.61046 -15.86068 -11.31356 -11.27911
 Alpha  occ. eigenvalues --  -11.27907 -11.27642 -11.26909 -11.26899 -11.20701
 Alpha  occ. eigenvalues --  -11.20312 -11.20222 -11.20060 -11.19771 -11.19669
 Alpha  occ. eigenvalues --   -1.60103  -1.39661  -1.19517  -1.08929  -1.07185
 Alpha  occ. eigenvalues --   -1.04907  -1.02286  -0.95777  -0.94805  -0.86310
 Alpha  occ. eigenvalues --   -0.85834  -0.82612  -0.78382  -0.77670  -0.76933
 Alpha  occ. eigenvalues --   -0.72285  -0.71410  -0.70626  -0.65174  -0.64911
 Alpha  occ. eigenvalues --   -0.63814  -0.62254  -0.59676  -0.58197  -0.56386
 Alpha  occ. eigenvalues --   -0.55413  -0.54110  -0.53241  -0.52998  -0.51531
 Alpha  occ. eigenvalues --   -0.51225  -0.49134  -0.49039  -0.48738  -0.46685
 Alpha  occ. eigenvalues --   -0.45385  -0.45079  -0.44516  -0.44267  -0.42558
 Alpha  occ. eigenvalues --   -0.37494  -0.36506
 Alpha virt. eigenvalues --    0.04858   0.11150   0.16364   0.21287   0.24048
 Alpha virt. eigenvalues --    0.25509   0.27210   0.27865   0.28192   0.28819
 Alpha virt. eigenvalues --    0.29114   0.30862   0.32374   0.32582   0.32980

 Mulliken charges:
               1
     1  C   -0.170437
     2  C   -0.218598
     3  C   -0.170635
     4  C    0.158002
     5  C   -0.170599
     6  C   -0.218548
     7  H    0.226230
     8  H    0.224048
     9  H    0.276023
    10  H    0.275846
    11  H    0.224049
    12  N    0.488972
    13  O   -0.459652
    14  O   -0.458297
    15  C   -0.298177
    16  C   -0.298636
    17  C   -0.474993
    18  H    0.147853
    19  H    0.154236
    20  H    0.149314
    21  H    0.150087
    22  H    0.155032
    23  H    0.154155
    24  H    0.156831
    25  C   -0.297120
    26  C   -0.310751
    27  C   -0.471950
    28  H    0.143009
    29  H    0.146949
    30  H    0.146258
    31  H    0.184271
    32  H    0.152165
    33  H    0.146730
    34  H    0.158334
 Sum of Mulliken charges =  -0.00000

 Dipole moment (field-independent basis, Debye):
    X=              5.4717    Y=             -0.1727    Z=              1.3458  Tot=              5.6374
 Quadrupole moment (field-independent basis, Debye-Ang):
   XX=            -65.8828   YY=            -97.0198   ZZ=            -90.0996
   XY=             -1.9442   XZ=              2.6500   YZ=             -0.4185

 Normal termination of Gaussian 16 at Thu May  6 07:41:13 2021.
