 Gaussian 16, Revision A.03,
 Gaussian 16:  EM64L-G16RevA.03 25-Dec-2016

 -------------
 #p 6-31g* mp2
 -------------

 ------------------------------------------------------
 Input file generated by CHIRIPA (05-May-2021 14:53:17)
 ------------------------------------------------------
 Symbolic Z-matrix:
 Charge =  0 Multiplicity = 1

                         Standard orientation:
 ---------------------------------------------------------------------
 Center     Atomic      Atomic             Coordinates (Angstroms)
 Number     Number       Type             X           Y           Z
 ---------------------------------------------------------------------
      1          6           0        2.898240    0.771152   -0.069136
      2          6           0        3.476851    1.590261   -1.223370
      3          6           0        3.078151    3.064978   -1.159810
      4          1           0        1.803053    0.857153   -0.079778
      5          1           0        3.236417    1.202655    0.883144
      6          1           0        3.138808    1.156511   -2.173214
      7          1           0        4.570778    1.502144   -1.210094
      8          1           0        3.429255    3.519135   -0.227572
      9          1           0        1.989149    3.171538   -1.196164
     10          1           0        3.502551    3.631921   -1.994268
     11          6           0        3.288001   -0.705108   -0.118850
     12          6           0        2.709390   -1.524217    1.035383
     13          6           0        3.108090   -2.998934    0.971823
     14          1           0        2.949824   -1.136611   -1.071130
     15          1           0        4.383188   -0.791109   -0.108209
     16          1           0        1.615463   -1.436100    1.022108
     17          1           0        3.047433   -1.090467    1.985227
     18          1           0        4.197092   -3.105494    1.008177
     19          1           0        2.756986   -3.453091    0.039585
     20          1           0        2.683690   -3.565877    1.806281
     21          6           0       -2.283246    1.961624    1.622082
     22          6           0       -3.264953    1.914309    0.626827
     23          6           0       -3.348148    0.818103   -0.236862
     24          6           0       -2.429383   -0.217935   -0.076285
     25          6           0       -1.439952   -0.200034    0.905547
     26          6           0       -1.375480    0.906162    1.758027
     27          1           0       -2.225890    2.817063    2.288664
     28          1           0       -3.971262    2.732557    0.518927
     29          1           0       -4.098153    0.755673   -1.015972
     30          1           0       -0.749839   -1.030854    0.988616
     31          1           0       -0.612026    0.940202    2.530053
     32          7           0       -2.507548   -1.383727   -0.984701
     33          8           0       -1.686320   -2.283688   -0.822554
     34          8           0       -3.388562   -1.375440   -1.841662
 ---------------------------------------------------------------------

 SCF Done:  E(RHF) =  -669.535777042     A.U. after   15 cycles
 E2 =    -0.2091971180D+01 EUMP2 =    -0.67162774822155D+03

 The electronic state is 1-A.
 Alpha  occ. eigenvalues --  -20.60813 -20.60808 -15.85866 -11.31228 -11.27796
 Alpha  occ. eigenvalues --  -11.27786 -11.27530 -11.26815 -11.26802 -11.21895
 Alpha  occ. eigenvalues --  -11.21745 -11.21593 -11.21483 -11.21265 -11.21062
 Alpha  occ. eigenvalues --   -1.59888  -1.39442  -1.19402  -1.08795  -1.08603
 Alpha  occ. eigenvalues --   -1.04803  -1.03685  -0.96106  -0.95631  -0.87125
 Alpha  occ. eigenvalues --   -0.86199  -0.82461  -0.79773  -0.78449  -0.77502
 Alpha  occ. eigenvalues --   -0.72084  -0.71212  -0.70513  -0.65255  -0.65048
 Alpha  occ. eigenvalues --   -0.64783  -0.62176  -0.61051  -0.59485  -0.57736
 Alpha  occ. eigenvalues --   -0.55385  -0.55297  -0.53135  -0.52913  -0.52795
 Alpha  occ. eigenvalues --   -0.52529  -0.50034  -0.48843  -0.48840  -0.48078
 Alpha  occ. eigenvalues --   -0.46796  -0.45974  -0.45877  -0.44846  -0.43938
 Alpha  occ. eigenvalues --   -0.37379  -0.36387
 Alpha virt. eigenvalues --    0.04983   0.11224   0.16443   0.20201   0.22913
 Alpha virt. eigenvalues --    0.23917   0.25359   0.26727   0.27709   0.28065
 Alpha virt. eigenvalues --    0.29163   0.30564   0.31436   0.31657   0.31941

 Mulliken charges:
               1
     1  C   -0.301030
     2  C   -0.299785
     3  C   -0.476037
     4  H    0.148953
     5  H    0.145666
     6  H    0.155339
     7  H    0.152547
     8  H    0.153042
     9  H    0.154883
    10  H    0.161395
    11  C   -0.298523
    12  C   -0.303660
    13  C   -0.475688
    14  H    0.156396
    15  H    0.150575
    16  H    0.146775
    17  H    0.148513
    18  H    0.155082
    19  H    0.163550
    20  H    0.159946
    21  C   -0.170939
    22  C   -0.218641
    23  C   -0.170494
    24  C    0.158984
    25  C   -0.179670
    26  C   -0.220835
    27  H    0.226057
    28  H    0.223731
    29  H    0.275749
    30  H    0.286561
    31  H    0.225286
    32  N    0.487166
    33  O   -0.460757
    34  O   -0.460137
 Sum of Mulliken charges =  -0.00000

 Dipole moment (field-independent basis, Debye):
    X=              0.2966    Y=              4.0448    Z=              3.1131  Tot=              5.1128
 Quadrupole moment (field-independent basis, Debye-Ang):
   XX=            -92.5122   YY=            -97.1756   ZZ=            -94.4281
   XY=            -12.0121   XZ=             -5.6367   YZ=             -1.7521

 Normal termination of Gaussian 16 at Thu May  6 04:22:47 2021.
