 Gaussian 16, Revision A.03,
 Gaussian 16:  EM64L-G16RevA.03 25-Dec-2016

 -------------
 #p 6-31g* mp2
 -------------

 ------------------------------------------------------
 Input file generated by CHIRIPA (05-May-2021 14:55:20)
 ------------------------------------------------------
 Symbolic Z-matrix:
 Charge =  0 Multiplicity = 1

                         Standard orientation:
 ---------------------------------------------------------------------
 Center     Atomic      Atomic             Coordinates (Angstroms)
 Number     Number       Type             X           Y           Z
 ---------------------------------------------------------------------
      1          6           0       -4.661724    0.357560   -1.666929
      2          6           0       -3.306910    0.622834   -1.891941
      3          6           0       -2.349451    0.294750   -0.927481
      4          6           0       -2.783922   -0.300268    0.255936
      5          6           0       -4.126416   -0.577190    0.509541
      6          6           0       -5.066439   -0.240551   -0.469018
      7          1           0       -5.398729    0.615747   -2.421621
      8          1           0       -2.989713    1.087252   -2.821321
      9          1           0       -1.294122    0.488979   -1.075719
     10          1           0       -4.412165   -1.041016    1.445826
     11          1           0       -6.117926   -0.447733   -0.291550
     12          7           0       -1.779532   -0.652125    1.284430
     13          8           0       -2.188008   -1.175601    2.318720
     14          8           0       -0.602834   -0.397771    1.036798
     15          6           0        3.699482    1.064087   -0.206603
     16          6           0        2.699077    1.700657    0.758772
     17          6           0        2.558362    3.209376    0.554418
     18          1           0        4.678794    1.545607   -0.079993
     19          1           0        3.382415    1.267222   -1.238883
     20          1           0        3.017186    1.495203    1.788924
     21          1           0        1.722079    1.217433    0.629984
     22          1           0        2.218299    3.430328   -0.462508
     23          1           0        3.520765    3.709676    0.703016
     24          1           0        1.838365    3.643955    1.254852
     25          6           0        3.851129   -0.443854   -0.014652
     26          6           0        4.851535   -1.080426   -0.980029
     27          6           0        4.992249   -2.589144   -0.775675
     28          1           0        4.168196   -0.646989    1.017626
     29          1           0        2.871817   -0.925376   -0.141264
     30          1           0        5.828532   -0.597202   -0.851240
     31          1           0        4.533425   -0.874971   -2.010180
     32          1           0        4.029846   -3.089443   -0.924273
     33          1           0        5.332312   -2.810096    0.241251
     34          1           0        5.712245   -3.023723   -1.476108
 ---------------------------------------------------------------------

 SCF Done:  E(RHF) =  -669.536037089     A.U. after   15 cycles
 E2 =    -0.2091076632D+01 EUMP2 =    -0.67162711372063D+03

 The electronic state is 1-A.
 Alpha  occ. eigenvalues --  -20.60952 -20.60938 -15.85990 -11.31308 -11.27877
 Alpha  occ. eigenvalues --  -11.27866 -11.27607 -11.26879 -11.26869 -11.20990
 Alpha  occ. eigenvalues --  -11.20639 -11.20530 -11.20513 -11.20509 -11.20409
 Alpha  occ. eigenvalues --   -1.60011  -1.39568  -1.19477  -1.08880  -1.07645
 Alpha  occ. eigenvalues --   -1.04874  -1.02795  -0.95723  -0.95283  -0.86302
 Alpha  occ. eigenvalues --   -0.86274  -0.82561  -0.78837  -0.77635  -0.77394
 Alpha  occ. eigenvalues --   -0.72214  -0.71325  -0.70586  -0.65136  -0.64877
 Alpha  occ. eigenvalues --   -0.64280  -0.62223  -0.60200  -0.58640  -0.56871
 Alpha  occ. eigenvalues --   -0.55377  -0.54592  -0.53204  -0.52966  -0.51993
 Alpha  occ. eigenvalues --   -0.51698  -0.49245  -0.48968  -0.48962  -0.47157
 Alpha  occ. eigenvalues --   -0.45868  -0.45029  -0.44968  -0.44796  -0.43041
 Alpha  occ. eigenvalues --   -0.37454  -0.36475
 Alpha virt. eigenvalues --    0.04908   0.11180   0.16397   0.21081   0.23423
 Alpha virt. eigenvalues --    0.24818   0.26661   0.27422   0.27828   0.28597
 Alpha virt. eigenvalues --    0.28942   0.30779   0.31772   0.32272   0.32534

 Mulliken charges:
               1
     1  C   -0.170598
     2  C   -0.218526
     3  C   -0.170424
     4  C    0.157825
     5  C   -0.170839
     6  C   -0.218516
     7  H    0.226080
     8  H    0.223934
     9  H    0.275194
    10  H    0.275912
    11  H    0.223893
    12  N    0.494936
    13  O   -0.458706
    14  O   -0.467224
    15  C   -0.297172
    16  C   -0.309711
    17  C   -0.474954
    18  H    0.145981
    19  H    0.142632
    20  H    0.153056
    21  H    0.175065
    22  H    0.147945
    23  H    0.152310
    24  H    0.159749
    25  C   -0.299599
    26  C   -0.298938
    27  C   -0.475102
    28  H    0.150852
    29  H    0.158339
    30  H    0.149787
    31  H    0.148043
    32  H    0.155807
    33  H    0.155855
    34  H    0.157115
 Sum of Mulliken charges =  -0.00000

 Dipole moment (field-independent basis, Debye):
    X=             -3.8058    Y=              1.1217    Z=             -3.5017  Tot=              5.2919
 Quadrupole moment (field-independent basis, Debye-Ang):
   XX=            -72.9089   YY=            -97.4112   ZZ=            -94.9056
   XY=             -0.8692   XZ=              7.8696   YZ=              0.2292

 Normal termination of Gaussian 16 at Thu May  6 07:42:14 2021.
