 Gaussian 16, Revision A.03,
 Gaussian 16:  EM64L-G16RevA.03 25-Dec-2016

 -------------
 #p 6-31g* mp2
 -------------

 ------------------------------------------------------
 Input file generated by CHIRIPA (05-May-2021 14:53:18)
 ------------------------------------------------------
 Symbolic Z-matrix:
 Charge =  0 Multiplicity = 1

                         Standard orientation:
 ---------------------------------------------------------------------
 Center     Atomic      Atomic             Coordinates (Angstroms)
 Number     Number       Type             X           Y           Z
 ---------------------------------------------------------------------
      1          6           0        2.988537   -0.306504   -0.799448
      2          6           0        1.707833    0.527726   -0.756502
      3          6           0        0.621028   -0.009245   -1.688334
      4          1           0        3.367351   -0.332321   -1.830359
      5          1           0        2.751094   -1.344348   -0.527612
      6          1           0        1.947861    1.563987   -1.026994
      7          1           0        1.332129    0.551719    0.274462
      8          1           0        0.352881   -1.035291   -1.416439
      9          1           0        0.972112   -0.017272   -2.725290
     10          1           0       -0.285645    0.602018   -1.641853
     11          6           0        4.084396    0.217784    0.126804
     12          6           0        5.365100   -0.616446    0.083858
     13          6           0        6.451904   -0.079475    1.015691
     14          1           0        4.321839    1.255629   -0.145032
     15          1           0        3.705582    0.243602    1.157715
     16          1           0        5.740804   -0.640439   -0.947106
     17          1           0        5.125072   -1.652706    0.354350
     18          1           0        6.100821   -0.071447    2.052646
     19          1           0        6.720052    0.946572    0.743795
     20          1           0        7.358578   -0.690738    0.969209
     21          6           0       -2.380999    2.528071    0.317369
     22          6           0       -2.209639    1.768053    1.479062
     23          6           0       -2.418478    0.385813    1.460461
     24          6           0       -2.799782   -0.206398    0.257472
     25          6           0       -2.978580    0.523661   -0.916554
     26          6           0       -2.764246    1.904549   -0.874629
     27          1           0       -2.216633    3.601303    0.340879
     28          1           0       -1.912053    2.249604    2.406206
     29          1           0       -2.292938   -0.226539    2.345155
     30          1           0       -3.275751    0.015344   -1.825797
     31          1           0       -2.898072    2.492277   -1.778351
     32          7           0       -3.023779   -1.668998    0.225433
     33          8           0       -3.359267   -2.166859   -0.847050
     34          8           0       -2.859617   -2.289829    1.273411
 ---------------------------------------------------------------------

 SCF Done:  E(RHF) =  -669.534569183     A.U. after   15 cycles
 E2 =    -0.2093295944D+01 EUMP2 =    -0.67162786512712D+03

 The electronic state is 1-A.
 Alpha  occ. eigenvalues --  -20.60809 -20.60801 -15.85862 -11.31232 -11.27851
 Alpha  occ. eigenvalues --  -11.27805 -11.27593 -11.26855 -11.26823 -11.21618
 Alpha  occ. eigenvalues --  -11.21604 -11.21419 -11.21330 -11.21101 -11.20885
 Alpha  occ. eigenvalues --   -1.59883  -1.39435  -1.19445  -1.08824  -1.08429
 Alpha  occ. eigenvalues --   -1.04862  -1.03517  -0.95969  -0.95651  -0.86988
 Alpha  occ. eigenvalues --   -0.86238  -0.82489  -0.79593  -0.78247  -0.77528
 Alpha  occ. eigenvalues --   -0.72081  -0.71208  -0.70543  -0.65093  -0.65060
 Alpha  occ. eigenvalues --   -0.64844  -0.62192  -0.60923  -0.59417  -0.57639
 Alpha  occ. eigenvalues --   -0.55346  -0.55264  -0.53575  -0.52933  -0.52472
 Alpha  occ. eigenvalues --   -0.52072  -0.49902  -0.48841  -0.48834  -0.47901
 Alpha  occ. eigenvalues --   -0.46631  -0.45788  -0.45716  -0.44838  -0.43795
 Alpha  occ. eigenvalues --   -0.37410  -0.36345
 Alpha virt. eigenvalues --    0.04993   0.11170   0.16443   0.21337   0.22843
 Alpha virt. eigenvalues --    0.24310   0.26619   0.27148   0.27471   0.28010
 Alpha virt. eigenvalues --    0.28325   0.30869   0.31386   0.31853   0.32462

 Mulliken charges:
               1
     1  C   -0.298778
     2  C   -0.297731
     3  C   -0.484508
     4  H    0.149575
     5  H    0.152716
     6  H    0.147437
     7  H    0.150172
     8  H    0.158505
     9  H    0.152877
    10  H    0.165011
    11  C   -0.297868
    12  C   -0.299794
    13  C   -0.475641
    14  H    0.147641
    15  H    0.148451
    16  H    0.152083
    17  H    0.153566
    18  H    0.154795
    19  H    0.154218
    20  H    0.160755
    21  C   -0.169191
    22  C   -0.218247
    23  C   -0.171386
    24  C    0.164807
    25  C   -0.173565
    26  C   -0.220180
    27  H    0.226319
    28  H    0.223964
    29  H    0.275908
    30  H    0.276718
    31  H    0.224415
    32  N    0.487721
    33  O   -0.459976
    34  O   -0.460790
 Sum of Mulliken charges =  -0.00000

 Dipole moment (field-independent basis, Debye):
    X=              0.6728    Y=              5.1353    Z=              0.1380  Tot=              5.1810
 Quadrupole moment (field-independent basis, Debye-Ang):
   XX=           -100.3976   YY=            -97.1917   ZZ=            -89.8960
   XY=            -15.0477   XZ=              0.4308   YZ=              0.4369

 Normal termination of Gaussian 16 at Wed May  5 17:18:18 2021.
