 Gaussian 16, Revision A.03,
 Gaussian 16:  EM64L-G16RevA.03 25-Dec-2016

 -------------
 #p 6-31g* mp2
 -------------

 ------------------------------------------------------
 Input file generated by CHIRIPA (05-May-2021 14:53:15)
 ------------------------------------------------------
 Symbolic Z-matrix:
 Charge =  0 Multiplicity = 1

                         Standard orientation:
 ---------------------------------------------------------------------
 Center     Atomic      Atomic             Coordinates (Angstroms)
 Number     Number       Type             X           Y           Z
 ---------------------------------------------------------------------
      1          6           0       -3.073218   -0.907827   -0.042981
      2          6           0       -2.623545   -1.762564    1.142432
      3          6           0       -1.418106   -2.643410    0.812550
      4          1           0       -3.317936   -1.564919   -0.888727
      5          1           0       -2.235211   -0.276690   -0.369792
      6          1           0       -3.462565   -2.390897    1.467790
      7          1           0       -2.380052   -1.103370    1.985516
      8          1           0       -0.564047   -2.029529    0.508685
      9          1           0       -1.652711   -3.324371   -0.011983
     10          1           0       -1.113440   -3.245939    1.673942
     11          6           0       -4.277346   -0.021784    0.271240
     12          6           0       -4.727019    0.832953   -0.914173
     13          6           0       -5.932457    1.713799   -0.584291
     14          1           0       -5.115352   -0.652921    0.598051
     15          1           0       -4.032628    0.635309    1.116986
     16          1           0       -4.970511    0.173759   -1.757257
     17          1           0       -3.887998    1.461286   -1.239531
     18          1           0       -5.697853    2.394760    0.240242
     19          1           0       -6.786516    1.099918   -0.280426
     20          1           0       -6.237124    2.316328   -1.445683
     21          6           0        2.185016    2.699538    0.571224
     22          6           0        3.539554    2.353000    0.530518
     23          6           0        3.931358    1.061420    0.166019
     24          6           0        2.937663    0.137254   -0.153008
     25          6           0        1.580020    0.452097   -0.121827
     26          6           0        1.211289    1.749655    0.245495
     27          1           0        1.889614    3.705191    0.855471
     28          1           0        4.297941    3.088636    0.782973
     29          1           0        4.972865    0.766297    0.126232
     30          1           0        0.846970   -0.302883   -0.378853
     31          1           0        0.158588    2.015968    0.276241
     32          7           0        3.340235   -1.233249   -0.540381
     33          8           0        2.445414   -2.029152   -0.816914
     34          8           0        4.542969   -1.485594   -0.560136
 ---------------------------------------------------------------------

 SCF Done:  E(RHF) =  -669.535376304     A.U. after   15 cycles
 E2 =    -0.2091707310D+01 EUMP2 =    -0.67162708361360D+03

 The electronic state is 1-A.
 Alpha  occ. eigenvalues --  -20.60782 -20.60775 -15.85827 -11.31207 -11.27776
 Alpha  occ. eigenvalues --  -11.27770 -11.27525 -11.26802 -11.26792 -11.22006
 Alpha  occ. eigenvalues --  -11.21845 -11.21788 -11.21754 -11.21431 -11.21007
 Alpha  occ. eigenvalues --   -1.59851  -1.39405  -1.19382  -1.08788  -1.08774
 Alpha  occ. eigenvalues --   -1.04790  -1.03799  -0.96230  -0.95607  -0.87235
 Alpha  occ. eigenvalues --   -0.86188  -0.82439  -0.79854  -0.78610  -0.77483
 Alpha  occ. eigenvalues --   -0.72047  -0.71171  -0.70501  -0.65445  -0.65035
 Alpha  occ. eigenvalues --   -0.64802  -0.62186  -0.61168  -0.59606  -0.57839
 Alpha  occ. eigenvalues --   -0.55554  -0.55273  -0.53114  -0.52930  -0.52879
 Alpha  occ. eigenvalues --   -0.52595  -0.50173  -0.48809  -0.48803  -0.48147
 Alpha  occ. eigenvalues --   -0.46903  -0.46132  -0.46083  -0.44799  -0.44070
 Alpha  occ. eigenvalues --   -0.37363  -0.36389
 Alpha virt. eigenvalues --    0.05026   0.11222   0.16541   0.19050   0.22823
 Alpha virt. eigenvalues --    0.23655   0.25267   0.26677   0.26906   0.28269
 Alpha virt. eigenvalues --    0.29506   0.30607   0.31438   0.31591   0.31839

 Mulliken charges:
               1
     1  C   -0.296719
     2  C   -0.301768
     3  C   -0.478696
     4  H    0.154440
     5  H    0.137534
     6  H    0.153989
     7  H    0.148951
     8  H    0.157257
     9  H    0.160129
    10  H    0.163989
    11  C   -0.298394
    12  C   -0.299058
    13  C   -0.475760
    14  H    0.152513
    15  H    0.147037
    16  H    0.154593
    17  H    0.147536
    18  H    0.153834
    19  H    0.156949
    20  H    0.161132
    21  C   -0.170579
    22  C   -0.218686
    23  C   -0.170214
    24  C    0.157288
    25  C   -0.177368
    26  C   -0.221683
    27  H    0.225679
    28  H    0.223581
    29  H    0.275729
    30  H    0.286844
    31  H    0.223679
    32  N    0.487609
    33  O   -0.461272
    34  O   -0.460098
 Sum of Mulliken charges =  -0.00000

 Dipole moment (field-independent basis, Debye):
    X=             -1.4648    Y=              4.6967    Z=              1.3624  Tot=              5.1049
 Quadrupole moment (field-independent basis, Debye-Ang):
   XX=            -98.3548   YY=            -93.1753   ZZ=            -95.9290
   XY=             16.8919   XZ=              5.2816   YZ=             -0.1719

 Normal termination of Gaussian 16 at Thu May  6 10:34:28 2021.
