 Gaussian 16, Revision A.03,
 Gaussian 16:  EM64L-G16RevA.03 25-Dec-2016

 -------------
 #p 6-31g* mp2
 -------------

 ------------------------------------------------------
 Input file generated by CHIRIPA (05-May-2021 14:53:12)
 ------------------------------------------------------
 Symbolic Z-matrix:
 Charge =  0 Multiplicity = 1

                         Standard orientation:
 ---------------------------------------------------------------------
 Center     Atomic      Atomic             Coordinates (Angstroms)
 Number     Number       Type             X           Y           Z
 ---------------------------------------------------------------------
      1          6           0       -4.382980   -0.448772    0.213182
      2          6           0       -4.420283   -1.764562   -0.564821
      3          6           0       -5.323566   -2.811626    0.087506
      4          1           0       -4.038198   -0.645517    1.237566
      5          1           0       -5.404105   -0.051877    0.297878
      6          1           0       -3.399215   -2.158155   -0.649219
      7          1           0       -4.764832   -1.564634   -1.587528
      8          1           0       -6.352142   -2.443212    0.157528
      9          1           0       -4.978766   -3.040105    1.101169
     10          1           0       -5.335502   -3.744294   -0.485074
     11          6           0       -3.484183    0.607974   -0.426491
     12          6           0       -3.446880    1.923764    0.351512
     13          6           0       -2.543597    2.970828   -0.300815
     14          1           0       -2.463058    0.211079   -0.511187
     15          1           0       -3.828964    0.804719   -1.450875
     16          1           0       -3.102331    1.723836    1.374219
     17          1           0       -4.467947    2.317356    0.435910
     18          1           0       -2.888397    3.199307   -1.314478
     19          1           0       -1.515021    2.602414   -0.370837
     20          1           0       -2.531661    3.903496    0.271765
     21          6           0        5.391683   -0.870001   -0.497699
     22          6           0        4.548590   -0.381643   -1.501304
     23          6           0        3.261923    0.068572   -1.190910
     24          6           0        2.848960    0.015909    0.139495
     25          6           0        3.665545   -0.465142    1.161781
     26          6           0        4.948251   -0.910121    0.828302
     27          1           0        6.389657   -1.217704   -0.747786
     28          1           0        4.890297   -0.349311   -2.531952
     29          1           0        2.588574    0.451505   -1.948130
     30          1           0        3.296810   -0.485003    2.180141
     31          1           0        5.600843   -1.288875    1.609784
     32          7           0        1.488919    0.489759    0.480314
     33          8           0        1.148826    0.432920    1.660036
     34          8           0        0.788767    0.909029   -0.438726
 ---------------------------------------------------------------------

 SCF Done:  E(RHF) =  -669.536833114     A.U. after   15 cycles
 E2 =    -0.2091300986D+01 EUMP2 =    -0.67162813410026D+03

 The electronic state is 1-A.
 Alpha  occ. eigenvalues --  -20.61139 -20.61113 -15.86137 -11.31393 -11.27945
 Alpha  occ. eigenvalues --  -11.27941 -11.27672 -11.26937 -11.26927 -11.20717
 Alpha  occ. eigenvalues --  -11.20363 -11.20255 -11.20066 -11.19892 -11.19256
 Alpha  occ. eigenvalues --   -1.60173  -1.39730  -1.19552  -1.08970  -1.07177
 Alpha  occ. eigenvalues --   -1.04937  -1.02275  -0.95822  -0.94725  -0.86341
 Alpha  occ. eigenvalues --   -0.85748  -0.82657  -0.78400  -0.77718  -0.76935
 Alpha  occ. eigenvalues --   -0.72356  -0.71476  -0.70660  -0.65209  -0.64941
 Alpha  occ. eigenvalues --   -0.63799  -0.62284  -0.59658  -0.58163  -0.56333
 Alpha  occ. eigenvalues --   -0.55446  -0.53994  -0.53273  -0.53028  -0.51468
 Alpha  occ. eigenvalues --   -0.51152  -0.49198  -0.49110  -0.48587  -0.46684
 Alpha  occ. eigenvalues --   -0.45424  -0.45139  -0.44497  -0.44295  -0.42535
 Alpha  occ. eigenvalues --   -0.37528  -0.36535
 Alpha virt. eigenvalues --    0.04793   0.11122   0.16301   0.21257   0.24063
 Alpha virt. eigenvalues --    0.25633   0.27188   0.27836   0.28191   0.28731
 Alpha virt. eigenvalues --    0.29292   0.30840   0.32320   0.32700   0.32796

 Mulliken charges:
               1
     1  C   -0.297816
     2  C   -0.298557
     3  C   -0.474971
     4  H    0.150519
     5  H    0.145364
     6  H    0.151754
     7  H    0.149374
     8  H    0.153618
     9  H    0.154589
    10  H    0.156684
    11  C   -0.302232
    12  C   -0.296198
    13  C   -0.488162
    14  H    0.164949
    15  H    0.143205
    16  H    0.155209
    17  H    0.143434
    18  H    0.145627
    19  H    0.184878
    20  H    0.152013
    21  C   -0.170326
    22  C   -0.218578
    23  C   -0.170648
    24  C    0.157413
    25  C   -0.170380
    26  C   -0.218634
    27  H    0.226387
    28  H    0.224254
    29  H    0.276243
    30  H    0.276019
    31  H    0.224160
    32  N    0.490284
    33  O   -0.458182
    34  O   -0.461293
 Sum of Mulliken charges =  -0.00000

 Dipole moment (field-independent basis, Debye):
    X=              5.2948    Y=             -1.7217    Z=             -1.1486  Tot=              5.6850
 Quadrupole moment (field-independent basis, Debye-Ang):
   XX=            -69.1728   YY=            -96.8842   ZZ=            -90.3546
   XY=             -5.6407   XZ=             -1.4781   YZ=             -1.3248

 Normal termination of Gaussian 16 at Wed May  5 21:43:55 2021.
