 Gaussian 16, Revision A.03,
 Gaussian 16:  EM64L-G16RevA.03 25-Dec-2016

 -------------
 #p 6-31g* mp2
 -------------

 ------------------------------------------------------
 Input file generated by CHIRIPA (05-May-2021 14:51:10)
 ------------------------------------------------------
 Symbolic Z-matrix:
 Charge =  0 Multiplicity = 1

                         Standard orientation:
 ---------------------------------------------------------------------
 Center     Atomic      Atomic             Coordinates (Angstroms)
 Number     Number       Type             X           Y           Z
 ---------------------------------------------------------------------
      1          6           0        2.214699    0.828552   -0.136942
      2          6           0        2.217264    2.292198    0.305460
      3          6           0        0.808681    2.849400    0.513335
      4          1           0        1.640534    0.734813   -1.068871
      5          1           0        1.688496    0.225992    0.616336
      6          1           0        2.744512    2.891611   -0.447753
      7          1           0        2.791651    2.382493    1.236343
      8          1           0        0.276988    2.276430    1.279892
      9          1           0        0.229581    2.788440   -0.413773
     10          1           0        0.833921    3.896959    0.829315
     11          6           0        3.615576    0.257268   -0.348858
     12          6           0        3.613011   -1.206378   -0.791260
     13          6           0        5.021594   -1.763580   -0.999135
     14          1           0        4.141778    0.859828   -1.102135
     15          1           0        4.189741    0.351007    0.583072
     16          1           0        3.038624   -1.296673   -1.722142
     17          1           0        3.085763   -1.805791   -0.038047
     18          1           0        5.600694   -1.702620   -0.072027
     19          1           0        5.553287   -1.190609   -1.765691
     20          1           0        4.996354   -2.811139   -1.315115
     21          6           0       -3.294046   -0.061213   -0.212982
     22          6           0       -4.691722   -0.554589   -0.588572
     23          6           0       -5.437256    0.419887   -1.500915
     24          1           0       -3.377832    0.915869    0.282231
     25          1           0       -2.711687    0.102223   -1.130339
     26          1           0       -5.270817   -0.718366    0.329274
     27          1           0       -4.604613   -1.530698   -1.082778
     28          1           0       -4.883600    0.575772   -2.432455
     29          1           0       -5.553589    1.392719   -1.012380
     30          1           0       -6.434054    0.047469   -1.756958
     31          6           0       -2.536229   -1.024607    0.698781
     32          6           0       -1.138553   -0.531231    1.074372
     33          6           0       -0.393019   -1.505708    1.986715
     34          1           0       -3.118587   -1.188043    1.616138
     35          1           0       -2.452442   -2.001689    0.203568
     36          1           0       -1.225662    0.444877    1.568577
     37          1           0       -0.559458   -0.367454    0.156526
     38          1           0       -0.276685   -2.478539    1.498179
     39          1           0       -0.946675   -1.661592    2.918254
     40          1           0        0.603779   -1.133290    2.242757
 ---------------------------------------------------------------------

 SCF Done:  E(RHF) =  -470.731216995     A.U. after   11 cycles
 E2 =    -0.1585196739D+01 EUMP2 =    -0.47231641373334D+03

 The electronic state is 1-A.
 Alpha  occ. eigenvalues --  -11.21594 -11.21583 -11.21559 -11.21499 -11.21373
 Alpha  occ. eigenvalues --  -11.21358 -11.21313 -11.21272 -11.21117 -11.21065
 Alpha  occ. eigenvalues --  -11.21058 -11.20973  -1.08468  -1.08349  -1.03581
 Alpha  occ. eigenvalues --   -1.03448  -0.96004  -0.95932  -0.87019  -0.86946
 Alpha  occ. eigenvalues --   -0.79775  -0.79442  -0.78447  -0.77976  -0.65084
 Alpha  occ. eigenvalues --   -0.65032  -0.60994  -0.60882  -0.59504  -0.59181
 Alpha  occ. eigenvalues --   -0.57670  -0.57505  -0.55352  -0.55170  -0.52706
 Alpha  occ. eigenvalues --   -0.52628  -0.52527  -0.52286  -0.49997  -0.49832
 Alpha  occ. eigenvalues --   -0.48182  -0.47651  -0.46704  -0.46546  -0.46058
 Alpha  occ. eigenvalues --   -0.45719  -0.45599  -0.45180  -0.43773  -0.43748
 Alpha virt. eigenvalues --    0.21224   0.23090   0.23777   0.24333   0.25276
 Alpha virt. eigenvalues --    0.26087   0.26729   0.27771   0.28963   0.29814
 Alpha virt. eigenvalues --    0.30080   0.31323   0.31753   0.31927   0.32056

 Mulliken charges:
               1
     1  C   -0.308735
     2  C   -0.298866
     3  C   -0.479202
     4  H    0.148229
     5  H    0.162796
     6  H    0.151462
     7  H    0.151066
     8  H    0.160181
     9  H    0.154916
    10  H    0.159234
    11  C   -0.296949
    12  C   -0.300496
    13  C   -0.475570
    14  H    0.149216
    15  H    0.149100
    16  H    0.151344
    17  H    0.152493
    18  H    0.155218
    19  H    0.155191
    20  H    0.160151
    21  C   -0.298199
    22  C   -0.299618
    23  C   -0.475678
    24  H    0.150018
    25  H    0.149129
    26  H    0.151902
    27  H    0.151832
    28  H    0.155021
    29  H    0.155277
    30  H    0.160176
    31  C   -0.297381
    32  C   -0.307680
    33  C   -0.479708
    34  H    0.148871
    35  H    0.149303
    36  H    0.154541
    37  H    0.159461
    38  H    0.155956
    39  H    0.155924
    40  H    0.160074
 Sum of Mulliken charges =  -0.00000

 Dipole moment (field-independent basis, Debye):
    X=             -0.0184    Y=             -0.0097    Z=              0.0076  Tot=              0.0221
 Quadrupole moment (field-independent basis, Debye-Ang):
   XX=            -86.1920   YY=            -85.2718   ZZ=            -83.6456
   XY=              0.6424   XZ=             -0.5200   YZ=              0.4223

 Normal termination of Gaussian 16 at Wed May  5 18:13:05 2021.
