 Gaussian 16, Revision A.03,
 Gaussian 16:  EM64L-G16RevA.03 25-Dec-2016

 -------------
 #p 6-31g* mp2
 -------------

 ------------------------------------------------------
 Input file generated by CHIRIPA (05-May-2021 14:53:16)
 ------------------------------------------------------
 Symbolic Z-matrix:
 Charge =  0 Multiplicity = 1

                         Standard orientation:
 ---------------------------------------------------------------------
 Center     Atomic      Atomic             Coordinates (Angstroms)
 Number     Number       Type             X           Y           Z
 ---------------------------------------------------------------------
      1          6           0       -3.806059   -0.023498    0.083818
      2          6           0       -3.220508   -1.420499   -0.124752
      3          6           0       -4.257197   -2.529370    0.058207
      4          1           0       -4.238160    0.039265    1.091932
      5          1           0       -4.634873    0.128132   -0.621498
      6          1           0       -2.392149   -1.568932    0.579808
      7          1           0       -2.789580   -1.479882   -1.132419
      8          1           0       -5.079663   -2.409197   -0.654330
      9          1           0       -4.679974   -2.498753    1.067625
     10          1           0       -3.817192   -3.519649   -0.095427
     11          6           0       -2.781868    1.095668   -0.095705
     12          6           0       -3.367420    2.492669    0.112865
     13          6           0       -2.330730    3.601540   -0.070094
     14          1           0       -1.953054    0.944037    0.609611
     15          1           0       -2.349767    1.032905   -1.103819
     16          1           0       -3.798347    2.552052    1.120532
     17          1           0       -4.195779    2.641102   -0.591695
     18          1           0       -1.907954    3.570923   -1.079512
     19          1           0       -1.508264    3.481367    0.642443
     20          1           0       -2.770735    4.591819    0.083540
     21          6           0        0.559391   -1.938424   -0.016503
     22          6           0        1.129408   -1.514885   -1.221582
     23          6           0        2.245457   -0.672873   -1.221864
     24          6           0        2.768117   -0.271906    0.006688
     25          6           0        2.222734   -0.676794    1.224026
     26          6           0        1.106908   -1.518767    1.200310
     27          1           0       -0.307496   -2.592504   -0.025605
     28          1           0        0.706311   -1.839210   -2.168075
     29          1           0        2.706632   -0.329899   -2.140072
     30          1           0        2.666762   -0.336779    2.151737
     31          1           0        0.666311   -1.846112    2.137734
     32          7           0        3.949510    0.619473    0.019092
     33          8           0        4.391178    0.958616    1.114787
     34          8           0        4.411448    0.962114   -1.067116
 ---------------------------------------------------------------------

 SCF Done:  E(RHF) =  -669.535137030     A.U. after   15 cycles
 E2 =    -0.2092165476D+01 EUMP2 =    -0.67162730250574D+03

 The electronic state is 1-A.
 Alpha  occ. eigenvalues --  -20.60740 -20.60735 -15.85796 -11.31151 -11.27746
 Alpha  occ. eigenvalues --  -11.27735 -11.27430 -11.26746 -11.26721 -11.22598
 Alpha  occ. eigenvalues --  -11.22066 -11.21977 -11.21948 -11.21838 -11.21273
 Alpha  occ. eigenvalues --   -1.59817  -1.39371  -1.19333  -1.09062  -1.08718
 Alpha  occ. eigenvalues --   -1.04740  -1.04151  -0.96560  -0.95561  -0.87577
 Alpha  occ. eigenvalues --   -0.86136  -0.82405  -0.80272  -0.78829  -0.77444
 Alpha  occ. eigenvalues --   -0.72014  -0.71141  -0.70442  -0.65691  -0.64983
 Alpha  occ. eigenvalues --   -0.64746  -0.62092  -0.61545  -0.59992  -0.58184
 Alpha  occ. eigenvalues --   -0.55833  -0.55231  -0.53298  -0.53049  -0.52970
 Alpha  occ. eigenvalues --   -0.52832  -0.50499  -0.48779  -0.48769  -0.48525
 Alpha  occ. eigenvalues --   -0.47304  -0.46357  -0.46263  -0.44779  -0.44383
 Alpha  occ. eigenvalues --   -0.37255  -0.36349
 Alpha virt. eigenvalues --    0.05081   0.11230   0.16525   0.20333   0.22563
 Alpha virt. eigenvalues --    0.23844   0.25452   0.26278   0.27029   0.27451
 Alpha virt. eigenvalues --    0.29116   0.30355   0.30617   0.31666   0.31989

 Mulliken charges:
               1
     1  C   -0.298236
     2  C   -0.302376
     3  C   -0.476244
     4  H    0.151112
     5  H    0.151791
     6  H    0.145781
     7  H    0.148341
     8  H    0.159438
     9  H    0.158020
    10  H    0.156402
    11  C   -0.298945
    12  C   -0.300382
    13  C   -0.475939
    14  H    0.151302
    15  H    0.149336
    16  H    0.152092
    17  H    0.152191
    18  H    0.156077
    19  H    0.157060
    20  H    0.161743
    21  C   -0.167456
    22  C   -0.220613
    23  C   -0.170589
    24  C    0.158230
    25  C   -0.170679
    26  C   -0.221561
    27  H    0.230472
    28  H    0.223059
    29  H    0.275435
    30  H    0.275395
    31  H    0.222848
    32  N    0.488149
    33  O   -0.460705
    34  O   -0.460549
 Sum of Mulliken charges =  -0.00000

 Dipole moment (field-independent basis, Debye):
    X=             -4.2684    Y=             -3.0506    Z=             -0.0538  Tot=              5.2467
 Quadrupole moment (field-independent basis, Debye-Ang):
   XX=           -118.6780   YY=            -94.5747   ZZ=            -88.7699
   XY=             -8.2990   XZ=              0.0696   YZ=              0.0347

 Normal termination of Gaussian 16 at Wed May  5 21:58:35 2021.
