 Gaussian 16, Revision A.03,
 Gaussian 16:  EM64L-G16RevA.03 25-Dec-2016

 -------------
 #p 6-31g* mp2
 -------------

 ------------------------------------------------------
 Input file generated by CHIRIPA (05-May-2021 14:53:17)
 ------------------------------------------------------
 Symbolic Z-matrix:
 Charge =  0 Multiplicity = 1

                         Standard orientation:
 ---------------------------------------------------------------------
 Center     Atomic      Atomic             Coordinates (Angstroms)
 Number     Number       Type             X           Y           Z
 ---------------------------------------------------------------------
      1          6           0        4.611666    0.240305    0.192947
      2          6           0        5.701752    0.952214   -0.608853
      3          6           0        6.686383    1.713991    0.278836
      4          1           0        4.067303    0.979550    0.796380
      5          1           0        5.082442   -0.455598    0.901102
      6          1           0        5.229011    1.645556   -1.316249
      7          1           0        6.243459    0.211216   -1.210593
      8          1           0        7.184648    1.031750    0.975170
      9          1           0        6.164436    2.474240    0.868914
     10          1           0        7.457120    2.215369   -0.314835
     11          6           0        3.619653   -0.525645   -0.680527
     12          6           0        2.529567   -1.237555    0.121273
     13          6           0        1.544936   -1.999331   -0.766416
     14          1           0        3.148877    0.170258   -1.388682
     15          1           0        4.164016   -1.264890   -1.283960
     16          1           0        1.987860   -0.496556    0.723013
     17          1           0        3.002308   -1.930897    0.828669
     18          1           0        2.066883   -2.759581   -1.356494
     19          1           0        1.046672   -1.317090   -1.462750
     20          1           0        0.774199   -2.500709   -0.172745
     21          6           0       -5.034905    1.578907   -0.759159
     22          6           0       -4.078987    2.120743    0.106378
     23          6           0       -3.066333    1.317056    0.638514
     24          6           0       -3.039452   -0.030406    0.282267
     25          6           0       -3.977485   -0.599675   -0.577569
     26          6           0       -4.981198    0.222818   -1.097773
     27          1           0       -5.818086    2.210535   -1.167900
     28          1           0       -4.118234    3.173562    0.371096
     29          1           0       -2.313611    1.710563    1.310808
     30          1           0       -3.912410   -1.652728   -0.823055
     31          1           0       -5.722248   -0.200700   -1.769727
     32          7           0       -1.972134   -0.891188    0.839299
     33          8           0       -1.970361   -2.075307    0.509912
     34          8           0       -1.157551   -0.365451    1.594742
 ---------------------------------------------------------------------

 SCF Done:  E(RHF) =  -669.536625074     A.U. after   15 cycles
 E2 =    -0.2091600926D+01 EUMP2 =    -0.67162822600019D+03

 The electronic state is 1-A.
 Alpha  occ. eigenvalues --  -20.61019 -20.61008 -15.86021 -11.31326 -11.27884
 Alpha  occ. eigenvalues --  -11.27878 -11.27618 -11.26885 -11.26875 -11.21017
 Alpha  occ. eigenvalues --  -11.20607 -11.20596 -11.20402 -11.20185 -11.19491
 Alpha  occ. eigenvalues --   -1.60053  -1.39612  -1.19489  -1.08897  -1.07523
 Alpha  occ. eigenvalues --   -1.04881  -1.02539  -0.95744  -0.95001  -0.86283
 Alpha  occ. eigenvalues --   -0.86030  -0.82577  -0.78652  -0.77634  -0.77278
 Alpha  occ. eigenvalues --   -0.72239  -0.71363  -0.70598  -0.65144  -0.64885
 Alpha  occ. eigenvalues --   -0.64170  -0.62228  -0.59954  -0.58411  -0.56567
 Alpha  occ. eigenvalues --   -0.55384  -0.54332  -0.53214  -0.52973  -0.51670
 Alpha  occ. eigenvalues --   -0.51441  -0.49034  -0.49002  -0.48927  -0.46941
 Alpha  occ. eigenvalues --   -0.45736  -0.45082  -0.44825  -0.44653  -0.42744
 Alpha  occ. eigenvalues --   -0.37464  -0.36481
 Alpha virt. eigenvalues --    0.04857   0.11175   0.16344   0.21307   0.23681
 Alpha virt. eigenvalues --    0.25336   0.27232   0.27485   0.28157   0.28420
 Alpha virt. eigenvalues --    0.28992   0.30896   0.32263   0.32379   0.32638

 Mulliken charges:
               1
     1  C   -0.297337
     2  C   -0.298683
     3  C   -0.475086
     4  H    0.149165
     5  H    0.149031
     6  H    0.149718
     7  H    0.150820
     8  H    0.154936
     9  H    0.154135
    10  H    0.157899
    11  C   -0.297211
    12  C   -0.301144
    13  C   -0.483727
    14  H    0.145003
    15  H    0.146244
    16  H    0.163099
    17  H    0.149335
    18  H    0.146245
    19  H    0.143845
    20  H    0.187262
    21  C   -0.170483
    22  C   -0.218613
    23  C   -0.170826
    24  C    0.159029
    25  C   -0.170527
    26  C   -0.218602
    27  H    0.226125
    28  H    0.223899
    29  H    0.275702
    30  H    0.276135
    31  H    0.223999
    32  N    0.489457
    33  O   -0.458910
    34  O   -0.459937
 Sum of Mulliken charges =  -0.00000

 Dipole moment (field-independent basis, Debye):
    X=             -4.1332    Y=              2.9827    Z=             -1.8108  Tot=              5.4092
 Quadrupole moment (field-independent basis, Debye-Ang):
   XX=            -73.0624   YY=            -91.7128   ZZ=            -95.7568
   XY=             -8.6751   XZ=              6.2033   YZ=              2.6261

 Normal termination of Gaussian 16 at Thu May  6 10:39:56 2021.
