 Gaussian 16, Revision A.03,
 Gaussian 16:  EM64L-G16RevA.03 25-Dec-2016

 -------------
 #p 6-31g* mp2
 -------------

 ------------------------------------------------------
 Input file generated by CHIRIPA (05-May-2021 14:55:20)
 ------------------------------------------------------
 Symbolic Z-matrix:
 Charge =  0 Multiplicity = 1

                         Standard orientation:
 ---------------------------------------------------------------------
 Center     Atomic      Atomic             Coordinates (Angstroms)
 Number     Number       Type             X           Y           Z
 ---------------------------------------------------------------------
      1          6           0        1.426442   -2.461917    1.068794
      2          6           0        0.759580   -2.058107   -0.092564
      3          6           0        1.113520   -0.869326   -0.737601
      4          6           0        2.143617   -0.105240   -0.191373
      5          6           0        2.826919   -0.480741    0.964216
      6          6           0        2.456167   -1.673335    1.592555
      7          1           0        1.144963   -3.386873    1.563389
      8          1           0       -0.040502   -2.668533   -0.501580
      9          1           0        0.613928   -0.533040   -1.638011
     10          1           0        3.620431    0.148811    1.348171
     11          1           0        2.975808   -1.984458    2.494343
     12          7           0        2.527216    1.155288   -0.865406
     13          8           0        3.438151    1.810677   -0.364109
     14          8           0        1.909682    1.464033   -1.882247
     15          6           0       -2.910676    1.099261    0.287030
     16          6           0       -1.784703    2.061071    0.667941
     17          6           0       -2.296200    3.454684    1.034012
     18          1           0       -3.472490    1.519033   -0.558607
     19          1           0       -3.617508    1.023048    1.124869
     20          1           0       -1.079470    2.134378   -0.169846
     21          1           0       -1.225385    1.638870    1.512646
     22          1           0       -2.983479    3.401668    1.884563
     23          1           0       -2.836736    3.899991    0.192511
     24          1           0       -1.474710    4.126008    1.302967
     25          6           0       -2.415135   -0.298005   -0.081501
     26          6           0       -3.541108   -1.259815   -0.462412
     27          6           0       -3.029611   -2.653428   -0.828483
     28          1           0       -1.708303   -0.221792   -0.919340
     29          1           0       -1.853320   -0.717777    0.764136
     30          1           0       -4.100425   -0.837614   -1.307117
     31          1           0       -4.246341   -1.333122    0.375375
     32          1           0       -2.489076   -3.098735    0.013019
     33          1           0       -2.342331   -2.600412   -1.679033
     34          1           0       -3.851101   -3.324752   -1.097438
 ---------------------------------------------------------------------

 SCF Done:  E(RHF) =  -669.533709961     A.U. after   15 cycles
 E2 =    -0.2095099420D+01 EUMP2 =    -0.67162880938131D+03

 The electronic state is 1-A.
 Alpha  occ. eigenvalues --  -20.60782 -20.60777 -15.85819 -11.31126 -11.27673
 Alpha  occ. eigenvalues --  -11.27655 -11.27406 -11.26700 -11.26586 -11.22194
 Alpha  occ. eigenvalues --  -11.22066 -11.21764 -11.21534 -11.21469 -11.20888
 Alpha  occ. eigenvalues --   -1.59846  -1.39403  -1.19291  -1.08767  -1.08682
 Alpha  occ. eigenvalues --   -1.04691  -1.03843  -0.96337  -0.95544  -0.87363
 Alpha  occ. eigenvalues --   -0.86087  -0.82403  -0.79961  -0.78561  -0.77372
 Alpha  occ. eigenvalues --   -0.72042  -0.71158  -0.70419  -0.65417  -0.64937
 Alpha  occ. eigenvalues --   -0.64691  -0.62075  -0.61236  -0.59714  -0.57939
 Alpha  occ. eigenvalues --   -0.55650  -0.55191  -0.53233  -0.53019  -0.52910
 Alpha  occ. eigenvalues --   -0.52444  -0.50297  -0.48807  -0.48797  -0.48216
 Alpha  occ. eigenvalues --   -0.46972  -0.46043  -0.45917  -0.44786  -0.44066
 Alpha  occ. eigenvalues --   -0.37270  -0.36152
 Alpha virt. eigenvalues --    0.05088   0.11213   0.16549   0.20062   0.22939
 Alpha virt. eigenvalues --    0.24031   0.24946   0.26266   0.27037   0.28578
 Alpha virt. eigenvalues --    0.30169   0.30594   0.31155   0.31488   0.32147

 Mulliken charges:
               1
     1  C   -0.174947
     2  C   -0.219012
     3  C   -0.170245
     4  C    0.158735
     5  C   -0.172179
     6  C   -0.218246
     7  H    0.225041
     8  H    0.233410
     9  H    0.274145
    10  H    0.275030
    11  H    0.222856
    12  N    0.488394
    13  O   -0.459958
    14  O   -0.461681
    15  C   -0.297900
    16  C   -0.304476
    17  C   -0.475832
    18  H    0.151372
    19  H    0.148796
    20  H    0.160730
    21  H    0.150215
    22  H    0.152752
    23  H    0.156437
    24  H    0.164122
    25  C   -0.301464
    26  C   -0.298440
    27  C   -0.480950
    28  H    0.145083
    29  H    0.152071
    30  H    0.155702
    31  H    0.154342
    32  H    0.149490
    33  H    0.150092
    34  H    0.166515
 Sum of Mulliken charges =  -0.00000

 Dipole moment (field-independent basis, Debye):
    X=             -1.4445    Y=             -4.3399    Z=              2.3698  Tot=              5.1514
 Quadrupole moment (field-independent basis, Debye-Ang):
   XX=            -98.3588   YY=            -95.2908   ZZ=            -92.9061
   XY=             -8.5154   XZ=              8.2888   YZ=              0.5592

 Normal termination of Gaussian 16 at Thu May  6 04:33:52 2021.
