 Gaussian 16, Revision A.03,
 Gaussian 16:  EM64L-G16RevA.03 25-Dec-2016

 -------------
 #p 6-31g* mp2
 -------------

 ------------------------------------------------------
 Input file generated by CHIRIPA (05-May-2021 14:53:12)
 ------------------------------------------------------
 Symbolic Z-matrix:
 Charge =  0 Multiplicity = 1

                         Standard orientation:
 ---------------------------------------------------------------------
 Center     Atomic      Atomic             Coordinates (Angstroms)
 Number     Number       Type             X           Y           Z
 ---------------------------------------------------------------------
      1          6           0        2.344274    1.393719   -0.122236
      2          6           0        0.956705    1.875027   -0.547654
      3          6           0        0.801146    3.392798   -0.447830
      4          1           0        2.536736    1.716354    0.910145
      5          1           0        3.102583    1.882976   -0.749125
      6          1           0        0.201157    1.383956    0.078934
      7          1           0        0.767447    1.551043   -1.579076
      8          1           0        1.533087    3.897895   -1.086375
      9          1           0        0.963579    3.729859    0.581055
     10          1           0       -0.198152    3.715120   -0.756657
     11          6           0        2.515214   -0.121410   -0.216540
     12          6           0        3.902783   -0.602718    0.208878
     13          6           0        4.058343   -2.120489    0.109055
     14          1           0        1.756905   -0.610667    0.410349
     15          1           0        2.322753   -0.444045   -1.248920
     16          1           0        4.092041   -0.278734    1.240300
     17          1           0        4.658332   -0.111647   -0.417710
     18          1           0        3.895909   -2.457550   -0.919831
     19          1           0        3.326401   -2.625587    0.747600
     20          1           0        5.057640   -2.442812    0.417881
     21          6           0       -2.075641   -0.984145   -2.336904
     22          6           0       -2.556508    0.225842   -1.825808
     23          6           0       -2.463464    0.506415   -0.459364
     24          6           0       -1.881087   -0.449900    0.371051
     25          6           0       -1.392788   -1.664553   -0.107982
     26          6           0       -1.496337   -1.923825   -1.477875
     27          1           0       -2.151999   -1.193828   -3.399729
     28          1           0       -3.006883    0.957467   -2.490588
     29          1           0       -2.827617    1.435107   -0.037057
     30          1           0       -0.948901   -2.374294    0.579513
     31          1           0       -1.122039   -2.864359   -1.872006
     32          7           0       -1.777025   -0.164145    1.819469
     33          8           0       -1.259671   -1.023189    2.530119
     34          8           0       -2.214786    0.913463    2.216663
 ---------------------------------------------------------------------

 SCF Done:  E(RHF) =  -669.534266199     A.U. after   15 cycles
 E2 =    -0.2095220751D+01 EUMP2 =    -0.67162948695035D+03

 The electronic state is 1-A.
 Alpha  occ. eigenvalues --  -20.60894 -20.60875 -15.85914 -11.31180 -11.27806
 Alpha  occ. eigenvalues --  -11.27776 -11.27552 -11.26812 -11.26802 -11.21521
 Alpha  occ. eigenvalues --  -11.21427 -11.21307 -11.21211 -11.21091 -11.20976
 Alpha  occ. eigenvalues --   -1.59954  -1.39508  -1.19413  -1.08822  -1.08328
 Alpha  occ. eigenvalues --   -1.04806  -1.03450  -0.95910  -0.95656  -0.86929
 Alpha  occ. eigenvalues --   -0.86210  -0.82489  -0.79531  -0.78173  -0.77537
 Alpha  occ. eigenvalues --   -0.72140  -0.71297  -0.70525  -0.65068  -0.64955
 Alpha  occ. eigenvalues --   -0.64805  -0.62158  -0.60850  -0.59308  -0.57543
 Alpha  occ. eigenvalues --   -0.55316  -0.55190  -0.53261  -0.52897  -0.52567
 Alpha  occ. eigenvalues --   -0.52338  -0.49847  -0.48905  -0.48894  -0.47831
 Alpha  occ. eigenvalues --   -0.46577  -0.45640  -0.45619  -0.44892  -0.43701
 Alpha  occ. eigenvalues --   -0.37286  -0.36347
 Alpha virt. eigenvalues --    0.04953   0.11138   0.16455   0.21193   0.22927
 Alpha virt. eigenvalues --    0.24142   0.26225   0.27102   0.27293   0.27940
 Alpha virt. eigenvalues --    0.28636   0.30994   0.31174   0.31711   0.31957

 Mulliken charges:
               1
     1  C   -0.298846
     2  C   -0.301317
     3  C   -0.474349
     4  H    0.154243
     5  H    0.147548
     6  H    0.154990
     7  H    0.147658
     8  H    0.153431
     9  H    0.161157
    10  H    0.153876
    11  C   -0.299510
    12  C   -0.299452
    13  C   -0.475920
    14  H    0.151395
    15  H    0.144990
    16  H    0.155737
    17  H    0.150940
    18  H    0.151150
    19  H    0.155712
    20  H    0.161110
    21  C   -0.171223
    22  C   -0.215340
    23  C   -0.170380
    24  C    0.154942
    25  C   -0.169728
    26  C   -0.217426
    27  H    0.225784
    28  H    0.223583
    29  H    0.275371
    30  H    0.275406
    31  H    0.223910
    32  N    0.491268
    33  O   -0.460815
    34  O   -0.459892
 Sum of Mulliken charges =  -0.00000

 Dipole moment (field-independent basis, Debye):
    X=             -0.4295    Y=             -1.0204    Z=             -5.0348  Tot=              5.1551
 Quadrupole moment (field-independent basis, Debye-Ang):
   XX=            -93.0840   YY=            -91.3738   ZZ=            -98.1543
   XY=              0.2298   XZ=              9.9658   YZ=              1.3045

 Normal termination of Gaussian 16 at Thu May  6 02:32:54 2021.
