 Gaussian 16, Revision A.03,
 Gaussian 16:  EM64L-G16RevA.03 25-Dec-2016

 -------------
 #p 6-31g* mp2
 -------------

 ------------------------------------------------------
 Input file generated by CHIRIPA (05-May-2021 14:53:15)
 ------------------------------------------------------
 Symbolic Z-matrix:
 Charge =  0 Multiplicity = 1

                         Standard orientation:
 ---------------------------------------------------------------------
 Center     Atomic      Atomic             Coordinates (Angstroms)
 Number     Number       Type             X           Y           Z
 ---------------------------------------------------------------------
      1          6           0        4.285510    0.713598    0.058378
      2          6           0        3.666442    1.958472   -0.578041
      3          6           0        4.492486    3.221305   -0.331674
      4          1           0        4.393889    0.877499    1.139274
      5          1           0        5.299961    0.572743   -0.339672
      6          1           0        2.652944    2.096150   -0.179942
      7          1           0        3.559347    1.791514   -1.657518
      8          1           0        5.500249    3.109072   -0.744493
      9          1           0        4.588696    3.415438    0.741478
     10          1           0        4.031779    4.099185   -0.795285
     11          6           0        3.471207   -0.556912   -0.179202
     12          6           0        4.090275   -1.801786    0.457217
     13          6           0        3.264231   -3.064620    0.210851
     14          1           0        2.456756   -0.416058    0.218848
     15          1           0        3.362828   -0.720814   -1.260097
     16          1           0        4.197371   -1.634829    1.536695
     17          1           0        5.103773   -1.939464    0.059118
     18          1           0        3.168021   -3.258753   -0.862302
     19          1           0        2.256468   -2.952386    0.623670
     20          1           0        3.724938   -3.942500    0.674461
     21          6           0       -0.705633   -1.037566    0.147758
     22          6           0       -1.021497    0.097109    0.902252
     23          6           0       -2.306117    0.646656    0.854285
     24          6           0       -3.254676    0.033186    0.037475
     25          6           0       -2.970630   -1.098054   -0.726007
     26          6           0       -1.679491   -1.630482   -0.662534
     27          1           0        0.294822   -1.457819    0.191043
     28          1           0       -0.267196    0.559678    1.532415
     29          1           0       -2.577699    1.524438    1.428011
     30          1           0       -3.743721   -1.537008   -1.344930
     31          1           0       -1.437022   -2.511754   -1.249572
     32          7           0       -4.618095    0.605905   -0.021514
     33          8           0       -5.435907    0.046730   -0.748937
     34          8           0       -4.843115    1.603132    0.660792
 ---------------------------------------------------------------------

 SCF Done:  E(RHF) =  -669.535134184     A.U. after   15 cycles
 E2 =    -0.2091992995D+01 EUMP2 =    -0.67162712717913D+03

 The electronic state is 1-A.
 Alpha  occ. eigenvalues --  -20.60722 -20.60717 -15.85777 -11.31132 -11.27710
 Alpha  occ. eigenvalues --  -11.27700 -11.27386 -11.26719 -11.26693 -11.22681
 Alpha  occ. eigenvalues --  -11.22556 -11.22365 -11.22318 -11.22263 -11.21670
 Alpha  occ. eigenvalues --   -1.59799  -1.39352  -1.19303  -1.09431  -1.08695
 Alpha  occ. eigenvalues --   -1.04709  -1.04472  -0.96936  -0.95536  -0.87948
 Alpha  occ. eigenvalues --   -0.86105  -0.82378  -0.80544  -0.79240  -0.77420
 Alpha  occ. eigenvalues --   -0.71994  -0.71122  -0.70440  -0.66069  -0.64953
 Alpha  occ. eigenvalues --   -0.64708  -0.62060  -0.61869  -0.60314  -0.58537
 Alpha  occ. eigenvalues --   -0.56250  -0.55231  -0.53586  -0.53370  -0.53028
 Alpha  occ. eigenvalues --   -0.52800  -0.50890  -0.48851  -0.48750  -0.48739
 Alpha  occ. eigenvalues --   -0.47566  -0.46744  -0.46672  -0.44760  -0.44730
 Alpha  occ. eigenvalues --   -0.37267  -0.36316
 Alpha virt. eigenvalues --    0.05106   0.11301   0.16568   0.18936   0.22332
 Alpha virt. eigenvalues --    0.23283   0.25081   0.25941   0.26288   0.28145
 Alpha virt. eigenvalues --    0.29352   0.30471   0.30898   0.31244   0.31746

 Mulliken charges:
               1
     1  C   -0.298836
     2  C   -0.299724
     3  C   -0.476413
     4  H    0.150349
     5  H    0.153293
     6  H    0.149046
     7  H    0.154338
     8  H    0.156912
     9  H    0.155566
    10  H    0.163228
    11  C   -0.301643
    12  C   -0.300755
    13  C   -0.480075
    14  H    0.139989
    15  H    0.152844
    16  H    0.154120
    17  H    0.157249
    18  H    0.157137
    19  H    0.147655
    20  H    0.167165
    21  C   -0.178062
    22  C   -0.222410
    23  C   -0.170528
    24  C    0.158068
    25  C   -0.170554
    26  C   -0.221489
    27  H    0.239455
    28  H    0.222623
    29  H    0.275322
    30  H    0.275395
    31  H    0.223935
    32  N    0.488013
    33  O   -0.460550
    34  O   -0.460664
 Sum of Mulliken charges =  -0.00000

 Dipole moment (field-independent basis, Debye):
    X=              5.0900    Y=             -2.0060    Z=              0.1496  Tot=              5.4731
 Quadrupole moment (field-independent basis, Debye-Ang):
   XX=           -125.1021   YY=            -93.2885   ZZ=            -92.3972
   XY=              7.2298   XZ=             -0.0846   YZ=              2.6669

 Normal termination of Gaussian 16 at Thu May  6 01:05:39 2021.
