 Gaussian 16, Revision A.03,
 Gaussian 16:  EM64L-G16RevA.03 25-Dec-2016

 -------------
 #p 6-31g* mp2
 -------------

 ------------------------------------------------------
 Input file generated by CHIRIPA (05-May-2021 14:53:12)
 ------------------------------------------------------
 Symbolic Z-matrix:
 Charge =  0 Multiplicity = 1

                         Standard orientation:
 ---------------------------------------------------------------------
 Center     Atomic      Atomic             Coordinates (Angstroms)
 Number     Number       Type             X           Y           Z
 ---------------------------------------------------------------------
      1          6           0        2.655063    0.710004   -0.305231
      2          6           0        3.474644    1.859415   -0.892705
      3          6           0        2.726212    3.192456   -0.867322
      4          1           0        1.714726    0.614913   -0.865292
      5          1           0        2.379107    0.956993    0.729293
      6          1           0        3.750147    1.609727   -1.925357
      7          1           0        4.413225    1.951657   -0.331302
      8          1           0        2.464728    3.467957    0.159482
      9          1           0        1.797882    3.124084   -1.443629
     10          1           0        3.330409    4.000243   -1.291923
     11          6           0        3.389831   -0.629214   -0.323605
     12          6           0        2.570250   -1.778626    0.263869
     13          6           0        3.318683   -3.111667    0.238486
     14          1           0        3.665788   -0.876203   -1.358129
     15          1           0        4.330169   -0.534124    0.236456
     16          1           0        1.631669   -1.870868   -0.297534
     17          1           0        2.294748   -1.528937    1.296521
     18          1           0        4.247012   -3.043294    0.814793
     19          1           0        3.580166   -3.387167   -0.788318
     20          1           0        2.714485   -3.919453    0.663087
     21          6           0       -1.031381    0.659165    2.275461
     22          6           0       -0.756932   -0.555775    1.638972
     23          6           0       -1.487438   -0.948636    0.513552
     24          6           0       -2.489857   -0.098335    0.049403
     25          6           0       -2.787022    1.118260    0.661679
     26          6           0       -2.043766    1.490839    1.785646
     27          1           0       -0.458955    0.956471    3.149150
     28          1           0        0.028721   -1.203670    2.017161
     29          1           0       -1.295902   -1.883803    0.001504
     30          1           0       -3.576285    1.742981    0.261422
     31          1           0       -2.259101    2.434944    2.277928
     32          7           0       -3.269960   -0.503503   -1.141260
     33          8           0       -4.147956    0.263453   -1.530538
     34          8           0       -2.988637   -1.580359   -1.662678
 ---------------------------------------------------------------------

 SCF Done:  E(RHF) =  -669.535066902     A.U. after   15 cycles
 E2 =    -0.2092910083D+01 EUMP2 =    -0.67162797698411D+03

 The electronic state is 1-A.
 Alpha  occ. eigenvalues --  -20.60757 -20.60752 -15.85809 -11.31161 -11.27708
 Alpha  occ. eigenvalues --  -11.27699 -11.27442 -11.26739 -11.26675 -11.22399
 Alpha  occ. eigenvalues --  -11.21949 -11.21920 -11.21783 -11.21668 -11.21389
 Alpha  occ. eigenvalues --   -1.59833  -1.39387  -1.19320  -1.08952  -1.08715
 Alpha  occ. eigenvalues --   -1.04719  -1.04046  -0.96459  -0.95560  -0.87481
 Alpha  occ. eigenvalues --   -0.86120  -0.82401  -0.80159  -0.78767  -0.77417
 Alpha  occ. eigenvalues --   -0.72027  -0.71156  -0.70432  -0.65604  -0.64968
 Alpha  occ. eigenvalues --   -0.64711  -0.62093  -0.61439  -0.59835  -0.58084
 Alpha  occ. eigenvalues --   -0.55731  -0.55225  -0.53237  -0.53027  -0.52912
 Alpha  occ. eigenvalues --   -0.52763  -0.50396  -0.48797  -0.48784  -0.48419
 Alpha  occ. eigenvalues --   -0.47178  -0.46270  -0.46196  -0.44795  -0.44285
 Alpha  occ. eigenvalues --   -0.37287  -0.36270
 Alpha virt. eigenvalues --    0.05055   0.11258   0.16500   0.20291   0.22723
 Alpha virt. eigenvalues --    0.23777   0.25102   0.25864   0.27425   0.28350
 Alpha virt. eigenvalues --    0.28961   0.29508   0.31192   0.31520   0.32048

 Mulliken charges:
               1
     1  C   -0.298148
     2  C   -0.300411
     3  C   -0.475477
     4  H    0.154564
     5  H    0.143737
     6  H    0.154341
     7  H    0.151312
     8  H    0.151858
     9  H    0.157873
    10  H    0.161554
    11  C   -0.298222
    12  C   -0.303732
    13  C   -0.475677
    14  H    0.153671
    15  H    0.150164
    16  H    0.153075
    17  H    0.142456
    18  H    0.156656
    19  H    0.160070
    20  H    0.159111
    21  C   -0.172632
    22  C   -0.214711
    23  C   -0.174880
    24  C    0.158426
    25  C   -0.171563
    26  C   -0.217914
    27  H    0.224893
    28  H    0.228835
    29  H    0.275360
    30  H    0.275336
    31  H    0.223253
    32  N    0.488072
    33  O   -0.460458
    34  O   -0.460792
 Sum of Mulliken charges =  -0.00000

 Dipole moment (field-independent basis, Debye):
    X=              2.8445    Y=              1.4360    Z=              4.0973  Tot=              5.1905
 Quadrupole moment (field-independent basis, Debye-Ang):
   XX=           -107.4693   YY=            -92.6488   ZZ=            -94.1433
   XY=             -6.0935   XZ=            -10.5339   YZ=              0.2644

 Normal termination of Gaussian 16 at Thu May  6 10:23:21 2021.
