 Gaussian 16, Revision A.03,
 Gaussian 16:  EM64L-G16RevA.03 25-Dec-2016

 -------------
 #p 6-31g* mp2
 -------------

 ------------------------------------------------------
 Input file generated by CHIRIPA (05-May-2021 14:51:12)
 ------------------------------------------------------
 Symbolic Z-matrix:
 Charge =  0 Multiplicity = 1

                         Standard orientation:
 ---------------------------------------------------------------------
 Center     Atomic      Atomic             Coordinates (Angstroms)
 Number     Number       Type             X           Y           Z
 ---------------------------------------------------------------------
      1          6           0        2.900682    0.689013   -0.789724
      2          6           0        2.052348    1.854590   -0.280070
      3          6           0        2.382101    3.174879   -0.977130
      4          1           0        3.963480    0.926425   -0.644671
      5          1           0        2.749587    0.580679   -1.872696
      6          1           0        2.203937    1.959815    0.801856
      7          1           0        0.991440    1.614294   -0.426178
      8          1           0        2.213047    3.093759   -2.055759
      9          1           0        3.432433    3.441243   -0.820748
     10          1           0        1.764095    3.994550   -0.597566
     11          6           0        2.582647   -0.637712   -0.102424
     12          6           0        3.430981   -1.803289   -0.612077
     13          6           0        3.101228   -3.123578    0.084982
     14          1           0        2.733742   -0.529379    0.980548
     15          1           0        1.519849   -0.875124   -0.247477
     16          1           0        4.491890   -1.562993   -0.465970
     17          1           0        3.279393   -1.908514   -1.694004
     18          1           0        2.050897   -3.389942   -0.071400
     19          1           0        3.270283   -3.042458    1.163611
     20          1           0        3.719234   -3.943249   -0.294582
     21          6           0       -3.251373    0.217346   -0.068301
     22          6           0       -4.001909   -0.919826   -0.762217
     23          6           0       -5.018087   -0.417798   -1.788444
     24          1           0       -3.976273    0.879315    0.424915
     25          1           0       -2.738475    0.825180   -0.826502
     26          1           0       -4.512109   -1.526149   -0.002818
     27          1           0       -3.275125   -1.579272   -1.253678
     28          1           0       -4.521072    0.169774   -2.567119
     29          1           0       -5.765084    0.223199   -1.309153
     30          1           0       -5.543132   -1.247218   -2.272439
     31          6           0       -2.231956   -0.268648    0.960449
     32          6           0       -1.481420    0.868526    1.654364
     33          6           0       -0.465242    0.366497    2.680592
     34          1           0       -2.744854   -0.876480    1.718650
     35          1           0       -1.507056   -0.930616    0.467232
     36          1           0       -2.208204    1.527971    2.145825
     37          1           0       -0.971220    1.474847    0.894966
     38          1           0        0.281755   -0.274500    2.201301
     39          1           0       -0.962257   -0.221076    3.459267
     40          1           0        0.059802    1.195917    3.164587
 ---------------------------------------------------------------------

 SCF Done:  E(RHF) =  -470.732895781     A.U. after   11 cycles
 E2 =    -0.1584250986D+01 EUMP2 =    -0.47231714676713D+03

 The electronic state is 1-A.
 Alpha  occ. eigenvalues --  -11.21657 -11.21628 -11.21610 -11.21503 -11.21475
 Alpha  occ. eigenvalues --  -11.21413 -11.21398 -11.21336 -11.21112 -11.21108
 Alpha  occ. eigenvalues --  -11.21079 -11.20939  -1.08508  -1.08397  -1.03590
 Alpha  occ. eigenvalues --   -1.03481  -0.96032  -0.95941  -0.87049  -0.86957
 Alpha  occ. eigenvalues --   -0.79704  -0.79509  -0.78328  -0.78221  -0.65214
 Alpha  occ. eigenvalues --   -0.64965  -0.61048  -0.60840  -0.59436  -0.59273
 Alpha  occ. eigenvalues --   -0.57704  -0.57495  -0.55331  -0.55226  -0.52717
 Alpha  occ. eigenvalues --   -0.52632  -0.52485  -0.52343  -0.49987  -0.49891
 Alpha  occ. eigenvalues --   -0.48047  -0.47895  -0.46838  -0.46442  -0.46050
 Alpha  occ. eigenvalues --   -0.45769  -0.45596  -0.45442  -0.43837  -0.43751
 Alpha virt. eigenvalues --    0.20124   0.23326   0.23656   0.24007   0.25205
 Alpha virt. eigenvalues --    0.26251   0.26774   0.28054   0.28536   0.29618
 Alpha virt. eigenvalues --    0.30579   0.30993   0.31635   0.32020   0.32141

 Mulliken charges:
               1
     1  C   -0.297758
     2  C   -0.305720
     3  C   -0.475654
     4  H    0.149989
     5  H    0.149313
     6  H    0.154006
     7  H    0.156610
     8  H    0.154981
     9  H    0.155404
    10  H    0.160472
    11  C   -0.302854
    12  C   -0.299384
    13  C   -0.476011
    14  H    0.152152
    15  H    0.150961
    16  H    0.152316
    17  H    0.151966
    18  H    0.155021
    19  H    0.155543
    20  H    0.160615
    21  C   -0.298055
    22  C   -0.299549
    23  C   -0.475687
    24  H    0.149947
    25  H    0.148580
    26  H    0.152117
    27  H    0.151501
    28  H    0.155052
    29  H    0.155283
    30  H    0.160257
    31  C   -0.299964
    32  C   -0.304641
    33  C   -0.480194
    34  H    0.149783
    35  H    0.149642
    36  H    0.151514
    37  H    0.157558
    38  H    0.161796
    39  H    0.154011
    40  H    0.159080
 Sum of Mulliken charges =  -0.00000

 Dipole moment (field-independent basis, Debye):
    X=              0.0535    Y=              0.0021    Z=             -0.0081  Tot=              0.0542
 Quadrupole moment (field-independent basis, Debye-Ang):
   XX=            -84.2882   YY=            -85.8347   ZZ=            -84.6021
   XY=              0.1508   XZ=             -0.5170   YZ=              0.7362

 Normal termination of Gaussian 16 at Wed May  5 16:48:54 2021.
