 Gaussian 16, Revision A.03,
 Gaussian 16:  EM64L-G16RevA.03 25-Dec-2016

 -------------
 #p 6-31g* mp2
 -------------

 ------------------------------------------------------
 Input file generated by CHIRIPA (05-May-2021 14:55:25)
 ------------------------------------------------------
 Symbolic Z-matrix:
 Charge =  0 Multiplicity = 1

                         Standard orientation:
 ---------------------------------------------------------------------
 Center     Atomic      Atomic             Coordinates (Angstroms)
 Number     Number       Type             X           Y           Z
 ---------------------------------------------------------------------
      1          6           0       -1.556718    1.901975    0.466539
      2          6           0       -1.694178    1.369956   -0.819766
      3          6           0       -2.554682    0.293425   -1.054634
      4          6           0       -3.265658   -0.228894    0.024711
      5          6           0       -3.150265    0.279183    1.317705
      6          6           0       -2.283918    1.355853    1.529295
      7          1           0       -0.885988    2.738304    0.639949
      8          1           0       -1.130678    1.792065   -1.647013
      9          1           0       -2.680125   -0.137848   -2.040375
     10          1           0       -3.725197   -0.162839    2.122372
     11          1           0       -2.179159    1.766993    2.529313
     12          7           0       -4.179728   -1.368643   -0.211612
     13          8           0       -4.794948   -1.810872    0.756155
     14          8           0       -4.263647   -1.798167   -1.360134
     15          6           0        4.161544   -0.690817   -0.102830
     16          6           0        5.587816   -0.992627    0.358304
     17          6           0        5.921623   -2.483945    0.309957
     18          1           0        3.453889   -1.247022    0.527095
     19          1           0        4.028178   -1.064322   -1.127575
     20          1           0        5.718874   -0.617430    1.381371
     21          1           0        6.292150   -0.435489   -0.272670
     22          1           0        5.818683   -2.868894   -0.709758
     23          1           0        5.242150   -3.051868    0.953682
     24          1           0        6.945905   -2.677101    0.643717
     25          6           0        3.812876    0.795903   -0.060139
     26          6           0        2.386604    1.097713   -0.521273
     27          6           0        2.052798    2.589031   -0.472926
     28          1           0        3.946242    1.169408    0.964605
     29          1           0        4.520531    1.352108   -0.690065
     30          1           0        1.682271    0.540576    0.109701
     31          1           0        2.255546    0.722516   -1.544341
     32          1           0        2.732270    3.156954   -1.116651
     33          1           0        2.155738    2.973981    0.546789
     34          1           0        1.028515    2.782188   -0.806686
 ---------------------------------------------------------------------

 SCF Done:  E(RHF) =  -669.534825794     A.U. after   15 cycles
 E2 =    -0.2092240096D+01 EUMP2 =    -0.67162706588955D+03

 The electronic state is 1-A.
 Alpha  occ. eigenvalues --  -20.60749 -20.60744 -15.85803 -11.31165 -11.27740
 Alpha  occ. eigenvalues --  -11.27737 -11.27436 -11.26747 -11.26737 -11.22399
 Alpha  occ. eigenvalues --  -11.22247 -11.22007 -11.21962 -11.21816 -11.21336
 Alpha  occ. eigenvalues --   -1.59825  -1.39379  -1.19342  -1.09018  -1.08731
 Alpha  occ. eigenvalues --   -1.04749  -1.04163  -0.96650  -0.95563  -0.87665
 Alpha  occ. eigenvalues --   -0.86144  -0.82402  -0.80227  -0.78772  -0.77454
 Alpha  occ. eigenvalues --   -0.72023  -0.71149  -0.70474  -0.65636  -0.65006
 Alpha  occ. eigenvalues --   -0.64801  -0.62133  -0.61554  -0.60027  -0.58216
 Alpha  occ. eigenvalues --   -0.55959  -0.55207  -0.53370  -0.53122  -0.52993
 Alpha  occ. eigenvalues --   -0.52779  -0.50553  -0.48781  -0.48777  -0.48538
 Alpha  occ. eigenvalues --   -0.47235  -0.46325  -0.46220  -0.44785  -0.44408
 Alpha  occ. eigenvalues --   -0.37294  -0.36346
 Alpha virt. eigenvalues --    0.05075   0.11237   0.16533   0.20073   0.22616
 Alpha virt. eigenvalues --    0.24072   0.25855   0.26216   0.26713   0.27589
 Alpha virt. eigenvalues --    0.29195   0.30090   0.30829   0.31273   0.31707

 Mulliken charges:
               1
     1  C   -0.171519
     2  C   -0.219235
     3  C   -0.171248
     4  C    0.158141
     5  C   -0.170914
     6  C   -0.219927
     7  H    0.229736
     8  H    0.224559
     9  H    0.275578
    10  H    0.275449
    11  H    0.223280
    12  N    0.488094
    13  O   -0.460533
    14  O   -0.460461
    15  C   -0.298991
    16  C   -0.300104
    17  C   -0.476104
    18  H    0.151409
    19  H    0.150780
    20  H    0.151982
    21  H    0.152252
    22  H    0.156094
    23  H    0.156286
    24  H    0.161265
    25  C   -0.298915
    26  C   -0.301644
    27  C   -0.479183
    28  H    0.149689
    29  H    0.150710
    30  H    0.156990
    31  H    0.152448
    32  H    0.160783
    33  H    0.154949
    34  H    0.148306
 Sum of Mulliken charges =  -0.00000

 Dipole moment (field-independent basis, Debye):
    X=              3.3788    Y=              3.9433    Z=              0.8490  Tot=              5.2618
 Quadrupole moment (field-independent basis, Debye-Ang):
   XX=           -115.8434   YY=            -98.5410   ZZ=            -89.1050
   XY=            -13.5996   XZ=             -4.3748   YZ=             -0.1366

 Normal termination of Gaussian 16 at Wed May  5 19:13:26 2021.
