 Gaussian 16, Revision A.03,
 Gaussian 16:  EM64L-G16RevA.03 25-Dec-2016

 -------------
 #p 6-31g* mp2
 -------------

 ------------------------------------------------------
 Input file generated by CHIRIPA (05-May-2021 14:55:21)
 ------------------------------------------------------
 Symbolic Z-matrix:
 Charge =  0 Multiplicity = 1

                         Standard orientation:
 ---------------------------------------------------------------------
 Center     Atomic      Atomic             Coordinates (Angstroms)
 Number     Number       Type             X           Y           Z
 ---------------------------------------------------------------------
      1          6           0        1.816982    2.521530    0.765875
      2          6           0        2.383331    2.453346   -0.511278
      3          6           0        2.957310    1.264287   -0.970883
      4          6           0        2.947534    0.157687   -0.123162
      5          6           0        2.391073    0.194137    1.154457
      6          6           0        1.822650    1.393696    1.593208
      7          1           0        1.373259    3.449298    1.114807
      8          1           0        2.380355    3.327656   -1.155963
      9          1           0        3.402647    1.183722   -1.955059
     10          1           0        2.409070   -0.694072    1.774279
     11          1           0        1.383538    1.443737    2.585539
     12          7           0        3.552239   -1.106674   -0.598686
     13          8           0        3.530936   -2.067531    0.167432
     14          8           0        4.036058   -1.112883   -1.728517
     15          6           0       -2.917001   -0.398385    0.276699
     16          6           0       -2.224194   -1.740077    0.517251
     17          6           0       -0.767811   -1.583164    0.955562
     18          1           0       -2.361091    0.162364   -0.487154
     19          1           0       -2.872634    0.199570    1.197502
     20          1           0       -2.271070   -2.335876   -0.403316
     21          1           0       -2.781928   -2.297777    1.280482
     22          1           0       -0.705269   -1.010630    1.886634
     23          1           0       -0.191510   -1.048945    0.193270
     24          1           0       -0.291758   -2.554525    1.121972
     25          6           0       -4.373550   -0.538752   -0.162036
     26          6           0       -5.066357    0.802941   -0.402588
     27          6           0       -6.522741    0.646027   -0.840899
     28          1           0       -4.417917   -1.136706   -1.082839
     29          1           0       -4.929461   -1.099500    0.601816
     30          1           0       -4.508624    1.360641   -1.165818
     31          1           0       -5.019481    1.398740    0.517979
     32          1           0       -7.099041    0.111808   -0.078607
     33          1           0       -6.585282    0.073493   -1.771971
     34          1           0       -6.998793    1.617389   -1.007310
 ---------------------------------------------------------------------

 SCF Done:  E(RHF) =  -669.535135249     A.U. after   15 cycles
 E2 =    -0.2092127271D+01 EUMP2 =    -0.67162726252050D+03

 The electronic state is 1-A.
 Alpha  occ. eigenvalues --  -20.60744 -20.60737 -15.85797 -11.31147 -11.27743
 Alpha  occ. eigenvalues --  -11.27712 -11.27481 -11.26740 -11.26717 -11.21815
 Alpha  occ. eigenvalues --  -11.21693 -11.21583 -11.21521 -11.21247 -11.21148
 Alpha  occ. eigenvalues --   -1.59818  -1.39371  -1.19340  -1.08731  -1.08595
 Alpha  occ. eigenvalues --   -1.04742  -1.03678  -0.96138  -0.95563  -0.87161
 Alpha  occ. eigenvalues --   -0.86132  -0.82397  -0.79757  -0.78417  -0.77438
 Alpha  occ. eigenvalues --   -0.72015  -0.71144  -0.70443  -0.65228  -0.64987
 Alpha  occ. eigenvalues --   -0.64738  -0.62086  -0.61080  -0.59489  -0.57756
 Alpha  occ. eigenvalues --   -0.55440  -0.55243  -0.53280  -0.52882  -0.52741
 Alpha  occ. eigenvalues --   -0.52382  -0.50079  -0.48773  -0.48768  -0.48056
 Alpha  occ. eigenvalues --   -0.46786  -0.45956  -0.45883  -0.44776  -0.43932
 Alpha  occ. eigenvalues --   -0.37318  -0.36274
 Alpha virt. eigenvalues --    0.05082   0.11280   0.16537   0.21153   0.22703
 Alpha virt. eigenvalues --    0.24099   0.26130   0.26737   0.27370   0.28009
 Alpha virt. eigenvalues --    0.28575   0.30244   0.31456   0.31685   0.31912

 Mulliken charges:
               1
     1  C   -0.170829
     2  C   -0.219062
     3  C   -0.171691
     4  C    0.156820
     5  C   -0.166517
     6  C   -0.217210
     7  H    0.225554
     8  H    0.223183
     9  H    0.275440
    10  H    0.276863
    11  H    0.223095
    12  N    0.488298
    13  O   -0.460321
    14  O   -0.460942
    15  C   -0.297558
    16  C   -0.300695
    17  C   -0.478026
    18  H    0.149580
    19  H    0.145552
    20  H    0.155116
    21  H    0.151791
    22  H    0.144779
    23  H    0.158718
    24  H    0.167444
    25  C   -0.298404
    26  C   -0.299395
    27  C   -0.475735
    28  H    0.151131
    29  H    0.150060
    30  H    0.151117
    31  H    0.150173
    32  H    0.155618
    33  H    0.156184
    34  H    0.159869
 Sum of Mulliken charges =  -0.00000

 Dipole moment (field-independent basis, Debye):
    X=             -2.1268    Y=              4.3988    Z=              1.6512  Tot=              5.1574
 Quadrupole moment (field-independent basis, Debye-Ang):
   XX=           -109.0277   YY=            -92.7964   ZZ=            -90.8146
   XY=             13.5862   XZ=              3.6149   YZ=             -2.3955

 Normal termination of Gaussian 16 at Wed May  5 22:13:12 2021.
