 Gaussian 16, Revision A.03,
 Gaussian 16:  EM64L-G16RevA.03 25-Dec-2016

 -------------
 #p 6-31g* mp2
 -------------

 ------------------------------------------------------
 Input file generated by CHIRIPA (05-May-2021 14:55:25)
 ------------------------------------------------------
 Symbolic Z-matrix:
 Charge =  0 Multiplicity = 1

                         Standard orientation:
 ---------------------------------------------------------------------
 Center     Atomic      Atomic             Coordinates (Angstroms)
 Number     Number       Type             X           Y           Z
 ---------------------------------------------------------------------
      1          6           0       -3.890443    2.508813    0.074043
      2          6           0       -4.757696    1.590659    0.675198
      3          6           0       -4.506064    0.217864    0.593562
      4          6           0       -3.372821   -0.203751   -0.100190
      5          6           0       -2.489878    0.686311   -0.709691
      6          6           0       -2.761293    2.054509   -0.615268
      7          1           0       -4.093601    3.573447    0.142426
      8          1           0       -5.635371    1.940608    1.211171
      9          1           0       -5.160804   -0.514750    1.049643
     10          1           0       -1.623000    0.307235   -1.237177
     11          1           0       -2.086027    2.765274   -1.083109
     12          7           0       -3.095958   -1.654634   -0.193383
     13          8           0       -2.090788   -2.000555   -0.810318
     14          8           0       -3.889364   -2.418442    0.352273
     15          6           0        4.992270    0.215543   -0.259038
     16          6           0        6.281853    0.085824    0.552216
     17          6           0        7.506753    0.611847   -0.196595
     18          1           0        5.106298   -0.328782   -1.206483
     19          1           0        4.837194    1.271164   -0.521736
     20          1           0        6.433726   -0.969053    0.814486
     21          1           0        6.164673    0.630361    1.497924
     22          1           0        7.381097    1.670684   -0.444938
     23          1           0        7.651680    0.062184   -1.132259
     24          1           0        8.417545    0.509450    0.401595
     25          6           0        3.758965   -0.306096    0.476204
     26          6           0        2.469382   -0.176377   -0.335049
     27          6           0        1.244483   -0.702401    0.413761
     28          1           0        3.914042   -1.361717    0.738903
     29          1           0        3.644937    0.238229    1.423649
     30          1           0        2.586563   -0.720915   -1.280757
     31          1           0        2.317509    0.878499   -0.597320
     32          1           0        1.099557   -0.152737    1.349425
     33          1           0        1.370139   -1.761238    0.662105
     34          1           0        0.333691   -0.600004   -0.184430
 ---------------------------------------------------------------------

 SCF Done:  E(RHF) =  -669.535308110     A.U. after   15 cycles
 E2 =    -0.2091753285D+01 EUMP2 =    -0.67162706139511D+03

 The electronic state is 1-A.
 Alpha  occ. eigenvalues --  -20.60841 -20.60832 -15.85871 -11.31223 -11.27789
 Alpha  occ. eigenvalues --  -11.27786 -11.27531 -11.26805 -11.26796 -11.21506
 Alpha  occ. eigenvalues --  -11.21404 -11.21276 -11.21189 -11.21005 -11.20607
 Alpha  occ. eigenvalues --   -1.59901  -1.39458  -1.19395  -1.08793  -1.08277
 Alpha  occ. eigenvalues --   -1.04799  -1.03349  -0.95793  -0.95619  -0.86796
 Alpha  occ. eigenvalues --   -0.86195  -0.82465  -0.79419  -0.78098  -0.77518
 Alpha  occ. eigenvalues --   -0.72100  -0.71214  -0.70516  -0.65052  -0.64909
 Alpha  occ. eigenvalues --   -0.64816  -0.62189  -0.60742  -0.59145  -0.57403
 Alpha  occ. eigenvalues --   -0.55305  -0.55055  -0.53134  -0.52971  -0.52390
 Alpha  occ. eigenvalues --   -0.52175  -0.49711  -0.48858  -0.48850  -0.47720
 Alpha  occ. eigenvalues --   -0.46457  -0.45632  -0.45567  -0.44877  -0.43541
 Alpha  occ. eigenvalues --   -0.37372  -0.36388
 Alpha virt. eigenvalues --    0.04989   0.11193   0.16500   0.21016   0.23018
 Alpha virt. eigenvalues --    0.24234   0.26698   0.26804   0.27693   0.27757
 Alpha virt. eigenvalues --    0.29023   0.30346   0.31600   0.31634   0.32025

 Mulliken charges:
               1
     1  C   -0.170693
     2  C   -0.218447
     3  C   -0.170863
     4  C    0.158352
     5  C   -0.169736
     6  C   -0.219571
     7  H    0.225712
     8  H    0.223567
     9  H    0.275685
    10  H    0.277309
    11  H    0.223818
    12  N    0.488761
    13  O   -0.460832
    14  O   -0.459569
    15  C   -0.297935
    16  C   -0.299557
    17  C   -0.475582
    18  H    0.150187
    19  H    0.147253
    20  H    0.152870
    21  H    0.151285
    22  H    0.154132
    23  H    0.155448
    24  H    0.160094
    25  C   -0.298023
    26  C   -0.300364
    27  C   -0.481644
    28  H    0.151804
    29  H    0.148306
    30  H    0.154129
    31  H    0.143969
    32  H    0.149912
    33  H    0.163177
    34  H    0.167045
 Sum of Mulliken charges =  -0.00000

 Dipole moment (field-independent basis, Debye):
    X=             -1.0816    Y=              5.0100    Z=              0.3361  Tot=              5.1364
 Quadrupole moment (field-independent basis, Debye-Ang):
   XX=            -86.0680   YY=            -96.3516   ZZ=            -94.1343
   XY=            -17.0914   XZ=             -3.3065   YZ=             -0.6649

 Normal termination of Gaussian 16 at Wed May  5 19:10:32 2021.
