 Gaussian 16, Revision A.03,
 Gaussian 16:  EM64L-G16RevA.03 25-Dec-2016

 -------------
 #p 6-31g* mp2
 -------------

 ------------------------------------------------------
 Input file generated by CHIRIPA (05-May-2021 14:51:11)
 ------------------------------------------------------
 Symbolic Z-matrix:
 Charge =  0 Multiplicity = 1

                         Standard orientation:
 ---------------------------------------------------------------------
 Center     Atomic      Atomic             Coordinates (Angstroms)
 Number     Number       Type             X           Y           Z
 ---------------------------------------------------------------------
      1          6           0        3.589646    0.903156   -0.120922
      2          6           0        2.768113    2.153985    0.192921
      3          6           0        3.633179    3.404400    0.353905
      4          1           0        4.322690    0.742804    0.681498
      5          1           0        4.165641    1.072633   -1.041194
      6          1           0        2.192778    1.981691    1.111572
      7          1           0        2.036810    2.311269   -0.610244
      8          1           0        4.196283    3.604005   -0.563521
      9          1           0        4.353137    3.272555    1.168078
     10          1           0        3.025635    4.286786    0.577839
     11          6           0        2.738902   -0.355073   -0.284700
     12          6           0        3.560435   -1.605902   -0.598542
     13          6           0        2.695369   -2.856317   -0.759526
     14          1           0        2.162907   -0.524550    0.635573
     15          1           0        2.005858   -0.194721   -1.087119
     16          1           0        4.291738   -1.763186    0.204623
     17          1           0        4.135770   -1.433608   -1.517193
     18          1           0        1.975410   -2.724472   -1.573699
     19          1           0        2.132265   -3.055922    0.157900
     20          1           0        3.302912   -3.738703   -0.983460
     21          6           0       -2.582621   -0.749245    0.063911
     22          6           0       -1.767326   -1.090659    1.311596
     23          6           0       -0.607232   -2.042261    1.017604
     24          1           0       -2.970648   -1.677179   -0.378037
     25          1           0       -1.919085   -0.298881   -0.687279
     26          1           0       -2.432473   -1.538979    2.060733
     27          1           0       -1.381353   -0.161789    1.750734
     28          1           0        0.079225   -1.599232    0.288835
     29          1           0       -0.977866   -2.984246    0.600595
     30          1           0       -0.037819   -2.272975    1.923362
     31          6           0       -3.745927    0.201162    0.341710
     32          6           0       -4.561222    0.542577   -0.905975
     33          6           0       -5.721316    1.494177   -0.611982
     34          1           0       -4.409462   -0.249202    1.092901
     35          1           0       -3.357898    1.129096    0.783658
     36          1           0       -4.947195   -0.386293   -1.345113
     37          1           0       -3.896075    0.990895   -1.655111
     38          1           0       -5.350681    2.436162   -0.194975
     39          1           0       -6.407773    1.051148    0.116786
     40          1           0       -6.290729    1.724891   -1.517742
 ---------------------------------------------------------------------

 SCF Done:  E(RHF) =  -470.731903087     A.U. after   11 cycles
 E2 =    -0.1583985937D+01 EUMP2 =    -0.47231588902425D+03

 The electronic state is 1-A.
 Alpha  occ. eigenvalues --  -11.21637 -11.21585 -11.21581 -11.21537 -11.21412
 Alpha  occ. eigenvalues --  -11.21374 -11.21350 -11.21314 -11.21098 -11.21058
 Alpha  occ. eigenvalues --  -11.20959 -11.20909  -1.08459  -1.08382  -1.03566
 Alpha  occ. eigenvalues --   -1.03454  -0.95991  -0.95926  -0.87019  -0.86944
 Alpha  occ. eigenvalues --   -0.79733  -0.79450  -0.78327  -0.78141  -0.65112
 Alpha  occ. eigenvalues --   -0.64994  -0.60992  -0.60846  -0.59366  -0.59308
 Alpha  occ. eigenvalues --   -0.57645  -0.57501  -0.55288  -0.55214  -0.52710
 Alpha  occ. eigenvalues --   -0.52655  -0.52456  -0.52281  -0.49972  -0.49888
 Alpha  occ. eigenvalues --   -0.48105  -0.47680  -0.46727  -0.46570  -0.45898
 Alpha  occ. eigenvalues --   -0.45740  -0.45702  -0.45300  -0.43787  -0.43727
 Alpha virt. eigenvalues --    0.21808   0.23206   0.23592   0.24667   0.25678
 Alpha virt. eigenvalues --    0.26541   0.26945   0.27788   0.28093   0.29500
 Alpha virt. eigenvalues --    0.29693   0.31392   0.31685   0.31743   0.32215

 Mulliken charges:
               1
     1  C   -0.297373
     2  C   -0.299670
     3  C   -0.475686
     4  H    0.149774
     5  H    0.149519
     6  H    0.151633
     7  H    0.151428
     8  H    0.155322
     9  H    0.155334
    10  H    0.160208
    11  C   -0.304294
    12  C   -0.298422
    13  C   -0.480993
    14  H    0.155336
    15  H    0.148223
    16  H    0.151624
    17  H    0.151506
    18  H    0.154467
    19  H    0.163340
    20  H    0.159576
    21  C   -0.298346
    22  C   -0.300486
    23  C   -0.483201
    24  H    0.149565
    25  H    0.149416
    26  H    0.151345
    27  H    0.151343
    28  H    0.168117
    29  H    0.154724
    30  H    0.156942
    31  C   -0.298263
    32  C   -0.299588
    33  C   -0.475682
    34  H    0.149485
    35  H    0.149657
    36  H    0.151892
    37  H    0.151748
    38  H    0.155154
    39  H    0.155171
    40  H    0.160157
 Sum of Mulliken charges =  -0.00000

 Dipole moment (field-independent basis, Debye):
    X=              0.0299    Y=             -0.0098    Z=             -0.0006  Tot=              0.0315
 Quadrupole moment (field-independent basis, Debye-Ang):
   XX=            -85.5303   YY=            -85.5810   ZZ=            -83.8553
   XY=              0.5663   XZ=              0.0632   YZ=             -0.5111

 Normal termination of Gaussian 16 at Wed May  5 16:44:38 2021.
