 Gaussian 16, Revision A.03,
 Gaussian 16:  EM64L-G16RevA.03 25-Dec-2016

 -------------
 #p 6-31g* mp2
 -------------

 ------------------------------------------------------
 Input file generated by CHIRIPA (05-May-2021 14:51:09)
 ------------------------------------------------------
 Symbolic Z-matrix:
 Charge =  0 Multiplicity = 1

                         Standard orientation:
 ---------------------------------------------------------------------
 Center     Atomic      Atomic             Coordinates (Angstroms)
 Number     Number       Type             X           Y           Z
 ---------------------------------------------------------------------
      1          6           0        3.240249   -1.042097    0.378875
      2          6           0        1.766582   -0.638718    0.438676
      3          6           0        0.878806   -1.730011    1.037614
      4          1           0        3.338192   -1.962385   -0.213089
      5          1           0        3.588417   -1.283983    1.392614
      6          1           0        1.421671   -0.396331   -0.574685
      7          1           0        1.672159    0.280823    1.030406
      8          1           0        1.195276   -1.966874    2.058566
      9          1           0        0.943365   -2.647876    0.444355
     10          1           0       -0.170500   -1.420635    1.070848
     11          6           0        4.140422    0.038531   -0.217498
     12          6           0        5.614089   -0.364848   -0.277299
     13          6           0        6.501866    0.726444   -0.876237
     14          1           0        3.792254    0.280417   -1.231236
     15          1           0        4.042479    0.958819    0.374466
     16          1           0        5.708512   -1.284389   -0.869029
     17          1           0        5.959000   -0.607235    0.736063
     18          1           0        6.437306    1.644310   -0.282978
     19          1           0        6.185395    0.963308   -1.897189
     20          1           0        7.551171    0.417069   -0.909470
     21          6           0       -2.968218    0.703630   -0.226413
     22          6           0       -2.470993    1.852883    0.651067
     23          6           0       -1.024689    2.245274    0.347703
     24          1           0       -2.313248   -0.167005   -0.085153
     25          1           0       -2.879736    0.993230   -1.282679
     26          1           0       -2.561679    1.561729    1.705402
     27          1           0       -3.127336    2.720821    0.507846
     28          1           0       -0.922010    2.561470   -0.695406
     29          1           0       -0.353139    1.395792    0.508953
     30          1           0       -0.689688    3.068565    0.986316
     31          6           0       -4.412453    0.299936    0.065035
     32          6           0       -4.909679   -0.849316   -0.812445
     33          6           0       -6.355982   -1.241708   -0.509081
     34          1           0       -4.500935    0.010336    1.121302
     35          1           0       -5.067424    1.170571   -0.076225
     36          1           0       -4.253335   -1.717255   -0.669224
     37          1           0       -4.818992   -0.558163   -1.866779
     38          1           0       -7.027533   -0.392226   -0.670331
     39          1           0       -6.458662   -1.557903    0.534028
     40          1           0       -6.690984   -2.064998   -1.147694
 ---------------------------------------------------------------------

 SCF Done:  E(RHF) =  -470.732792510     A.U. after   11 cycles
 E2 =    -0.1583443957D+01 EUMP2 =    -0.47231623646708D+03

 The electronic state is 1-A.
 Alpha  occ. eigenvalues --  -11.21629 -11.21601 -11.21589 -11.21556 -11.21416
 Alpha  occ. eigenvalues --  -11.21392 -11.21353 -11.21332 -11.21152 -11.21067
 Alpha  occ. eigenvalues --  -11.21059 -11.20933  -1.08457  -1.08402  -1.03586
 Alpha  occ. eigenvalues --   -1.03473  -0.96024  -0.95932  -0.87038  -0.86950
 Alpha  occ. eigenvalues --   -0.79706  -0.79495  -0.78300  -0.78186  -0.65092
 Alpha  occ. eigenvalues --   -0.65041  -0.61020  -0.60883  -0.59438  -0.59252
 Alpha  occ. eigenvalues --   -0.57713  -0.57471  -0.55325  -0.55191  -0.52716
 Alpha  occ. eigenvalues --   -0.52637  -0.52453  -0.52356  -0.49992  -0.49884
 Alpha  occ. eigenvalues --   -0.48049  -0.47737  -0.46727  -0.46525  -0.45862
 Alpha  occ. eigenvalues --   -0.45728  -0.45706  -0.45569  -0.43805  -0.43754
 Alpha virt. eigenvalues --    0.20594   0.23038   0.23613   0.25123   0.26044
 Alpha virt. eigenvalues --    0.26464   0.26851   0.27285   0.28210   0.29144
 Alpha virt. eigenvalues --    0.30818   0.31100   0.31481   0.31780   0.31979

 Mulliken charges:
               1
     1  C   -0.297160
     2  C   -0.304021
     3  C   -0.481055
     4  H    0.149611
     5  H    0.149477
     6  H    0.153651
     7  H    0.154240
     8  H    0.155734
     9  H    0.156027
    10  H    0.162959
    11  C   -0.298437
    12  C   -0.299699
    13  C   -0.475705
    14  H    0.149784
    15  H    0.150025
    16  H    0.151904
    17  H    0.151883
    18  H    0.155271
    19  H    0.155242
    20  H    0.160229
    21  C   -0.302756
    22  C   -0.298755
    23  C   -0.486162
    24  H    0.152757
    25  H    0.149601
    26  H    0.151278
    27  H    0.151669
    28  H    0.154450
    29  H    0.168648
    30  H    0.159065
    31  C   -0.298030
    32  C   -0.299706
    33  C   -0.475695
    34  H    0.149461
    35  H    0.149765
    36  H    0.152011
    37  H    0.151857
    38  H    0.155146
    39  H    0.155219
    40  H    0.160218
 Sum of Mulliken charges =  -0.00000

 Dipole moment (field-independent basis, Debye):
    X=              0.0430    Y=             -0.0165    Z=             -0.0045  Tot=              0.0462
 Quadrupole moment (field-independent basis, Debye-Ang):
   XX=            -86.3814   YY=            -84.8975   ZZ=            -83.5916
   XY=             -1.0487   XZ=              0.8119   YZ=              0.2146

 Normal termination of Gaussian 16 at Thu May  6 00:31:44 2021.
