 Gaussian 16, Revision A.03,
 Gaussian 16:  EM64L-G16RevA.03 25-Dec-2016

 -------------
 #p 6-31g* mp2
 -------------

 ------------------------------------------------------
 Input file generated by CHIRIPA (05-May-2021 14:53:17)
 ------------------------------------------------------
 Symbolic Z-matrix:
 Charge =  0 Multiplicity = 1

                         Standard orientation:
 ---------------------------------------------------------------------
 Center     Atomic      Atomic             Coordinates (Angstroms)
 Number     Number       Type             X           Y           Z
 ---------------------------------------------------------------------
      1          6           0        4.194134   -0.101997   -0.076538
      2          6           0        3.214401   -1.219016    0.284538
      3          6           0        1.757899   -0.836126    0.020360
      4          1           0        3.940492    0.799421    0.497967
      5          1           0        4.068812    0.157582   -1.136872
      6          1           0        3.342496   -1.477365    1.343530
      7          1           0        3.470523   -2.117937   -0.290751
      8          1           0        1.607943   -0.598228   -1.037713
      9          1           0        1.479188    0.045985    0.605854
     10          1           0        1.074677   -1.649016    0.285458
     11          6           0        5.654157   -0.469737    0.181977
     12          6           0        6.633890    0.647283   -0.179099
     13          6           0        8.090392    0.264392    0.085079
     14          1           0        5.779479   -0.729316    1.242311
     15          1           0        5.907799   -1.371155   -0.392528
     16          1           0        6.377768    1.546204    0.396191
     17          1           0        6.505795    0.905631   -1.238091
     18          1           0        8.369103   -0.617718   -0.500415
     19          1           0        8.240348    0.026494    1.143152
     20          1           0        8.773614    1.077282   -0.180019
     21          6           0       -2.070659    2.010443   -0.170855
     22          6           0       -3.381230    2.350323    0.180435
     23          6           0       -4.373571    1.368393    0.255407
     24          6           0       -4.018718    0.050563   -0.028652
     25          6           0       -2.721868   -0.319557   -0.381473
     26          6           0       -1.745734    0.678935   -0.450196
     27          1           0       -1.306078    2.779663   -0.226668
     28          1           0       -3.636449    3.383578    0.397907
     29          1           0       -5.396029    1.603734    0.524874
     30          1           0       -2.497783   -1.358116   -0.592661
     31          1           0       -0.728750    0.412067   -0.723274
     32          7           0       -5.060686   -0.997729    0.047409
     33          8           0       -4.722453   -2.151515   -0.207573
     34          8           0       -6.195886   -0.645746    0.360569
 ---------------------------------------------------------------------

 SCF Done:  E(RHF) =  -669.535523674     A.U. after   15 cycles
 E2 =    -0.2091089574D+01 EUMP2 =    -0.67162661324768D+03

 The electronic state is 1-A.
 Alpha  occ. eigenvalues --  -20.60690 -20.60685 -15.85741 -11.31084 -11.27649
 Alpha  occ. eigenvalues --  -11.27622 -11.27373 -11.26671 -11.26558 -11.22393
 Alpha  occ. eigenvalues --  -11.22212 -11.22075 -11.22063 -11.21900 -11.21447
 Alpha  occ. eigenvalues --   -1.59766  -1.39320  -1.19246  -1.09068  -1.08647
 Alpha  occ. eigenvalues --   -1.04643  -1.04203  -0.96691  -0.95488  -0.87735
 Alpha  occ. eigenvalues --   -0.86034  -0.82319  -0.80294  -0.78853  -0.77361
 Alpha  occ. eigenvalues --   -0.71960  -0.71088  -0.70362  -0.65690  -0.64895
 Alpha  occ. eigenvalues --   -0.64649  -0.62003  -0.61597  -0.60053  -0.58270
 Alpha  occ. eigenvalues --   -0.55979  -0.55159  -0.53481  -0.53201  -0.52972
 Alpha  occ. eigenvalues --   -0.52531  -0.50630  -0.48744  -0.48717  -0.48546
 Alpha  occ. eigenvalues --   -0.47292  -0.46400  -0.46300  -0.44731  -0.44441
 Alpha  occ. eigenvalues --   -0.37231  -0.36237
 Alpha virt. eigenvalues --    0.05153   0.11371   0.16638   0.20807   0.22309
 Alpha virt. eigenvalues --    0.23750   0.25579   0.26071   0.26890   0.28046
 Alpha virt. eigenvalues --    0.28950   0.29862   0.30788   0.31216   0.31976

 Mulliken charges:
               1
     1  C   -0.299047
     2  C   -0.299570
     3  C   -0.484597
     4  H    0.148637
     5  H    0.149182
     6  H    0.156029
     7  H    0.155730
     8  H    0.150870
     9  H    0.154130
    10  H    0.164665
    11  C   -0.298914
    12  C   -0.299998
    13  C   -0.476060
    14  H    0.151028
    15  H    0.151292
    16  H    0.151703
    17  H    0.152052
    18  H    0.156126
    19  H    0.155999
    20  H    0.161264
    21  C   -0.173860
    22  C   -0.218291
    23  C   -0.171604
    24  C    0.158852
    25  C   -0.174625
    26  C   -0.226060
    27  H    0.225284
    28  H    0.222779
    29  H    0.275099
    30  H    0.275059
    31  H    0.240293
    32  N    0.488112
    33  O   -0.460721
    34  O   -0.460837
 Sum of Mulliken charges =  -0.00000

 Dipole moment (field-independent basis, Debye):
    X=              3.9316    Y=              3.6359    Z=             -0.2356  Tot=              5.3603
 Quadrupole moment (field-independent basis, Debye-Ang):
   XX=           -122.9483   YY=            -92.1593   ZZ=            -94.3698
   XY=            -17.4961   XZ=             -0.1738   YZ=              1.2724

 Normal termination of Gaussian 16 at Thu May  6 06:00:04 2021.
