 Gaussian 16, Revision A.03,
 Gaussian 16:  EM64L-G16RevA.03 25-Dec-2016

 -------------
 #p 6-31g* mp2
 -------------

 ------------------------------------------------------
 Input file generated by CHIRIPA (05-May-2021 14:53:13)
 ------------------------------------------------------
 Symbolic Z-matrix:
 Charge =  0 Multiplicity = 1

                         Standard orientation:
 ---------------------------------------------------------------------
 Center     Atomic      Atomic             Coordinates (Angstroms)
 Number     Number       Type             X           Y           Z
 ---------------------------------------------------------------------
      1          6           0       -2.411934    1.260910    0.214724
      2          6           0       -1.700939    1.916574   -0.969580
      3          6           0       -0.948684    3.188503   -0.577020
      4          1           0       -3.113087    1.981311    0.657841
      5          1           0       -1.672526    1.025383    0.992668
      6          1           0       -2.441267    2.149536   -1.745633
      7          1           0       -1.001537    1.194466   -1.410047
      8          1           0       -0.189137    2.968678    0.180189
      9          1           0       -1.637048    3.929175   -0.157303
     10          1           0       -0.447808    3.640800   -1.438653
     11          6           0       -3.168405   -0.011755   -0.161845
     12          6           0       -3.879400   -0.667420    1.022459
     13          6           0       -4.631655   -1.939349    0.629899
     14          1           0       -3.907813    0.223771   -0.939789
     15          1           0       -2.467252   -0.732156   -0.604962
     16          1           0       -4.578802    0.054689    1.462926
     17          1           0       -3.139072   -0.900381    1.798512
     18          1           0       -3.943291   -2.680020    0.210182
     19          1           0       -5.391202   -1.719523   -0.127310
     20          1           0       -5.132531   -2.391645    1.491532
     21          6           0        2.912737    1.694321    1.012031
     22          6           0        3.080062    0.496384    1.714505
     23          6           0        2.677637   -0.718652    1.152108
     24          6           0        2.108964   -0.698925   -0.120492
     25          6           0        1.928962    0.478071   -0.845454
     26          6           0        2.338732    1.681364   -0.263458
     27          1           0        3.228204    2.633630    1.456527
     28          1           0        3.525544    0.503428    2.705233
     29          1           0        2.795445   -1.660648    1.673819
     30          1           0        1.481743    0.439243   -1.831307
     31          1           0        2.207556    2.610169   -0.811326
     32          7           0        1.679046   -1.979013   -0.726251
     33          8           0        1.180697   -1.934782   -1.848894
     34          8           0        1.848566   -3.002340   -0.066932
 ---------------------------------------------------------------------

 SCF Done:  E(RHF) =  -669.534757604     A.U. after   15 cycles
 E2 =    -0.2093777914D+01 EUMP2 =    -0.67162853551836D+03

 The electronic state is 1-A.
 Alpha  occ. eigenvalues --  -20.60872 -20.60867 -15.85921 -11.31287 -11.27827
 Alpha  occ. eigenvalues --  -11.27820 -11.27561 -11.26857 -11.26813 -11.21820
 Alpha  occ. eigenvalues --  -11.21511 -11.21428 -11.21402 -11.21180 -11.20756
 Alpha  occ. eigenvalues --   -1.59946  -1.39499  -1.19454  -1.08847  -1.08413
 Alpha  occ. eigenvalues --   -1.04859  -1.03552  -0.96019  -0.95681  -0.87058
 Alpha  occ. eigenvalues --   -0.86232  -0.82508  -0.79643  -0.78183  -0.77563
 Alpha  occ. eigenvalues --   -0.72136  -0.71270  -0.70552  -0.65121  -0.65043
 Alpha  occ. eigenvalues --   -0.64850  -0.62256  -0.60922  -0.59419  -0.57613
 Alpha  occ. eigenvalues --   -0.55429  -0.55260  -0.53143  -0.53002  -0.52686
 Alpha  occ. eigenvalues --   -0.52413  -0.49921  -0.48895  -0.48894  -0.47944
 Alpha  occ. eigenvalues --   -0.46658  -0.45734  -0.45629  -0.44891  -0.43798
 Alpha  occ. eigenvalues --   -0.37410  -0.36382
 Alpha virt. eigenvalues --    0.04935   0.11094   0.16419   0.20570   0.23041
 Alpha virt. eigenvalues --    0.24249   0.26048   0.26698   0.27043   0.28468
 Alpha virt. eigenvalues --    0.29043   0.30105   0.31479   0.31583   0.32202

 Mulliken charges:
               1
     1  C   -0.298598
     2  C   -0.301065
     3  C   -0.481939
     4  H    0.148746
     5  H    0.149539
     6  H    0.154269
     7  H    0.152184
     8  H    0.156562
     9  H    0.157299
    10  H    0.152091
    11  C   -0.301070
    12  C   -0.299429
    13  C   -0.476640
    14  H    0.149469
    15  H    0.157755
    16  H    0.149807
    17  H    0.151492
    18  H    0.160750
    19  H    0.154535
    20  H    0.159291
    21  C   -0.173199
    22  C   -0.217864
    23  C   -0.171619
    24  C    0.157886
    25  C   -0.171499
    26  C   -0.216766
    27  H    0.226461
    28  H    0.223882
    29  H    0.275746
    30  H    0.276315
    31  H    0.228271
    32  N    0.488055
    33  O   -0.460829
    34  O   -0.459888
 Sum of Mulliken charges =  -0.00000

 Dipole moment (field-independent basis, Debye):
    X=              1.5360    Y=              4.3978    Z=              2.1431  Tot=              5.1276
 Quadrupole moment (field-independent basis, Debye-Ang):
   XX=            -88.1120   YY=           -101.2058   ZZ=            -92.2508
   XY=              6.9628   XZ=              6.0781   YZ=             -4.4207

 Normal termination of Gaussian 16 at Wed May  5 21:49:27 2021.
