 Gaussian 16, Revision A.03,
 Gaussian 16:  EM64L-G16RevA.03 25-Dec-2016

 -------------
 #p 6-31g* mp2
 -------------

 ------------------------------------------------------
 Input file generated by CHIRIPA (05-May-2021 14:53:11)
 ------------------------------------------------------
 Symbolic Z-matrix:
 Charge =  0 Multiplicity = 1

                         Standard orientation:
 ---------------------------------------------------------------------
 Center     Atomic      Atomic             Coordinates (Angstroms)
 Number     Number       Type             X           Y           Z
 ---------------------------------------------------------------------
      1          6           0        4.382058    0.726961    0.033096
      2          6           0        3.325009    1.661540   -0.556134
      3          6           0        3.694183    3.138117   -0.410446
      4          1           0        4.523981    0.967804    1.095545
      5          1           0        5.344947    0.915657   -0.461509
      6          1           0        2.364091    1.470176   -0.061531
      7          1           0        3.185448    1.418318   -1.617257
      8          1           0        4.639826    3.350821   -0.919482
      9          1           0        3.813802    3.402974    0.645084
     10          1           0        2.924821    3.788404   -0.838313
     11          6           0        4.027259   -0.752498   -0.104907
     12          6           0        5.084308   -1.687078    0.484323
     13          6           0        4.715134   -3.163655    0.338635
     14          1           0        3.064370   -0.941195    0.389698
     15          1           0        3.885336   -0.993341   -1.167356
     16          1           0        5.223870   -1.443855    1.545446
     17          1           0        6.045226   -1.495714   -0.010280
     18          1           0        4.595515   -3.428512   -0.716895
     19          1           0        3.769491   -3.376358    0.847671
     20          1           0        5.484496   -3.813941    0.766502
     21          6           0       -0.991777    1.041904    0.234640
     22          6           0       -1.149111   -0.191855   -0.405364
     23          6           0       -2.414946   -0.773020   -0.525606
     24          6           0       -3.506580   -0.089787    0.008079
     25          6           0       -3.382165    1.140681    0.651319
     26          6           0       -2.106839    1.703070    0.760012
     27          1           0       -0.004759    1.486074    0.323561
     28          1           0       -0.284926   -0.707590   -0.814323
     29          1           0       -2.565286   -1.727057   -1.016145
     30          1           0       -4.262466    1.630917    1.049006
     31          1           0       -1.987643    2.661338    1.257565
     32          7           0       -4.851685   -0.695102   -0.113103
     33          8           0       -5.797510   -0.073017    0.365502
     34          8           0       -4.934685   -1.780170   -0.684396
 ---------------------------------------------------------------------

 SCF Done:  E(RHF) =  -669.535611056     A.U. after   15 cycles
 E2 =    -0.2091135052D+01 EUMP2 =    -0.67162674610842D+03

 The electronic state is 1-A.
 Alpha  occ. eigenvalues --  -20.60725 -20.60720 -15.85779 -11.31136 -11.27707
 Alpha  occ. eigenvalues --  -11.27701 -11.27419 -11.26717 -11.26698 -11.22831
 Alpha  occ. eigenvalues --  -11.22361 -11.22321 -11.22271 -11.22080 -11.21678
 Alpha  occ. eigenvalues --   -1.59801  -1.39355  -1.19307  -1.09373  -1.08701
 Alpha  occ. eigenvalues --   -1.04709  -1.04432  -0.96848  -0.95540  -0.87865
 Alpha  occ. eigenvalues --   -0.86104  -0.82375  -0.80524  -0.79186  -0.77420
 Alpha  occ. eigenvalues --   -0.71997  -0.71124  -0.70434  -0.66003  -0.64957
 Alpha  occ. eigenvalues --   -0.64708  -0.62057  -0.61831  -0.60240  -0.58471
 Alpha  occ. eigenvalues --   -0.56130  -0.55220  -0.53540  -0.53266  -0.53040
 Alpha  occ. eigenvalues --   -0.52797  -0.50787  -0.48826  -0.48752  -0.48744
 Alpha  occ. eigenvalues --   -0.47557  -0.46715  -0.46628  -0.44762  -0.44685
 Alpha  occ. eigenvalues --   -0.37284  -0.36316
 Alpha virt. eigenvalues --    0.05114   0.11333   0.16608   0.19052   0.22546
 Alpha virt. eigenvalues --    0.23389   0.25023   0.25973   0.26531   0.27822
 Alpha virt. eigenvalues --    0.29037   0.30429   0.30827   0.31121   0.31927

 Mulliken charges:
               1
     1  C   -0.297827
     2  C   -0.305712
     3  C   -0.476479
     4  H    0.151808
     5  H    0.153875
     6  H    0.142321
     7  H    0.155075
     8  H    0.160396
     9  H    0.156664
    10  H    0.160250
    11  C   -0.299348
    12  C   -0.300174
    13  C   -0.476502
    14  H    0.144845
    15  H    0.150034
    16  H    0.153657
    17  H    0.154181
    18  H    0.155700
    19  H    0.155204
    20  H    0.163255
    21  C   -0.177286
    22  C   -0.222727
    23  C   -0.170936
    24  C    0.158247
    25  C   -0.170747
    26  C   -0.220227
    27  H    0.236201
    28  H    0.224745
    29  H    0.275524
    30  H    0.275339
    31  H    0.223793
    32  N    0.488003
    33  O   -0.460586
    34  O   -0.460566
 Sum of Mulliken charges =  -0.00000

 Dipole moment (field-independent basis, Debye):
    X=              5.0201    Y=              2.1327    Z=              0.4122  Tot=              5.4699
 Quadrupole moment (field-independent basis, Debye-Ang):
   XX=           -126.3897   YY=            -93.2631   ZZ=            -93.4172
   XY=             -9.8311   XZ=             -3.0584   YZ=              2.1253

 Normal termination of Gaussian 16 at Wed May  5 20:05:43 2021.
