 Gaussian 16, Revision A.03,
 Gaussian 16:  EM64L-G16RevA.03 25-Dec-2016

 -------------
 #p 6-31g* mp2
 -------------

 ------------------------------------------------------
 Input file generated by CHIRIPA (05-May-2021 14:57:22)
 ------------------------------------------------------
 Symbolic Z-matrix:
 Charge =  0 Multiplicity = 1

                         Standard orientation:
 ---------------------------------------------------------------------
 Center     Atomic      Atomic             Coordinates (Angstroms)
 Number     Number       Type             X           Y           Z
 ---------------------------------------------------------------------
      1          6           0       -3.883501   -2.162983   -0.001093
      2          6           0       -4.492355   -1.256319   -0.875038
      3          6           0       -4.137457    0.095802   -0.855923
      4          6           0       -3.165563    0.508684    0.054154
      5          6           0       -2.540832   -0.370335    0.937515
      6          6           0       -2.911396   -1.717881    0.900804
      7          1           0       -4.165279   -3.211566   -0.022777
      8          1           0       -5.247616   -1.599162   -1.576526
      9          1           0       -4.592829    0.819163   -1.521357
     10          1           0       -1.791228    0.001233    1.625591
     11          1           0       -2.436876   -2.419760    1.580688
     12          7           0       -2.781555    1.937692    0.083704
     13          8           0       -1.922549    2.276279    0.894940
     14          8           0       -3.346848    2.692104   -0.704930
     15          6           0        5.036240    1.484494   -0.148813
     16          6           0        5.355715    0.139187   -0.360018
     17          6           0        4.362402   -0.843204   -0.307237
     18          6           0        3.054120   -0.443090   -0.039661
     19          6           0        2.704304    0.889119    0.175133
     20          6           0        3.713886    1.854513    0.117620
     21          1           0        5.814187    2.241037   -0.191653
     22          1           0        6.381820   -0.151085   -0.567129
     23          1           0        4.581920   -1.891889   -0.466893
     24          1           0        1.672454    1.147822    0.379523
     25          1           0        3.462862    2.898543    0.282048
     26          7           0        1.993934   -1.474107    0.018722
     27          8           0        0.848915   -1.095726    0.256202
     28          8           0        2.328052   -2.641077   -0.174105
 ---------------------------------------------------------------------

 SCF Done:  E(RHF) =  -868.340494272     A.U. after   16 cycles
 E2 =    -0.2598776654D+01 EUMP2 =    -0.87093927092615D+03

 The electronic state is 1-A.
 Alpha  occ. eigenvalues --  -20.60997 -20.60971 -20.60279 -20.60250 -15.86024
 Alpha  occ. eigenvalues --  -15.85301 -11.31106 -11.30261 -11.27691 -11.27565
 Alpha  occ. eigenvalues --  -11.27367 -11.26877 -11.26722 -11.26653 -11.26550
 Alpha  occ. eigenvalues --  -11.26522 -11.25834 -11.25648  -1.60059  -1.59340
 Alpha  occ. eigenvalues --   -1.39620  -1.38906  -1.19263  -1.18415  -1.08718
 Alpha  occ. eigenvalues --   -1.07900  -1.04614  -1.03749  -0.95595  -0.94795
 Alpha  occ. eigenvalues --   -0.86031  -0.85190  -0.82436  -0.81640  -0.77505
 Alpha  occ. eigenvalues --   -0.76716  -0.72274  -0.71541  -0.71365  -0.70643
 Alpha  occ. eigenvalues --   -0.70370  -0.69553  -0.64919  -0.64611  -0.64081
 Alpha  occ. eigenvalues --   -0.63774  -0.61948  -0.61111  -0.55146  -0.54325
 Alpha  occ. eigenvalues --   -0.52976  -0.52694  -0.52099  -0.51859  -0.49013
 Alpha  occ. eigenvalues --   -0.48988  -0.48302  -0.48256  -0.45087  -0.44402
 Alpha  occ. eigenvalues --   -0.37249  -0.36403  -0.36208  -0.35282
 Alpha virt. eigenvalues --    0.04995   0.05775   0.11443   0.12333   0.16534
 Alpha virt. eigenvalues --    0.17339   0.21547   0.22397   0.27393   0.27953
 Alpha virt. eigenvalues --    0.28571   0.29357   0.31079   0.31812   0.32446

 Mulliken charges:
               1
     1  C   -0.170585
     2  C   -0.219431
     3  C   -0.172429
     4  C    0.154060
     5  C   -0.155725
     6  C   -0.211896
     7  H    0.223710
     8  H    0.219542
     9  H    0.271284
    10  H    0.276149
    11  H    0.227281
    12  N    0.488948
    13  O   -0.467949
    14  O   -0.463254
    15  C   -0.170277
    16  C   -0.219046
    17  C   -0.171298
    18  C    0.156628
    19  C   -0.173160
    20  C   -0.219559
    21  H    0.226116
    22  H    0.222767
    23  H    0.273916
    24  H    0.284423
    25  H    0.228641
    26  N    0.491737
    27  O   -0.468975
    28  O   -0.461620
 Sum of Mulliken charges =  -0.00000

 Dipole moment (field-independent basis, Debye):
    X=              2.5969    Y=             -1.4698    Z=             -0.2185  Tot=              2.9920
 Quadrupole moment (field-independent basis, Debye-Ang):
   XX=            -70.6155   YY=           -111.4431   ZZ=           -103.2380
   XY=             22.3575   XZ=              1.1937   YZ=             -0.5088

 Normal termination of Gaussian 16 at Fri May  7 04:49:28 2021.
