 Gaussian 16, Revision A.03,
 Gaussian 16:  EM64L-G16RevA.03 25-Dec-2016

 -------------
 #p 6-31g* mp2
 -------------

 ------------------------------------------------------
 Input file generated by CHIRIPA (05-May-2021 14:55:22)
 ------------------------------------------------------
 Symbolic Z-matrix:
 Charge =  0 Multiplicity = 1

                         Standard orientation:
 ---------------------------------------------------------------------
 Center     Atomic      Atomic             Coordinates (Angstroms)
 Number     Number       Type             X           Y           Z
 ---------------------------------------------------------------------
      1          6           0        1.633607    1.849384    0.678679
      2          6           0        2.590145    2.203770   -0.278382
      3          6           0        3.628057    1.325529   -0.603926
      4          6           0        3.679290    0.095467    0.049995
      5          6           0        2.741321   -0.286478    1.007920
      6          6           0        1.712109    0.607580    1.317649
      7          1           0        0.830711    2.537766    0.925427
      8          1           0        2.531674    3.167506   -0.776215
      9          1           0        4.381859    1.574416   -1.340985
     10          1           0        2.825901   -1.254173    1.487325
     11          1           0        0.970641    0.329690    2.061321
     12          7           0        4.773476   -0.842660   -0.286273
     13          8           0        4.796413   -1.920440    0.304067
     14          8           0        5.587443   -0.482420   -1.133811
     15          6           0       -3.755014   -0.096208   -0.233092
     16          6           0       -2.737510   -1.213010    0.002328
     17          6           0       -1.294248   -0.749631   -0.197836
     18          1           0       -3.631865    0.294442   -1.252490
     19          1           0       -3.538572    0.737354    0.449346
     20          1           0       -2.956654   -2.044785   -0.679394
     21          1           0       -2.863224   -1.601177    1.021219
     22          1           0       -1.051985    0.065040    0.492250
     23          1           0       -1.145945   -0.381088   -1.218024
     24          1           0       -0.583534   -1.563701   -0.024531
     25          6           0       -5.202311   -0.544001   -0.036773
     26          6           0       -6.219815    0.572803   -0.272193
     27          6           0       -7.663078    0.109422   -0.072028
     28          1           0       -5.418754   -1.377562   -0.719211
     29          1           0       -5.325461   -0.934650    0.982626
     30          1           0       -6.094101    0.960968   -1.291084
     31          1           0       -6.000672    1.404576    0.409530
     32          1           0       -7.811380   -0.259121    0.948160
     33          1           0       -7.905340   -0.705249   -0.762116
     34          1           0       -8.373793    0.923492   -0.245334
 ---------------------------------------------------------------------

 SCF Done:  E(RHF) =  -669.534686251     A.U. after   15 cycles
 E2 =    -0.2091947075D+01 EUMP2 =    -0.67162663332648D+03

 The electronic state is 1-A.
 Alpha  occ. eigenvalues --  -20.60739 -20.60734 -15.85792 -11.31154 -11.27706
 Alpha  occ. eigenvalues --  -11.27699 -11.27453 -11.26741 -11.26724 -11.22091
 Alpha  occ. eigenvalues --  -11.21993 -11.21906 -11.21789 -11.21631 -11.21396
 Alpha  occ. eigenvalues --   -1.59814  -1.39368  -1.19323  -1.08897  -1.08722
 Alpha  occ. eigenvalues --   -1.04731  -1.03983  -0.96441  -0.95557  -0.87466
 Alpha  occ. eigenvalues --   -0.86124  -0.82389  -0.80050  -0.78707  -0.77436
 Alpha  occ. eigenvalues --   -0.72012  -0.71137  -0.70435  -0.65541  -0.64980
 Alpha  occ. eigenvalues --   -0.64749  -0.62106  -0.61366  -0.59805  -0.58046
 Alpha  occ. eigenvalues --   -0.55760  -0.55229  -0.53381  -0.52969  -0.52846
 Alpha  occ. eigenvalues --   -0.52669  -0.50370  -0.48770  -0.48766  -0.48362
 Alpha  occ. eigenvalues --   -0.47085  -0.46247  -0.46174  -0.44775  -0.44240
 Alpha  occ. eigenvalues --   -0.37264  -0.36278
 Alpha virt. eigenvalues --    0.05081   0.11271   0.16568   0.20605   0.22576
 Alpha virt. eigenvalues --    0.23964   0.26006   0.26636   0.27050   0.28007
 Alpha virt. eigenvalues --    0.28628   0.30700   0.31155   0.31284   0.31624

 Mulliken charges:
               1
     1  C   -0.170446
     2  C   -0.218505
     3  C   -0.171404
     4  C    0.158694
     5  C   -0.173348
     6  C   -0.211652
     7  H    0.225051
     8  H    0.223258
     9  H    0.275350
    10  H    0.275187
    11  H    0.223737
    12  N    0.488063
    13  O   -0.460579
    14  O   -0.460513
    15  C   -0.297788
    16  C   -0.301018
    17  C   -0.472798
    18  H    0.150493
    19  H    0.145200
    20  H    0.155072
    21  H    0.150554
    22  H    0.144697
    23  H    0.158323
    24  H    0.161633
    25  C   -0.298428
    26  C   -0.299760
    27  C   -0.475914
    28  H    0.151338
    29  H    0.149815
    30  H    0.152333
    31  H    0.150719
    32  H    0.155474
    33  H    0.156232
    34  H    0.160928
 Sum of Mulliken charges =  -0.00000

 Dipole moment (field-independent basis, Debye):
    X=             -3.9193    Y=              3.2791    Z=              1.1364  Tot=              5.2350
 Quadrupole moment (field-independent basis, Debye-Ang):
   XX=           -124.2119   YY=            -92.3036   ZZ=            -91.9605
   XY=             13.1703   XZ=              3.1038   YZ=             -1.9379

 Normal termination of Gaussian 16 at Wed May  5 19:00:37 2021.
