 Gaussian 16, Revision A.03,
 Gaussian 16:  EM64L-G16RevA.03 25-Dec-2016

 -------------
 #p 6-31g* mp2
 -------------

 ------------------------------------------------------
 Input file generated by CHIRIPA (05-May-2021 14:51:09)
 ------------------------------------------------------
 Symbolic Z-matrix:
 Charge =  0 Multiplicity = 1

                         Standard orientation:
 ---------------------------------------------------------------------
 Center     Atomic      Atomic             Coordinates (Angstroms)
 Number     Number       Type             X           Y           Z
 ---------------------------------------------------------------------
      1          6           0       -3.127238   -0.475394    0.435352
      2          6           0       -2.092780   -1.214034   -0.414525
      3          6           0       -0.946034   -1.789018    0.417438
      4          1           0       -2.629359    0.334789    0.985502
      5          1           0       -3.530409   -1.164276    1.190527
      6          1           0       -1.692687   -0.524348   -1.168763
      7          1           0       -2.593213   -2.022432   -0.962863
      8          1           0       -1.326503   -2.497999    1.159860
      9          1           0       -0.420860   -0.991402    0.952791
     10          1           0       -0.218155   -2.312798   -0.210021
     11          6           0       -4.279831    0.105094   -0.382138
     12          6           0       -5.314290    0.843735    0.467739
     13          6           0       -6.461035    1.418718   -0.364224
     14          1           0       -3.876661    0.793977   -1.137313
     15          1           0       -4.777710   -0.705089   -0.932288
     16          1           0       -4.813856    1.652133    1.016078
     17          1           0       -5.714382    0.154048    1.221977
     18          1           0       -6.986209    0.621103   -0.899577
     19          1           0       -6.080566    2.127700   -1.106646
     20          1           0       -7.188914    1.942499    0.263235
     21          6           0        3.484030    0.896449    0.144575
     22          6           0        4.527945    1.955432   -0.211487
     23          6           0        4.074255    3.373373    0.136941
     24          1           0        2.546867    1.122923   -0.382094
     25          1           0        3.261493    0.957635    1.218879
     26          1           0        4.749468    1.891347   -1.284537
     27          1           0        5.462791    1.726303    0.315941
     28          1           0        3.871855    3.460499    1.209342
     29          1           0        3.154480    3.626481   -0.400229
     30          1           0        4.835536    4.114458   -0.125936
     31          6           0        3.923039   -0.526149   -0.197790
     32          6           0        2.879123   -1.585132    0.158273
     33          6           0        3.332814   -3.003074   -0.190155
     34          1           0        4.145576   -0.587336   -1.272093
     35          1           0        4.860202   -0.752623    0.328880
     36          1           0        1.944279   -1.356003   -0.369155
     37          1           0        2.657601   -1.521048    1.231323
     38          1           0        4.252590   -3.256181    0.347015
     39          1           0        3.535214   -3.090200   -1.262557
     40          1           0        2.571533   -3.744158    0.072721
 ---------------------------------------------------------------------

 SCF Done:  E(RHF) =  -470.732649806     A.U. after   11 cycles
 E2 =    -0.1582857270D+01 EUMP2 =    -0.47231550707595D+03

 The electronic state is 1-A.
 Alpha  occ. eigenvalues --  -11.21601 -11.21598 -11.21594 -11.21468 -11.21404
 Alpha  occ. eigenvalues --  -11.21378 -11.21344 -11.21304 -11.21074 -11.21072
 Alpha  occ. eigenvalues --  -11.21029 -11.21008  -1.08434  -1.08389  -1.03555
 Alpha  occ. eigenvalues --   -1.03466  -0.96004  -0.95924  -0.87020  -0.86944
 Alpha  occ. eigenvalues --   -0.79696  -0.79462  -0.78264  -0.78179  -0.65080
 Alpha  occ. eigenvalues --   -0.65014  -0.60992  -0.60861  -0.59519  -0.59166
 Alpha  occ. eigenvalues --   -0.57673  -0.57464  -0.55282  -0.55224  -0.52732
 Alpha  occ. eigenvalues --   -0.52586  -0.52414  -0.52359  -0.49968  -0.49859
 Alpha  occ. eigenvalues --   -0.47913  -0.47857  -0.46672  -0.46531  -0.45819
 Alpha  occ. eigenvalues --   -0.45742  -0.45674  -0.45628  -0.43788  -0.43681
 Alpha virt. eigenvalues --    0.21886   0.23112   0.23558   0.24769   0.26348
 Alpha virt. eigenvalues --    0.26621   0.26898   0.27234   0.27678   0.29166
 Alpha virt. eigenvalues --    0.30949   0.30983   0.31514   0.31837   0.32240

 Mulliken charges:
               1
     1  C   -0.298479
     2  C   -0.300366
     3  C   -0.479035
     4  H    0.149821
     5  H    0.149601
     6  H    0.151273
     7  H    0.151826
     8  H    0.154632
     9  H    0.157397
    10  H    0.163957
    11  C   -0.298235
    12  C   -0.299655
    13  C   -0.475697
    14  H    0.149392
    15  H    0.149629
    16  H    0.151978
    17  H    0.151935
    18  H    0.155164
    19  H    0.155152
    20  H    0.160266
    21  C   -0.298304
    22  C   -0.299524
    23  C   -0.475676
    24  H    0.149088
    25  H    0.149245
    26  H    0.151906
    27  H    0.152046
    28  H    0.155108
    29  H    0.154905
    30  H    0.160266
    31  C   -0.297941
    32  C   -0.303218
    33  C   -0.477314
    34  H    0.148990
    35  H    0.149162
    36  H    0.158271
    37  H    0.151930
    38  H    0.155182
    39  H    0.154605
    40  H    0.160717
 Sum of Mulliken charges =  -0.00000

 Dipole moment (field-independent basis, Debye):
    X=             -0.0150    Y=             -0.0098    Z=              0.0101  Tot=              0.0206
 Quadrupole moment (field-independent basis, Debye-Ang):
   XX=            -85.3642   YY=            -85.4488   ZZ=            -84.1632
   XY=              1.0550   XZ=             -0.0388   YZ=             -0.1975

 Normal termination of Gaussian 16 at Wed May  5 16:38:28 2021.
