 Gaussian 16, Revision A.03,
 Gaussian 16:  EM64L-G16RevA.03 25-Dec-2016

 -------------
 #p 6-31g* mp2
 -------------

 ------------------------------------------------------
 Input file generated by CHIRIPA (05-May-2021 14:53:18)
 ------------------------------------------------------
 Symbolic Z-matrix:
 Charge =  0 Multiplicity = 1

                         Standard orientation:
 ---------------------------------------------------------------------
 Center     Atomic      Atomic             Coordinates (Angstroms)
 Number     Number       Type             X           Y           Z
 ---------------------------------------------------------------------
      1          6           0        3.204516   -0.509276   -0.186743
      2          6           0        2.286379   -1.726002   -0.065966
      3          6           0        2.942409   -3.013534   -0.565644
      4          1           0        3.503742   -0.386468   -1.236660
      5          1           0        4.126383   -0.696482    0.381157
      6          1           0        1.365928   -1.535998   -0.632787
      7          1           0        1.989149   -1.845815    0.983755
      8          1           0        3.850437   -3.230308    0.006279
      9          1           0        3.223675   -2.918731   -1.619449
     10          1           0        2.268585   -3.870681   -0.470143
     11          6           0        2.562798    0.785469    0.308800
     12          6           0        3.480935    2.002195    0.188024
     13          6           0        2.824904    3.289728    0.687702
     14          1           0        1.640931    0.972675   -0.259100
     15          1           0        2.263571    0.662661    1.358717
     16          1           0        3.778165    2.122008   -0.861698
     17          1           0        4.401385    1.812191    0.754844
     18          1           0        2.543639    3.194925    1.741506
     19          1           0        1.916877    3.506502    0.115778
     20          1           0        3.498729    4.146874    0.592200
     21          6           0       -1.725108   -2.470307    0.663927
     22          6           0       -1.379619   -2.031848   -0.618614
     23          6           0       -1.667163   -0.725018   -1.023657
     24          6           0       -2.303877    0.120501   -0.116474
     25          6           0       -2.660725   -0.286780    1.168077
     26          6           0       -2.363433   -1.597911    1.551615
     27          1           0       -1.497951   -3.487154    0.970222
     28          1           0       -0.883819   -2.707173   -1.310109
     29          1           0       -1.410840   -0.359491   -2.010626
     30          1           0       -3.154245    0.409484    1.835214
     31          1           0       -2.632912   -1.935689    2.548275
     32          7           0       -2.613447    1.506261   -0.533891
     33          8           0       -3.175000    2.231690    0.284063
     34          8           0       -2.288674    1.840752   -1.671114
 ---------------------------------------------------------------------

 SCF Done:  E(RHF) =  -669.534711934     A.U. after   15 cycles
 E2 =    -0.2093259326D+01 EUMP2 =    -0.67162797125990D+03

 The electronic state is 1-A.
 Alpha  occ. eigenvalues --  -20.60820 -20.60812 -15.85872 -11.31252 -11.27802
 Alpha  occ. eigenvalues --  -11.27788 -11.27527 -11.26828 -11.26814 -11.21891
 Alpha  occ. eigenvalues --  -11.21621 -11.21562 -11.21507 -11.21385 -11.20815
 Alpha  occ. eigenvalues --   -1.59893  -1.39447  -1.19415  -1.08810  -1.08552
 Alpha  occ. eigenvalues --   -1.04829  -1.03663  -0.96116  -0.95639  -0.87127
 Alpha  occ. eigenvalues --   -0.86218  -0.82481  -0.79746  -0.78343  -0.77518
 Alpha  occ. eigenvalues --   -0.72089  -0.71215  -0.70510  -0.65226  -0.65063
 Alpha  occ. eigenvalues --   -0.64815  -0.62184  -0.61056  -0.59538  -0.57721
 Alpha  occ. eigenvalues --   -0.55398  -0.55306  -0.53219  -0.52913  -0.52797
 Alpha  occ. eigenvalues --   -0.52525  -0.50044  -0.48849  -0.48844  -0.48042
 Alpha  occ. eigenvalues --   -0.46780  -0.45875  -0.45792  -0.44847  -0.43912
 Alpha  occ. eigenvalues --   -0.37359  -0.36318
 Alpha virt. eigenvalues --    0.04983   0.11159   0.16392   0.20606   0.22922
 Alpha virt. eigenvalues --    0.24125   0.26288   0.26856   0.27191   0.28241
 Alpha virt. eigenvalues --    0.28707   0.30726   0.31308   0.31422   0.32146

 Mulliken charges:
               1
     1  C   -0.298079
     2  C   -0.303276
     3  C   -0.475928
     4  H    0.149599
     5  H    0.149350
     6  H    0.153364
     7  H    0.150377
     8  H    0.158090
     9  H    0.155878
    10  H    0.151514
    11  C   -0.298679
    12  C   -0.299739
    13  C   -0.477058
    14  H    0.151313
    15  H    0.148857
    16  H    0.152484
    17  H    0.150523
    18  H    0.154216
    19  H    0.161629
    20  H    0.160341
    21  C   -0.170139
    22  C   -0.216061
    23  C   -0.171965
    24  C    0.159745
    25  C   -0.170974
    26  C   -0.218443
    27  H    0.225884
    28  H    0.225163
    29  H    0.275414
    30  H    0.275749
    31  H    0.223671
    32  N    0.487954
    33  O   -0.459880
    34  O   -0.460897
 Sum of Mulliken charges =  -0.00000

 Dipole moment (field-independent basis, Debye):
    X=              1.0233    Y=             -4.7957    Z=              1.4975  Tot=              5.1272
 Quadrupole moment (field-independent basis, Debye-Ang):
   XX=            -99.7775   YY=            -97.4832   ZZ=            -90.4667
   XY=             11.5774   XZ=             -5.2827   YZ=              1.0514

 Normal termination of Gaussian 16 at Thu May  6 07:36:28 2021.
