 Gaussian 16, Revision A.03,
 Gaussian 16:  EM64L-G16RevA.03 25-Dec-2016

 -------------
 #p 6-31g* mp2
 -------------

 ------------------------------------------------------
 Input file generated by CHIRIPA (05-May-2021 14:51:09)
 ------------------------------------------------------
 Symbolic Z-matrix:
 Charge =  0 Multiplicity = 1

                         Standard orientation:
 ---------------------------------------------------------------------
 Center     Atomic      Atomic             Coordinates (Angstroms)
 Number     Number       Type             X           Y           Z
 ---------------------------------------------------------------------
      1          6           0       -2.357203   -1.160318   -0.180930
      2          6           0       -1.494686   -1.562908    1.015720
      3          6           0       -0.289820   -2.415116    0.615929
      4          1           0       -2.702373   -2.066439   -0.697406
      5          1           0       -1.738137   -0.606960   -0.900615
      6          1           0       -2.115525   -2.114144    1.733574
      7          1           0       -1.151688   -0.655727    1.529520
      8          1           0        0.353069   -1.869702   -0.082511
      9          1           0       -0.616244   -3.336406    0.122702
     10          1           0        0.312946   -2.691652    1.486596
     11          6           0       -3.565591   -0.308046    0.202687
     12          6           0       -4.428108    0.094544   -0.993962
     13          6           0       -5.632974    0.946752   -0.594171
     14          1           0       -4.184657   -0.861404    0.922373
     15          1           0       -3.220422    0.598075    0.719164
     16          1           0       -4.771106   -0.812637   -1.507762
     17          1           0       -3.807269    0.645780   -1.711816
     18          1           0       -5.306550    1.868042   -0.100944
     19          1           0       -6.275863    0.401338    0.104269
     20          1           0       -6.235740    1.223288   -1.464838
     21          6           0        3.659623    0.646299   -0.307846
     22          6           0        4.171695   -0.792741   -0.237630
     23          6           0        5.569778   -0.952548   -0.835646
     24          1           0        3.651392    0.975089   -1.356071
     25          1           0        4.362959    1.304588    0.220706
     26          1           0        3.466891   -1.448315   -0.764972
     27          1           0        4.178528   -1.118210    0.810530
     28          1           0        6.290312   -0.322183   -0.304541
     29          1           0        5.574632   -0.654164   -1.888995
     30          1           0        5.916301   -1.988939   -0.775017
     31          6           0        2.263171    0.822065    0.286088
     32          6           0        1.751099    2.261105    0.215873
     33          6           0        0.353016    2.420912    0.813887
     34          1           0        1.559836    0.163775   -0.242464
     35          1           0        2.271402    0.493274    1.334312
     36          1           0        1.744267    2.586573   -0.832287
     37          1           0        2.455903    2.916679    0.743214
     38          1           0        0.348163    2.122527    1.867236
     39          1           0       -0.367517    1.790546    0.282783
     40          1           0        0.006494    3.457303    0.753260
 ---------------------------------------------------------------------

 SCF Done:  E(RHF) =  -470.733048538     A.U. after   11 cycles
 E2 =    -0.1584062891D+01 EUMP2 =    -0.47231711142823D+03

 The electronic state is 1-A.
 Alpha  occ. eigenvalues --  -11.21663 -11.21604 -11.21586 -11.21529 -11.21431
 Alpha  occ. eigenvalues --  -11.21389 -11.21371 -11.21327 -11.21165 -11.21072
 Alpha  occ. eigenvalues --  -11.21052 -11.20986  -1.08479  -1.08393  -1.03576
 Alpha  occ. eigenvalues --   -1.03485  -0.96036  -0.95933  -0.87054  -0.86947
 Alpha  occ. eigenvalues --   -0.79632  -0.79557  -0.78290  -0.78213  -0.65224
 Alpha  occ. eigenvalues --   -0.64938  -0.61018  -0.60847  -0.59378  -0.59311
 Alpha  occ. eigenvalues --   -0.57662  -0.57541  -0.55463  -0.55108  -0.52717
 Alpha  occ. eigenvalues --   -0.52632  -0.52467  -0.52355  -0.50050  -0.49802
 Alpha  occ. eigenvalues --   -0.48024  -0.47832  -0.46721  -0.46594  -0.45936
 Alpha  occ. eigenvalues --   -0.45811  -0.45643  -0.45424  -0.43821  -0.43750
 Alpha virt. eigenvalues --    0.19597   0.22662   0.23905   0.24340   0.25660
 Alpha virt. eigenvalues --    0.26000   0.26493   0.27657   0.29073   0.29388
 Alpha virt. eigenvalues --    0.31286   0.31488   0.31693   0.32032   0.32154

 Mulliken charges:
               1
     1  C   -0.298905
     2  C   -0.303086
     3  C   -0.478778
     4  H    0.149830
     5  H    0.148216
     6  H    0.151704
     7  H    0.156031
     8  H    0.158774
     9  H    0.154306
    10  H    0.160180
    11  C   -0.300008
    12  C   -0.299460
    13  C   -0.475747
    14  H    0.149662
    15  H    0.151538
    16  H    0.151827
    17  H    0.151553
    18  H    0.155472
    19  H    0.155152
    20  H    0.160125
    21  C   -0.298147
    22  C   -0.300349
    23  C   -0.475752
    24  H    0.149405
    25  H    0.149622
    26  H    0.152840
    27  H    0.152206
    28  H    0.155157
    29  H    0.155102
    30  H    0.160486
    31  C   -0.303668
    32  C   -0.299321
    33  C   -0.480098
    34  H    0.155005
    35  H    0.150167
    36  H    0.151850
    37  H    0.152346
    38  H    0.155722
    39  H    0.158437
    40  H    0.160602
 Sum of Mulliken charges =  -0.00000

 Dipole moment (field-independent basis, Debye):
    X=              0.0297    Y=              0.0180    Z=              0.0184  Tot=              0.0393
 Quadrupole moment (field-independent basis, Debye-Ang):
   XX=            -86.1242   YY=            -84.5385   ZZ=            -84.0902
   XY=              1.3694   XZ=              0.8210   YZ=             -0.1029

 Normal termination of Gaussian 16 at Wed May  5 19:43:57 2021.
