 Gaussian 16, Revision A.03,
 Gaussian 16:  EM64L-G16RevA.03 25-Dec-2016

 -------------
 #p 6-31g* mp2
 -------------

 ------------------------------------------------------
 Input file generated by CHIRIPA (05-May-2021 14:55:23)
 ------------------------------------------------------
 Symbolic Z-matrix:
 Charge =  0 Multiplicity = 1

                         Standard orientation:
 ---------------------------------------------------------------------
 Center     Atomic      Atomic             Coordinates (Angstroms)
 Number     Number       Type             X           Y           Z
 ---------------------------------------------------------------------
      1          6           0       -0.481062   -0.421070    1.466652
      2          6           0       -1.249116    0.731602    1.661490
      3          6           0       -2.455859    0.904786    0.977145
      4          6           0       -2.866286   -0.099304    0.101565
      5          6           0       -2.123324   -1.258987   -0.113920
      6          6           0       -0.919844   -1.410941    0.581130
      7          1           0        0.455097   -0.547358    2.002425
      8          1           0       -0.910826    1.502000    2.348579
      9          1           0       -3.070109    1.787223    1.109133
     10          1           0       -2.486610   -2.009553   -0.805361
     11          1           0       -0.325423   -2.307161    0.427841
     12          7           0       -4.142083    0.072801   -0.628587
     13          8           0       -4.481668   -0.826498   -1.394473
     14          8           0       -4.778312    1.103736   -0.421168
     15          6           0        3.081258   -0.530482   -0.261036
     16          6           0        4.103527   -1.664205   -0.173727
     17          6           0        3.451122   -3.046275   -0.128504
     18          1           0        2.403263   -0.589433    0.601399
     19          1           0        2.460941   -0.673633   -1.156642
     20          1           0        4.722637   -1.518199    0.720701
     21          1           0        4.779285   -1.602434   -1.036369
     22          1           0        2.848232   -3.217242   -1.026220
     23          1           0        2.791262   -3.132529    0.740833
     24          1           0        4.200073   -3.841920   -0.066214
     25          6           0        3.718152    0.857314   -0.307034
     26          6           0        2.695882    1.991038   -0.394343
     27          6           0        3.348287    3.373107   -0.439566
     28          1           0        4.338469    1.000465    0.588572
     29          1           0        4.396146    0.916265   -1.169469
     30          1           0        2.020125    1.929266    0.468299
     31          1           0        2.076773    1.845032   -1.288772
     32          1           0        4.008147    3.459362   -1.308903
     33          1           0        3.951178    3.544075    0.458150
     34          1           0        2.599337    4.168752   -0.501856
 ---------------------------------------------------------------------

 SCF Done:  E(RHF) =  -669.535144038     A.U. after   15 cycles
 E2 =    -0.2092622826D+01 EUMP2 =    -0.67162776686379D+03

 The electronic state is 1-A.
 Alpha  occ. eigenvalues --  -20.60745 -20.60740 -15.85799 -11.31160 -11.27734
 Alpha  occ. eigenvalues --  -11.27723 -11.27468 -11.26754 -11.26719 -11.22440
 Alpha  occ. eigenvalues --  -11.22272 -11.22229 -11.22087 -11.22044 -11.21595
 Alpha  occ. eigenvalues --   -1.59821  -1.39375  -1.19335  -1.09223  -1.08728
 Alpha  occ. eigenvalues --   -1.04735  -1.04282  -0.96745  -0.95570  -0.87758
 Alpha  occ. eigenvalues --   -0.86134  -0.82402  -0.80345  -0.79037  -0.77440
 Alpha  occ. eigenvalues --   -0.72017  -0.71144  -0.70480  -0.65860  -0.64988
 Alpha  occ. eigenvalues --   -0.64728  -0.62087  -0.61677  -0.60106  -0.58355
 Alpha  occ. eigenvalues --   -0.56091  -0.55236  -0.53422  -0.53192  -0.53033
 Alpha  occ. eigenvalues --   -0.52820  -0.50691  -0.48776  -0.48774  -0.48660
 Alpha  occ. eigenvalues --   -0.47387  -0.46566  -0.46469  -0.44781  -0.44539
 Alpha  occ. eigenvalues --   -0.37262  -0.36331
 Alpha virt. eigenvalues --    0.05058   0.11225   0.16453   0.19219   0.22701
 Alpha virt. eigenvalues --    0.23234   0.25292   0.26134   0.26555   0.27985
 Alpha virt. eigenvalues --    0.29988   0.30505   0.30976   0.31156   0.31521

 Mulliken charges:
               1
     1  C   -0.168048
     2  C   -0.219418
     3  C   -0.171035
     4  C    0.158579
     5  C   -0.171633
     6  C   -0.219070
     7  H    0.225305
     8  H    0.223181
     9  H    0.275499
    10  H    0.275546
    11  H    0.225925
    12  N    0.488061
    13  O   -0.460541
    14  O   -0.460542
    15  C   -0.299780
    16  C   -0.299985
    17  C   -0.476643
    18  H    0.140030
    19  H    0.153524
    20  H    0.152869
    21  H    0.156199
    22  H    0.156245
    23  H    0.147085
    24  H    0.165293
    25  C   -0.299248
    26  C   -0.299008
    27  C   -0.476442
    28  H    0.149054
    29  H    0.153018
    30  H    0.145616
    31  H    0.156311
    32  H    0.157478
    33  H    0.154538
    34  H    0.162037
 Sum of Mulliken charges =  -0.00000

 Dipole moment (field-independent basis, Debye):
    X=              4.6268    Y=             -0.5780    Z=              2.4521  Tot=              5.2682
 Quadrupole moment (field-independent basis, Debye-Ang):
   XX=           -120.8205   YY=            -91.8589   ZZ=            -92.7960
   XY=              0.2141   XZ=             -7.6794   YZ=              2.0875

 Normal termination of Gaussian 16 at Thu May  6 06:18:32 2021.
