 Gaussian 16, Revision A.03,
 Gaussian 16:  EM64L-G16RevA.03 25-Dec-2016

 -------------
 #p 6-31g* mp2
 -------------

 ------------------------------------------------------
 Input file generated by CHIRIPA (05-May-2021 14:57:25)
 ------------------------------------------------------
 Symbolic Z-matrix:
 Charge =  0 Multiplicity = 1

                         Standard orientation:
 ---------------------------------------------------------------------
 Center     Atomic      Atomic             Coordinates (Angstroms)
 Number     Number       Type             X           Y           Z
 ---------------------------------------------------------------------
      1          6           0        4.641419   -0.025815    0.986882
      2          6           0        4.197963    0.953842    0.092377
      3          6           0        3.034226    0.756679   -0.656884
      4          6           0        2.335341   -0.437306   -0.485860
      5          6           0        2.751574   -1.432312    0.397317
      6          6           0        3.918084   -1.213671    1.136234
      7          1           0        5.546515    0.135688    1.564908
      8          1           0        4.757698    1.877318   -0.025667
      9          1           0        2.668334    1.498376   -1.356475
     10          1           0        2.172365   -2.342650    0.493334
     11          1           0        4.260111   -1.976238    1.830175
     12          7           0        1.101877   -0.657402   -1.273594
     13          8           0        0.504088   -1.717940   -1.104638
     14          8           0        0.756232    0.234791   -2.045058
     15          6           0       -0.960681    2.359966    0.552432
     16          6           0       -1.109742    1.471195    1.622192
     17          6           0       -1.981200    0.382356    1.524510
     18          6           0       -2.691181    0.211649    0.337044
     19          6           0       -2.564368    1.079772   -0.746269
     20          6           0       -1.687189    2.161767   -0.626307
     21          1           0       -0.281488    3.203143    0.636967
     22          1           0       -0.546807    1.622643    2.538824
     23          1           0       -2.115745   -0.321036    2.337255
     24          1           0       -3.139033    0.902720   -1.647286
     25          1           0       -1.573433    2.850392   -1.458714
     26          7           0       -3.616783   -0.937433    0.221840
     27          8           0       -4.230876   -1.065808   -0.835063
     28          8           0       -3.710650   -1.687950    1.190628
 ---------------------------------------------------------------------

 SCF Done:  E(RHF) =  -868.337728865     A.U. after   16 cycles
 E2 =    -0.2602221961D+01 EUMP2 =    -0.87093995082690D+03

 The electronic state is 1-A.
 Alpha  occ. eigenvalues --  -20.61095 -20.61086 -20.59835 -20.59808 -15.86123
 Alpha  occ. eigenvalues --  -15.84879 -11.31575 -11.30258 -11.28185 -11.28103
 Alpha  occ. eigenvalues --  -11.27892 -11.27205 -11.27146 -11.26897 -11.26747
 Alpha  occ. eigenvalues --  -11.26670 -11.26015 -11.25835  -1.60144  -1.58885
 Alpha  occ. eigenvalues --   -1.39703  -1.38444  -1.19749  -1.18447  -1.09125
 Alpha  occ. eigenvalues --   -1.07863  -1.05166  -1.03858  -0.95952  -0.94693
 Alpha  occ. eigenvalues --   -0.86555  -0.85273  -0.82789  -0.81528  -0.77826
 Alpha  occ. eigenvalues --   -0.76550  -0.72364  -0.71475  -0.71117  -0.70852
 Alpha  occ. eigenvalues --   -0.70172  -0.69627  -0.65402  -0.65165  -0.64123
 Alpha  occ. eigenvalues --   -0.63905  -0.62511  -0.61221  -0.55655  -0.54448
 Alpha  occ. eigenvalues --   -0.53495  -0.53254  -0.52179  -0.51984  -0.49133
 Alpha  occ. eigenvalues --   -0.49086  -0.47874  -0.47855  -0.45132  -0.43852
 Alpha  occ. eigenvalues --   -0.37762  -0.36792  -0.36409  -0.35338
 Alpha virt. eigenvalues --    0.04705   0.06005   0.10868   0.12232   0.16187
 Alpha virt. eigenvalues --    0.17488   0.21001   0.22129   0.26893   0.27825
 Alpha virt. eigenvalues --    0.28149   0.29013   0.30592   0.31611   0.32190

 Mulliken charges:
               1
     1  C   -0.171573
     2  C   -0.219498
     3  C   -0.173096
     4  C    0.161034
     5  C   -0.171663
     6  C   -0.219029
     7  H    0.226283
     8  H    0.222597
     9  H    0.271884
    10  H    0.278703
    11  H    0.225173
    12  N    0.489656
    13  O   -0.456494
    14  O   -0.463173
    15  C   -0.176958
    16  C   -0.222890
    17  C   -0.173008
    18  C    0.163367
    19  C   -0.160234
    20  C   -0.203203
    21  H    0.217856
    22  H    0.217129
    23  H    0.271641
    24  H    0.276795
    25  H    0.222353
    26  N    0.490090
    27  O   -0.458988
    28  O   -0.464755
 Sum of Mulliken charges =  -0.00000

 Dipole moment (field-independent basis, Debye):
    X=              7.5693    Y=              4.6413    Z=              2.9069  Tot=              9.3427
 Quadrupole moment (field-independent basis, Debye-Ang):
   XX=           -103.0724   YY=           -100.3622   ZZ=           -103.0015
   XY=            -10.3124   XZ=              6.1966   YZ=             -4.2326

 Normal termination of Gaussian 16 at Wed May  5 18:00:15 2021.
