 Gaussian 16, Revision A.03,
 Gaussian 16:  EM64L-G16RevA.03 25-Dec-2016

 -------------
 #p 6-31g* mp2
 -------------

 ------------------------------------------------------
 Input file generated by CHIRIPA (05-May-2021 14:57:27)
 ------------------------------------------------------
 Symbolic Z-matrix:
 Charge =  0 Multiplicity = 1

                         Standard orientation:
 ---------------------------------------------------------------------
 Center     Atomic      Atomic             Coordinates (Angstroms)
 Number     Number       Type             X           Y           Z
 ---------------------------------------------------------------------
      1          6           0       -4.008034    2.160963   -0.119469
      2          6           0       -3.330827    1.875549    1.070678
      3          6           0       -2.711167    0.635997    1.255284
      4          6           0       -2.788801   -0.299037    0.224277
      5          6           0       -3.456003   -0.044522   -0.972950
      6          6           0       -4.068355    1.201708   -1.135693
      7          1           0       -4.486563    3.126471   -0.254383
      8          1           0       -3.282360    2.618605    1.861604
      9          1           0       -2.180263    0.388700    2.166549
     10          1           0       -3.487228   -0.805407   -1.743338
     11          1           0       -4.593588    1.420603   -2.061036
     12          7           0       -2.136663   -1.614830    0.408139
     13          8           0       -2.219487   -2.421566   -0.515416
     14          8           0       -1.555042   -1.814497    1.472322
     15          6           0        5.198909    0.989109    0.297253
     16          6           0        4.145738    1.866482    0.018747
     17          6           0        2.865780    1.375153   -0.254845
     18          6           0        2.673672   -0.005500   -0.241465
     19          6           0        3.702657   -0.905205    0.032415
     20          6           0        4.974404   -0.391501    0.303188
     21          1           0        6.190021    1.379475    0.508690
     22          1           0        4.317172    2.939155    0.013447
     23          1           0        2.032525    2.031838   -0.473633
     24          1           0        3.500995   -1.969511    0.030421
     25          1           0        5.790431   -1.075245    0.519146
     26          7           0        1.322984   -0.537493   -0.529612
     27          8           0        1.179714   -1.758062   -0.511681
     28          8           0        0.433162    0.276175   -0.767936
 ---------------------------------------------------------------------

 SCF Done:  E(RHF) =  -868.337265479     A.U. after   16 cycles
 E2 =    -0.2602400412D+01 EUMP2 =    -0.87093966589128D+03

 The electronic state is 1-A.
 Alpha  occ. eigenvalues --  -20.60504 -20.60370 -20.59022 -20.58954 -15.85439
 Alpha  occ. eigenvalues --  -15.84052 -11.30920 -11.29676 -11.27538 -11.27461
 Alpha  occ. eigenvalues --  -11.27280 -11.26573 -11.26521 -11.26341 -11.26283
 Alpha  occ. eigenvalues --  -11.26199 -11.25501 -11.25456  -1.59492  -1.58003
 Alpha  occ. eigenvalues --   -1.39038  -1.37587  -1.19105  -1.17892  -1.08487
 Alpha  occ. eigenvalues --   -1.07254  -1.04525  -1.03392  -0.95303  -0.94058
 Alpha  occ. eigenvalues --   -0.85919  -0.84786  -0.82133  -0.80932  -0.77166
 Alpha  occ. eigenvalues --   -0.75906  -0.71665  -0.70872  -0.70326  -0.70223
 Alpha  occ. eigenvalues --   -0.69201  -0.69098  -0.64758  -0.64530  -0.63599
 Alpha  occ. eigenvalues --   -0.63464  -0.61871  -0.60773  -0.55033  -0.53948
 Alpha  occ. eigenvalues --   -0.52848  -0.52624  -0.51652  -0.51541  -0.48490
 Alpha  occ. eigenvalues --   -0.48414  -0.47048  -0.47022  -0.44412  -0.42958
 Alpha  occ. eigenvalues --   -0.37093  -0.36135  -0.35829  -0.34994
 Alpha virt. eigenvalues --    0.05373   0.06741   0.11520   0.12654   0.16849
 Alpha virt. eigenvalues --    0.18130   0.21628   0.22526   0.27526   0.28381
 Alpha virt. eigenvalues --    0.28543   0.29459   0.31159   0.31987   0.32800

 Mulliken charges:
               1
     1  C   -0.172981
     2  C   -0.219455
     3  C   -0.169650
     4  C    0.180190
     5  C   -0.167080
     6  C   -0.218853
     7  H    0.218537
     8  H    0.215785
     9  H    0.269487
    10  H    0.273469
    11  H    0.217695
    12  N    0.495993
    13  O   -0.457215
    14  O   -0.468868
    15  C   -0.171175
    16  C   -0.218717
    17  C   -0.171905
    18  C    0.160013
    19  C   -0.169761
    20  C   -0.218736
    21  H    0.224472
    22  H    0.221289
    23  H    0.273028
    24  H    0.279196
    25  H    0.223533
    26  N    0.489040
    27  O   -0.442744
    28  O   -0.474584
 Sum of Mulliken charges =  -0.00000

 Dipole moment (field-independent basis, Debye):
    X=              2.7936    Y=              6.0479    Z=              0.2435  Tot=              6.6664
 Quadrupole moment (field-independent basis, Debye-Ang):
   XX=            -68.2886   YY=           -103.8098   ZZ=           -102.7798
   XY=             -8.3469   XZ=              5.1201   YZ=              1.7589

 Normal termination of Gaussian 16 at Wed May  5 16:33:48 2021.
