 Gaussian 16, Revision A.03,
 Gaussian 16:  EM64L-G16RevA.03 25-Dec-2016

 -------------
 #p 6-31g* mp2
 -------------

 ------------------------------------------------------
 Input file generated by CHIRIPA (05-May-2021 14:57:21)
 ------------------------------------------------------
 Symbolic Z-matrix:
 Charge =  0 Multiplicity = 1

                         Standard orientation:
 ---------------------------------------------------------------------
 Center     Atomic      Atomic             Coordinates (Angstroms)
 Number     Number       Type             X           Y           Z
 ---------------------------------------------------------------------
      1          6           0        2.300363    2.117751   -1.187673
      2          6           0        3.444216    2.234824   -0.391171
      3          6           0        3.981628    1.113959    0.248671
      4          6           0        3.346798   -0.114098    0.069352
      5          6           0        2.205958   -0.262931   -0.717809
      6          6           0        1.685968    0.871444   -1.348167
      7          1           0        1.889656    2.993713   -1.681034
      8          1           0        3.923462    3.201459   -0.264733
      9          1           0        4.866109    1.176190    0.870956
     10          1           0        1.750337   -1.239842   -0.824927
     11          1           0        0.797527    0.777546   -1.966148
     12          7           0        3.906510   -1.307859    0.741704
     13          8           0        3.328552   -2.378533    0.567750
     14          8           0        4.912572   -1.150252    1.429916
     15          6           0       -3.493545    2.223056    1.037720
     16          6           0       -4.308028    1.178460    1.487117
     17          6           0       -4.184333   -0.103108    0.942296
     18          6           0       -3.231446   -0.305554   -0.054855
     19          6           0       -2.405298    0.714724   -0.523686
     20          6           0       -2.546449    1.988268    0.035519
     21          1           0       -3.596415    3.215492    1.466537
     22          1           0       -5.044412    1.357888    2.265312
     23          1           0       -4.801945   -0.929869    1.271601
     24          1           0       -1.680270    0.505183   -1.300760
     25          1           0       -1.912556    2.797621   -0.315438
     26          7           0       -3.091255   -1.658046   -0.639247
     27          8           0       -2.244131   -1.810502   -1.516616
     28          8           0       -3.831152   -2.540064   -0.208858
 ---------------------------------------------------------------------

 SCF Done:  E(RHF) =  -868.337007332     A.U. after   16 cycles
 E2 =    -0.2599976383D+01 EUMP2 =    -0.87093698371529D+03

 The electronic state is 1-A.
 Alpha  occ. eigenvalues --  -20.61248 -20.61208 -20.60733 -20.60711 -15.86286
 Alpha  occ. eigenvalues --  -15.85783 -11.31691 -11.31277 -11.28363 -11.28204
 Alpha  occ. eigenvalues --  -11.27983 -11.27905 -11.27829 -11.27751 -11.27338
 Alpha  occ. eigenvalues --  -11.27225 -11.26991 -11.26956  -1.60297  -1.59800
 Alpha  occ. eigenvalues --   -1.39855  -1.39347  -1.19859  -1.19494  -1.09239
 Alpha  occ. eigenvalues --   -1.08886  -1.05284  -1.04911  -0.96075  -0.95682
 Alpha  occ. eigenvalues --   -0.86681  -0.86320  -0.82917  -0.82507  -0.77979
 Alpha  occ. eigenvalues --   -0.77504  -0.72505  -0.71998  -0.71615  -0.71127
 Alpha  occ. eigenvalues --   -0.70984  -0.70623  -0.65522  -0.65332  -0.65150
 Alpha  occ. eigenvalues --   -0.64928  -0.62703  -0.62180  -0.55768  -0.55468
 Alpha  occ. eigenvalues --   -0.53590  -0.53433  -0.53234  -0.52963  -0.49271
 Alpha  occ. eigenvalues --   -0.49247  -0.48776  -0.48740  -0.45253  -0.44723
 Alpha  occ. eigenvalues --   -0.37818  -0.37532  -0.36901  -0.36477
 Alpha virt. eigenvalues --    0.04579   0.05023   0.10760   0.11078   0.16082
 Alpha virt. eigenvalues --    0.16416   0.18948   0.22010   0.24768   0.26883
 Alpha virt. eigenvalues --    0.28146   0.29279   0.29805   0.31165   0.32361

 Mulliken charges:
               1
     1  C   -0.172790
     2  C   -0.218829
     3  C   -0.170217
     4  C    0.158336
     5  C   -0.170734
     6  C   -0.224220
     7  H    0.221603
     8  H    0.222814
     9  H    0.276192
    10  H    0.285983
    11  H    0.222380
    12  N    0.487720
    13  O   -0.455990
    14  O   -0.461338
    15  C   -0.170267
    16  C   -0.218011
    17  C   -0.169290
    18  C    0.160022
    19  C   -0.172095
    20  C   -0.217102
    21  H    0.226727
    22  H    0.225756
    23  H    0.277943
    24  H    0.269043
    25  H    0.218761
    26  N    0.488365
    27  O   -0.465170
    28  O   -0.455593
 Sum of Mulliken charges =  -0.00000

 Dipole moment (field-independent basis, Debye):
    X=             -2.5674    Y=              8.7880    Z=             -0.1405  Tot=              9.1564
 Quadrupole moment (field-independent basis, Debye-Ang):
   XX=           -109.3111   YY=           -107.4884   ZZ=           -104.0897
   XY=              2.6030   XZ=            -16.0684   YZ=              0.0135

 Normal termination of Gaussian 16 at Thu May  6 16:07:48 2021.
