 Gaussian 16, Revision A.03,
 Gaussian 16:  EM64L-G16RevA.03 25-Dec-2016

 -------------
 #p 6-31g* mp2
 -------------

 ------------------------------------------------------
 Input file generated by CHIRIPA (05-May-2021 14:57:27)
 ------------------------------------------------------
 Symbolic Z-matrix:
 Charge =  0 Multiplicity = 1

                         Standard orientation:
 ---------------------------------------------------------------------
 Center     Atomic      Atomic             Coordinates (Angstroms)
 Number     Number       Type             X           Y           Z
 ---------------------------------------------------------------------
      1          6           0        1.477840   -0.377928    0.758036
      2          6           0        2.398056    0.193748    1.642857
      3          6           0        3.741430    0.329665    1.280340
      4          6           0        4.131842   -0.118841    0.019502
      5          6           0        3.238895   -0.692630   -0.884213
      6          6           0        1.900451   -0.818516   -0.500457
      7          1           0        0.436189   -0.479616    1.047898
      8          1           0        2.072684    0.536796    2.620864
      9          1           0        4.474908    0.768519    1.945799
     10          1           0        3.593108   -1.025303   -1.852345
     11          1           0        1.188008   -1.262877   -1.189669
     12          7           0        5.551403    0.019739   -0.375521
     13          8           0        5.870141   -0.383243   -1.492055
     14          8           0        6.318437    0.528714    0.438874
     15          6           0       -2.997206    2.486557   -0.321792
     16          6           0       -4.377383    2.260844   -0.347969
     17          6           0       -4.887634    0.965792   -0.217460
     18          6           0       -3.984955   -0.085013   -0.061677
     19          6           0       -2.604644    0.107680   -0.031674
     20          6           0       -2.116793    1.411151   -0.164007
     21          1           0       -2.609530    3.495855   -0.423883
     22          1           0       -5.063481    3.094109   -0.470376
     23          1           0       -5.951527    0.762648   -0.234265
     24          1           0       -1.945561   -0.743084    0.091733
     25          1           0       -1.044448    1.583466   -0.143315
     26          7           0       -4.513279   -1.460483    0.077453
     27          8           0       -3.697035   -2.369255    0.213528
     28          8           0       -5.733619   -1.603760    0.047793
 ---------------------------------------------------------------------

 SCF Done:  E(RHF) =  -868.337112006     A.U. after   16 cycles
 E2 =    -0.2600391242D+01 EUMP2 =    -0.87093750324822D+03

 The electronic state is 1-A.
 Alpha  occ. eigenvalues --  -20.61518 -20.61498 -20.61179 -20.61174 -15.86567
 Alpha  occ. eigenvalues --  -15.86234 -11.32025 -11.31739 -11.28703 -11.28518
 Alpha  occ. eigenvalues --  -11.28285 -11.28280 -11.28265 -11.28156 -11.27626
 Alpha  occ. eigenvalues --  -11.27534 -11.27387 -11.27376  -1.60583  -1.60250
 Alpha  occ. eigenvalues --   -1.40137  -1.39800  -1.20181  -1.19921  -1.09539
 Alpha  occ. eigenvalues --   -1.09319  -1.05614  -1.05325  -0.96377  -0.96125
 Alpha  occ. eigenvalues --   -0.86987  -0.86730  -0.83234  -0.82926  -0.78277
 Alpha  occ. eigenvalues --   -0.77940  -0.72783  -0.72450  -0.71908  -0.71574
 Alpha  occ. eigenvalues --   -0.71382  -0.70993  -0.65834  -0.65601  -0.65575
 Alpha  occ. eigenvalues --   -0.65328  -0.62975  -0.62647  -0.56126  -0.55813
 Alpha  occ. eigenvalues --   -0.53905  -0.53792  -0.53570  -0.53413  -0.49549
 Alpha  occ. eigenvalues --   -0.49531  -0.49221  -0.49197  -0.45524  -0.45173
 Alpha  occ. eigenvalues --   -0.38121  -0.37952  -0.37218  -0.36916
 Alpha virt. eigenvalues --    0.04267   0.04527   0.10440   0.10714   0.15698
 Alpha virt. eigenvalues --    0.15887   0.18351   0.21894   0.24852   0.26849
 Alpha virt. eigenvalues --    0.27218   0.29598   0.30157   0.30721   0.31683

 Mulliken charges:
               1
     1  C   -0.180284
     2  C   -0.219403
     3  C   -0.170702
     4  C    0.159601
     5  C   -0.170345
     6  C   -0.220397
     7  H    0.225234
     8  H    0.226008
     9  H    0.277404
    10  H    0.278185
    11  H    0.225940
    12  N    0.487817
    13  O   -0.458494
    14  O   -0.458933
    15  C   -0.170665
    16  C   -0.217638
    17  C   -0.170087
    18  C    0.161484
    19  C   -0.179262
    20  C   -0.221407
    21  H    0.229095
    22  H    0.226793
    23  H    0.278199
    24  H    0.267875
    25  H    0.224749
    26  N    0.488349
    27  O   -0.462323
    28  O   -0.456794
 Sum of Mulliken charges =  -0.00000

 Dipole moment (field-independent basis, Debye):
    X=             -3.1568    Y=              4.4549    Z=              0.8554  Tot=              5.5266
 Quadrupole moment (field-independent basis, Debye-Ang):
   XX=           -155.0632   YY=           -104.9127   ZZ=           -101.6432
   XY=            -22.8986   XZ=              9.0984   YZ=              1.5600

 Normal termination of Gaussian 16 at Wed May  5 19:36:36 2021.
