 Gaussian 16, Revision A.03,
 Gaussian 16:  EM64L-G16RevA.03 25-Dec-2016

 -------------
 #p 6-31g* mp2
 -------------

 ------------------------------------------------------
 Input file generated by CHIRIPA (05-May-2021 14:55:23)
 ------------------------------------------------------
 Symbolic Z-matrix:
 Charge =  0 Multiplicity = 1

                         Standard orientation:
 ---------------------------------------------------------------------
 Center     Atomic      Atomic             Coordinates (Angstroms)
 Number     Number       Type             X           Y           Z
 ---------------------------------------------------------------------
      1          6           0       -1.576157    2.269102   -0.639175
      2          6           0       -2.925501    2.275585   -0.270732
      3          6           0       -3.621039    1.074713   -0.101378
      4          6           0       -2.933073   -0.119711   -0.309571
      5          6           0       -1.588962   -0.159010   -0.677146
      6          6           0       -0.913363    1.053968   -0.840851
      7          1           0       -1.043591    3.206671   -0.768540
      8          1           0       -3.442789    3.217772   -0.113437
      9          1           0       -4.665897    1.050755    0.183430
     10          1           0       -1.100209   -1.114060   -0.826872
     11          1           0        0.134530    1.045896   -1.127034
     12          7           0       -3.658854   -1.397428   -0.133273
     13          8           0       -3.030040   -2.436352   -0.322664
     14          8           0       -4.842792   -1.335786    0.190961
     15          6           0        4.050613   -0.532617   -0.022819
     16          6           0        5.342630    0.183071   -0.418379
     17          6           0        6.231144   -0.662508   -1.331252
     18          1           0        4.301094   -1.477104    0.479323
     19          1           0        3.494586   -0.799922   -0.932092
     20          1           0        5.895389    0.450175    0.491417
     21          1           0        5.089046    1.126056   -0.919468
     22          1           0        5.702014   -0.917725   -2.255095
     23          1           0        6.512938   -1.597447   -0.836195
     24          1           0        7.149279   -0.131713   -1.601704
     25          6           0        3.151833    0.299983    0.889704
     26          6           0        1.859816   -0.415703    1.285264
     27          6           0        0.971303    0.429875    2.198136
     28          1           0        3.707861    0.567290    1.798976
     29          1           0        2.901352    1.244472    0.387561
     30          1           0        2.113400   -1.358689    1.786352
     31          1           0        1.307057   -0.682808    0.375467
     32          1           0        0.689508    1.364815    1.703080
     33          1           0        1.500432    0.685093    3.121980
     34          1           0        0.053168   -0.100920    2.468589
 ---------------------------------------------------------------------

 SCF Done:  E(RHF) =  -669.534428231     A.U. after   15 cycles
 E2 =    -0.2093636784D+01 EUMP2 =    -0.67162806501484D+03

 The electronic state is 1-A.
 Alpha  occ. eigenvalues --  -20.60785 -20.60780 -15.85838 -11.31220 -11.27768
 Alpha  occ. eigenvalues --  -11.27764 -11.27519 -11.26804 -11.26788 -11.22199
 Alpha  occ. eigenvalues --  -11.22093 -11.22038 -11.21929 -11.21461 -11.21427
 Alpha  occ. eigenvalues --   -1.59860  -1.39413  -1.19390  -1.09011  -1.08780
 Alpha  occ. eigenvalues --   -1.04814  -1.04014  -0.96456  -0.95616  -0.87469
 Alpha  occ. eigenvalues --   -0.86194  -0.82456  -0.80099  -0.78825  -0.77497
 Alpha  occ. eigenvalues --   -0.72056  -0.71184  -0.70498  -0.65740  -0.65041
 Alpha  occ. eigenvalues --   -0.64771  -0.62266  -0.61314  -0.59821  -0.58067
 Alpha  occ. eigenvalues --   -0.55816  -0.55291  -0.53218  -0.52948  -0.52898
 Alpha  occ. eigenvalues --   -0.52853  -0.50395  -0.48817  -0.48811  -0.48398
 Alpha  occ. eigenvalues --   -0.47165  -0.46345  -0.46312  -0.44814  -0.44293
 Alpha  occ. eigenvalues --   -0.37350  -0.36330
 Alpha virt. eigenvalues --    0.05009   0.11176   0.16417   0.19381   0.22789
 Alpha virt. eigenvalues --    0.24051   0.25314   0.26030   0.27319   0.28269
 Alpha virt. eigenvalues --    0.28839   0.30720   0.31220   0.31348   0.32243

 Mulliken charges:
               1
     1  C   -0.172637
     2  C   -0.217928
     3  C   -0.171214
     4  C    0.157747
     5  C   -0.170657
     6  C   -0.214936
     7  H    0.225582
     8  H    0.223668
     9  H    0.275686
    10  H    0.276021
    11  H    0.225659
    12  N    0.488125
    13  O   -0.460286
    14  O   -0.460278
    15  C   -0.298003
    16  C   -0.299657
    17  C   -0.475998
    18  H    0.153495
    19  H    0.145878
    20  H    0.153550
    21  H    0.149774
    22  H    0.155164
    23  H    0.157041
    24  H    0.161437
    25  C   -0.298877
    26  C   -0.302117
    27  C   -0.474386
    28  H    0.153467
    29  H    0.142087
    30  H    0.158312
    31  H    0.141940
    32  H    0.151327
    33  H    0.155703
    34  H    0.165311
 Sum of Mulliken charges =  -0.00000

 Dipole moment (field-independent basis, Debye):
    X=              2.5978    Y=              4.4640    Z=             -0.5467  Tot=              5.1937
 Quadrupole moment (field-independent basis, Debye-Ang):
   XX=           -106.3535   YY=            -95.1221   ZZ=            -94.5308
   XY=            -16.1023   XZ=              0.9237   YZ=             -1.3939

 Normal termination of Gaussian 16 at Thu May  6 19:15:06 2021.
