 Gaussian 16, Revision A.03,
 Gaussian 16:  EM64L-G16RevA.03 25-Dec-2016

 -------------
 #p 6-31g* mp2
 -------------

 ------------------------------------------------------
 Input file generated by CHIRIPA (05-May-2021 14:57:24)
 ------------------------------------------------------
 Symbolic Z-matrix:
 Charge =  0 Multiplicity = 1

                         Standard orientation:
 ---------------------------------------------------------------------
 Center     Atomic      Atomic             Coordinates (Angstroms)
 Number     Number       Type             X           Y           Z
 ---------------------------------------------------------------------
      1          6           0       -6.110186   -0.739476   -0.503698
      2          6           0       -4.992498   -1.388400   -1.038668
      3          6           0       -3.701107   -0.985368   -0.685933
      4          6           0       -3.563477    0.074996    0.208481
      5          6           0       -4.657324    0.741517    0.758516
      6          6           0       -5.939332    0.321541    0.391609
      7          1           0       -7.109725   -1.059142   -0.783216
      8          1           0       -5.122170   -2.212700   -1.734196
      9          1           0       -2.818419   -1.470112   -1.085061
     10          1           0       -4.496294    1.560056    1.449517
     11          1           0       -6.805518    0.827352    0.808649
     12          7           0       -2.201305    0.510637    0.589408
     13          8           0       -2.106872    1.447490    1.379361
     14          8           0       -1.253861   -0.093010    0.090813
     15          6           0        2.978804    2.271366   -0.878857
     16          6           0        2.151240    1.153248   -1.025390
     17          6           0        2.589167   -0.111880   -0.622626
     18          6           0        3.866207   -0.223093   -0.074821
     19          6           0        4.714137    0.871904    0.084188
     20          6           0        4.255360    2.127379   -0.325511
     21          1           0        2.630513    3.250399   -1.194428
     22          1           0        1.159370    1.262088   -1.454801
     23          1           0        1.969151   -0.994264   -0.724583
     24          1           0        5.697840    0.731984    0.515664
     25          1           0        4.900222    2.993967   -0.210508
     26          7           0        4.340858   -1.557318    0.355238
     27          8           0        5.470189   -1.628767    0.834970
     28          8           0        3.574570   -2.506371    0.204443
 ---------------------------------------------------------------------

 SCF Done:  E(RHF) =  -868.339696917     A.U. after   16 cycles
 E2 =    -0.2598624157D+01 EUMP2 =    -0.87093832107479D+03

 The electronic state is 1-A.
 Alpha  occ. eigenvalues --  -20.61530 -20.61488 -20.59824 -20.59814 -15.86547
 Alpha  occ. eigenvalues --  -15.84864 -11.31689 -11.30008 -11.28232 -11.28224
 Alpha  occ. eigenvalues --  -11.27926 -11.27193 -11.27182 -11.26617 -11.26437
 Alpha  occ. eigenvalues --  -11.26282 -11.25632 -11.25388  -1.60573  -1.58899
 Alpha  occ. eigenvalues --   -1.40135  -1.38458  -1.19839  -1.18159  -1.09274
 Alpha  occ. eigenvalues --   -1.07612  -1.05208  -1.03505  -0.96146  -0.94480
 Alpha  occ. eigenvalues --   -0.86616  -0.84936  -0.82990  -0.81302  -0.78061
 Alpha  occ. eigenvalues --   -0.76370  -0.72776  -0.71881  -0.71095  -0.70943
 Alpha  occ. eigenvalues --   -0.70215  -0.69297  -0.65496  -0.65205  -0.63811
 Alpha  occ. eigenvalues --   -0.63513  -0.62557  -0.60850  -0.55713  -0.54077
 Alpha  occ. eigenvalues --   -0.53550  -0.53295  -0.51876  -0.51601  -0.49528
 Alpha  occ. eigenvalues --   -0.49494  -0.47855  -0.47830  -0.45583  -0.43912
 Alpha  occ. eigenvalues --   -0.37805  -0.36801  -0.36163  -0.35074
 Alpha virt. eigenvalues --    0.04441   0.06131   0.10856   0.12553   0.15972
 Alpha virt. eigenvalues --    0.17670   0.21011   0.22622   0.26951   0.27764
 Alpha virt. eigenvalues --    0.28644   0.29399   0.30650   0.32080   0.32218

 Mulliken charges:
               1
     1  C   -0.169979
     2  C   -0.218437
     3  C   -0.170665
     4  C    0.157587
     5  C   -0.170611
     6  C   -0.218527
     7  H    0.227537
     8  H    0.225537
     9  H    0.275069
    10  H    0.276076
    11  H    0.224996
    12  N    0.489760
    13  O   -0.456893
    14  O   -0.469050
    15  C   -0.171585
    16  C   -0.211637
    17  C   -0.166799
    18  C    0.156725
    19  C   -0.172982
    20  C   -0.218914
    21  H    0.221992
    22  H    0.230251
    23  H    0.278587
    24  H    0.271382
    25  H    0.218731
    26  N    0.488339
    27  O   -0.464563
    28  O   -0.461925
 Sum of Mulliken charges =  -0.00000

 Dipole moment (field-independent basis, Debye):
    X=             -7.0346    Y=              3.1521    Z=             -2.8569  Tot=              8.2209
 Quadrupole moment (field-independent basis, Debye-Ang):
   XX=            -80.3355   YY=           -105.0274   ZZ=           -104.2975
   XY=             24.2525   XZ=             -1.8058   YZ=              2.8415

 Normal termination of Gaussian 16 at Thu May  6 08:13:42 2021.
