 Gaussian 16, Revision A.03,
 Gaussian 16:  EM64L-G16RevA.03 25-Dec-2016

 -------------
 #p 6-31g* mp2
 -------------

 ------------------------------------------------------
 Input file generated by CHIRIPA (05-May-2021 14:55:19)
 ------------------------------------------------------
 Symbolic Z-matrix:
 Charge =  0 Multiplicity = 1

                         Standard orientation:
 ---------------------------------------------------------------------
 Center     Atomic      Atomic             Coordinates (Angstroms)
 Number     Number       Type             X           Y           Z
 ---------------------------------------------------------------------
      1          6           0        1.724232    0.427891    2.519800
      2          6           0        1.504007   -0.901067    2.143114
      3          6           0        1.549610   -1.274253    0.796562
      4          6           0        1.819284   -0.288227   -0.151235
      5          6           0        2.042995    1.044081    0.192563
      6          6           0        1.992551    1.394519    1.545041
      7          1           0        1.686926    0.708954    3.568136
      8          1           0        1.295410   -1.653886    2.897962
      9          1           0        1.382908   -2.295821    0.477147
     10          1           0        2.248652    1.772163   -0.582692
     11          1           0        2.163978    2.427367    1.834667
     12          7           0        1.870125   -0.671261   -1.579906
     13          8           0        2.109634    0.216311   -2.395680
     14          8           0        1.669501   -1.851802   -1.856872
     15          6           0       -2.209517   -0.446334   -0.287366
     16          6           0       -3.048192   -1.407014    0.556259
     17          6           0       -2.820260   -2.872689    0.185260
     18          1           0       -2.446563   -0.598395   -1.349266
     19          1           0       -1.146200   -0.695236   -0.165712
     20          1           0       -4.109530   -1.155494    0.434132
     21          1           0       -2.809261   -1.252517    1.616287
     22          1           0       -1.769411   -3.146401    0.324547
     23          1           0       -3.077068   -3.048827   -0.864324
     24          1           0       -3.429601   -3.542002    0.800551
     25          6           0       -2.426399    1.022587    0.071744
     26          6           0       -1.587724    1.983267   -0.771881
     27          6           0       -1.815657    3.448941   -0.400882
     28          1           0       -3.489716    1.271489   -0.049908
     29          1           0       -2.189352    1.174647    1.133645
     30          1           0       -1.826654    1.828770   -1.831908
     31          1           0       -0.526386    1.731746   -0.649754
     32          1           0       -1.558847    3.625079    0.648702
     33          1           0       -2.866504    3.722654   -0.540169
     34          1           0       -1.206315    4.118255   -1.016172
 ---------------------------------------------------------------------

 SCF Done:  E(RHF) =  -669.534171222     A.U. after   15 cycles
 E2 =    -0.2096114443D+01 EUMP2 =    -0.67163028566420D+03

 The electronic state is 1-A.
 Alpha  occ. eigenvalues --  -20.60862 -20.60857 -15.85904 -11.31307 -11.27904
 Alpha  occ. eigenvalues --  -11.27893 -11.27661 -11.26937 -11.26927 -11.21584
 Alpha  occ. eigenvalues --  -11.21424 -11.21300 -11.21166 -11.21135 -11.21051
 Alpha  occ. eigenvalues --   -1.59927  -1.39480  -1.19535  -1.08900  -1.08342
 Alpha  occ. eigenvalues --   -1.04945  -1.03484  -0.95946  -0.95726  -0.86965
 Alpha  occ. eigenvalues --   -0.86325  -0.82551  -0.79545  -0.78175  -0.77584
 Alpha  occ. eigenvalues --   -0.72127  -0.71258  -0.70623  -0.65170  -0.65033
 Alpha  occ. eigenvalues --   -0.64897  -0.62289  -0.60905  -0.59310  -0.57553
 Alpha  occ. eigenvalues --   -0.55422  -0.55264  -0.53327  -0.53010  -0.52636
 Alpha  occ. eigenvalues --   -0.52369  -0.49912  -0.48891  -0.48881  -0.47884
 Alpha  occ. eigenvalues --   -0.46626  -0.45664  -0.45589  -0.44843  -0.43720
 Alpha  occ. eigenvalues --   -0.37418  -0.36452
 Alpha virt. eigenvalues --    0.04900   0.10960   0.16393   0.20885   0.23028
 Alpha virt. eigenvalues --    0.23841   0.26209   0.27034   0.27288   0.27621
 Alpha virt. eigenvalues --    0.28900   0.30663   0.30935   0.31773   0.31951

 Mulliken charges:
               1
     1  C   -0.171440
     2  C   -0.216194
     3  C   -0.176242
     4  C    0.165130
     5  C   -0.176779
     6  C   -0.216163
     7  H    0.226524
     8  H    0.224560
     9  H    0.276812
    10  H    0.277068
    11  H    0.224858
    12  N    0.490036
    13  O   -0.460094
    14  O   -0.459854
    15  C   -0.303969
    16  C   -0.299295
    17  C   -0.474186
    18  H    0.154674
    19  H    0.152557
    20  H    0.152238
    21  H    0.146726
    22  H    0.150551
    23  H    0.160445
    24  H    0.158336
    25  C   -0.296458
    26  C   -0.305401
    27  C   -0.475862
    28  H    0.148890
    29  H    0.145300
    30  H    0.157268
    31  H    0.154509
    32  H    0.149413
    33  H    0.156399
    34  H    0.159643
 Sum of Mulliken charges =  -0.00000

 Dipole moment (field-independent basis, Debye):
    X=             -0.0626    Y=              1.3066    Z=              4.9531  Tot=              5.1230
 Quadrupole moment (field-independent basis, Debye-Ang):
   XX=            -95.4301   YY=            -92.5850   ZZ=            -95.9739
   XY=              3.7955   XZ=              9.8736   YZ=             -3.1408

 Normal termination of Gaussian 16 at Thu May  6 17:22:50 2021.
