 Gaussian 16, Revision A.03,
 Gaussian 16:  EM64L-G16RevA.03 25-Dec-2016

 -------------
 #p 6-31g* mp2
 -------------

 ------------------------------------------------------
 Input file generated by CHIRIPA (05-May-2021 14:55:19)
 ------------------------------------------------------
 Symbolic Z-matrix:
 Charge =  0 Multiplicity = 1

                         Standard orientation:
 ---------------------------------------------------------------------
 Center     Atomic      Atomic             Coordinates (Angstroms)
 Number     Number       Type             X           Y           Z
 ---------------------------------------------------------------------
      1          6           0       -1.149712    0.741620    1.259651
      2          6           0       -1.195208   -0.575674    0.791476
      3          6           0       -2.365804   -1.087350    0.223638
      4          6           0       -3.477278   -0.250202    0.139377
      5          6           0       -3.463243    1.066547    0.596830
      6          6           0       -2.281878    1.557089    1.161007
      7          1           0       -0.236182    1.130893    1.699339
      8          1           0       -0.317481   -1.211260    0.866788
      9          1           0       -2.428638   -2.103364   -0.146748
     10          1           0       -4.354315    1.676083    0.508094
     11          1           0       -2.249440    2.580514    1.523765
     12          7           0       -4.722235   -0.780703   -0.459830
     13          8           0       -5.687843   -0.022872   -0.522530
     14          8           0       -4.708852   -1.944296   -0.855443
     15          6           0        3.474191    0.312982   -0.554932
     16          6           0        3.063554    1.784476   -0.618714
     17          6           0        1.632379    1.977594   -1.120947
     18          1           0        3.371094   -0.133490   -1.553420
     19          1           0        2.778097   -0.226584    0.102119
     20          1           0        3.761040    2.321382   -1.274352
     21          1           0        3.167824    2.227546    0.380002
     22          1           0        0.921200    1.467255   -0.463393
     23          1           0        1.517786    1.561624   -2.127147
     24          1           0        1.359647    3.036864   -1.158661
     25          6           0        4.902369    0.103706   -0.054689
     26          6           0        5.313005   -1.367787    0.009093
     27          6           0        6.744180   -1.560905    0.511326
     28          1           0        5.598463    0.643272   -0.711739
     29          1           0        5.005466    0.550179    0.943799
     30          1           0        5.208736   -1.810857   -0.989623
     31          1           0        4.615521   -1.904693    0.664731
     32          1           0        6.858774   -1.144936    1.517526
     33          1           0        7.455360   -1.050566   -0.146228
     34          1           0        7.016913   -2.620176    0.549040
 ---------------------------------------------------------------------

 SCF Done:  E(RHF) =  -669.534779266     A.U. after   15 cycles
 E2 =    -0.2092246448D+01 EUMP2 =    -0.67162702571386D+03

 The electronic state is 1-A.
 Alpha  occ. eigenvalues --  -20.60775 -20.60770 -15.85829 -11.31210 -11.27784
 Alpha  occ. eigenvalues --  -11.27780 -11.27529 -11.26809 -11.26793 -11.22346
 Alpha  occ. eigenvalues --  -11.22194 -11.22183 -11.22023 -11.21703 -11.21556
 Alpha  occ. eigenvalues --   -1.59850  -1.39403  -1.19394  -1.09130  -1.08794
 Alpha  occ. eigenvalues --   -1.04794  -1.04180  -0.96628  -0.95621  -0.87636
 Alpha  occ. eigenvalues --   -0.86195  -0.82450  -0.80242  -0.78943  -0.77484
 Alpha  occ. eigenvalues --   -0.72048  -0.71173  -0.70540  -0.65774  -0.65047
 Alpha  occ. eigenvalues --   -0.64794  -0.62139  -0.61592  -0.59991  -0.58239
 Alpha  occ. eigenvalues --   -0.56040  -0.55237  -0.53344  -0.53254  -0.52896
 Alpha  occ. eigenvalues --   -0.52854  -0.50540  -0.48807  -0.48801  -0.48546
 Alpha  occ. eigenvalues --   -0.47290  -0.46477  -0.46415  -0.44805  -0.44445
 Alpha  occ. eigenvalues --   -0.37303  -0.36392
 Alpha virt. eigenvalues --    0.05012   0.11203   0.16425   0.19575   0.22709
 Alpha virt. eigenvalues --    0.23903   0.25201   0.26374   0.27260   0.27990
 Alpha virt. eigenvalues --    0.29032   0.30270   0.31041   0.31508   0.31734

 Mulliken charges:
               1
     1  C   -0.170345
     2  C   -0.218165
     3  C   -0.170664
     4  C    0.158787
     5  C   -0.170879
     6  C   -0.219108
     7  H    0.226747
     8  H    0.224711
     9  H    0.275923
    10  H    0.275837
    11  H    0.223925
    12  N    0.488059
    13  O   -0.460317
    14  O   -0.460319
    15  C   -0.296420
    16  C   -0.300766
    17  C   -0.481470
    18  H    0.153172
    19  H    0.139474
    20  H    0.155642
    21  H    0.148157
    22  H    0.154202
    23  H    0.159558
    24  H    0.160395
    25  C   -0.298532
    26  C   -0.299743
    27  C   -0.476032
    28  H    0.152238
    29  H    0.149081
    30  H    0.153559
    31  H    0.149518
    32  H    0.155306
    33  H    0.156618
    34  H    0.161852
 Sum of Mulliken charges =  -0.00000

 Dipole moment (field-independent basis, Debye):
    X=              4.4494    Y=              1.8715    Z=              2.0533  Tot=              5.2456
 Quadrupole moment (field-independent basis, Debye-Ang):
   XX=           -125.0999   YY=            -92.0441   ZZ=            -93.9487
   XY=             -9.7049   XZ=             -8.0827   YZ=              0.5697

 Normal termination of Gaussian 16 at Thu May  6 14:03:19 2021.
