 Gaussian 16, Revision A.03,
 Gaussian 16:  EM64L-G16RevA.03 25-Dec-2016

 -------------
 #p 6-31g* mp2
 -------------

 ------------------------------------------------------
 Input file generated by CHIRIPA (05-May-2021 14:57:22)
 ------------------------------------------------------
 Symbolic Z-matrix:
 Charge =  0 Multiplicity = 1

                         Standard orientation:
 ---------------------------------------------------------------------
 Center     Atomic      Atomic             Coordinates (Angstroms)
 Number     Number       Type             X           Y           Z
 ---------------------------------------------------------------------
      1          6           0        3.231044    2.586170    0.014707
      2          6           0        2.249373    1.613561    0.231211
      3          6           0        2.573411    0.254468    0.182089
      4          6           0        3.894946   -0.098066   -0.087271
      5          6           0        4.895447    0.847379   -0.307319
      6          6           0        4.548626    2.200655   -0.253394
      7          1           0        2.970474    3.639687    0.054731
      8          1           0        1.225308    1.910039    0.439629
      9          1           0        1.833232   -0.519307    0.345870
     10          1           0        5.907713    0.521074   -0.512894
     11          1           0        5.313080    2.953814   -0.421935
     12          7           0        4.250050   -1.533798   -0.141816
     13          8           0        5.421562   -1.818409   -0.380969
     14          8           0        3.350146   -2.347327    0.055616
     15          6           0       -6.174407    0.536623   -0.587953
     16          6           0       -5.800455   -0.810949   -0.614969
     17          6           0       -4.507733   -1.196555   -0.247917
     18          6           0       -3.610392   -0.203834    0.142691
     19          6           0       -3.952897    1.146939    0.179990
     20          6           0       -5.251063    1.509552   -0.191259
     21          1           0       -7.180739    0.827240   -0.874719
     22          1           0       -6.515446   -1.568699   -0.922619
     23          1           0       -4.191697   -2.232605   -0.259669
     24          1           0       -3.218124    1.879528    0.491182
     25          1           0       -5.538697    2.556848   -0.169318
     26          7           0       -2.238964   -0.599887    0.533494
     27          8           0       -1.467009    0.293929    0.873811
     28          8           0       -1.961962   -1.796629    0.492088
 ---------------------------------------------------------------------

 SCF Done:  E(RHF) =  -868.339950885     A.U. after   16 cycles
 E2 =    -0.2598738846D+01 EUMP2 =    -0.87093868973128D+03

 The electronic state is 1-A.
 Alpha  occ. eigenvalues --  -20.61560 -20.61486 -20.59755 -20.59720 -15.86543
 Alpha  occ. eigenvalues --  -15.84785 -11.31698 -11.30052 -11.28276 -11.28205
 Alpha  occ. eigenvalues --  -11.27939 -11.27224 -11.27180 -11.26711 -11.26427
 Alpha  occ. eigenvalues --  -11.26420 -11.25750 -11.25466  -1.60572  -1.58821
 Alpha  occ. eigenvalues --   -1.40134  -1.38372  -1.19848  -1.18232  -1.09281
 Alpha  occ. eigenvalues --   -1.07672  -1.05221  -1.03584  -0.96152  -0.94508
 Alpha  occ. eigenvalues --   -0.86628  -0.85010  -0.82997  -0.81311  -0.78068
 Alpha  occ. eigenvalues --   -0.76352  -0.72773  -0.71868  -0.71006  -0.70955
 Alpha  occ. eigenvalues --   -0.70146  -0.69365  -0.65507  -0.65222  -0.63875
 Alpha  occ. eigenvalues --   -0.63576  -0.62573  -0.60890  -0.55726  -0.54173
 Alpha  occ. eigenvalues --   -0.53557  -0.53311  -0.51981  -0.51648  -0.49552
 Alpha  occ. eigenvalues --   -0.49490  -0.47775  -0.47749  -0.45580  -0.43798
 Alpha  occ. eigenvalues --   -0.37811  -0.36813  -0.36278  -0.35197
 Alpha virt. eigenvalues --    0.04448   0.06128   0.10845   0.12433   0.15972
 Alpha virt. eigenvalues --    0.17620   0.20956   0.22588   0.26899   0.27608
 Alpha virt. eigenvalues --    0.28704   0.29432   0.30629   0.31776   0.32402

 Mulliken charges:
               1
     1  C   -0.172275
     2  C   -0.224585
     3  C   -0.175033
     4  C    0.157416
     5  C   -0.172849
     6  C   -0.219354
     7  H    0.220189
     8  H    0.236478
     9  H    0.291470
    10  H    0.271759
    11  H    0.218409
    12  N    0.487479
    13  O   -0.465875
    14  O   -0.456566
    15  C   -0.169963
    16  C   -0.218463
    17  C   -0.169927
    18  C    0.158154
    19  C   -0.170379
    20  C   -0.218360
    21  H    0.227402
    22  H    0.225836
    23  H    0.278330
    24  H    0.271803
    25  H    0.224013
    26  N    0.491900
    27  O   -0.475544
    28  O   -0.451463
 Sum of Mulliken charges =  -0.00000

 Dipole moment (field-independent basis, Debye):
    X=             -6.7060    Y=              6.2148    Z=             -1.1601  Tot=              9.2163
 Quadrupole moment (field-independent basis, Debye-Ang):
   XX=            -76.3040   YY=           -102.3082   ZZ=           -106.6497
   XY=             18.2475   XZ=              4.7821   YZ=              0.7000

 Normal termination of Gaussian 16 at Thu May  6 03:22:10 2021.
