 Gaussian 16, Revision A.03,
 Gaussian 16:  EM64L-G16RevA.03 25-Dec-2016

 -------------
 #p 6-31g* mp2
 -------------

 ------------------------------------------------------
 Input file generated by CHIRIPA (05-May-2021 14:51:08)
 ------------------------------------------------------
 Symbolic Z-matrix:
 Charge =  0 Multiplicity = 1

                         Standard orientation:
 ---------------------------------------------------------------------
 Center     Atomic      Atomic             Coordinates (Angstroms)
 Number     Number       Type             X           Y           Z
 ---------------------------------------------------------------------
      1          6           0        3.284506   -0.459379    0.071971
      2          6           0        2.299871    0.390676    0.875641
      3          6           0        0.854410   -0.087588    0.735283
      4          1           0        2.992899   -0.444000   -0.987120
      5          1           0        3.209594   -1.504892    0.401646
      6          1           0        2.377605    1.434508    0.545509
      7          1           0        2.593967    0.373426    1.932914
      8          1           0        0.755015   -1.120870    1.083205
      9          1           0        0.537423   -0.053760   -0.312083
     10          1           0        0.167465    0.534127    1.317895
     11          6           0        4.733604    0.006336    0.202165
     12          6           0        5.718239   -0.843719   -0.601505
     13          6           0        7.163700   -0.365455   -0.461147
     14          1           0        4.808516    1.051849   -0.127511
     15          1           0        5.025211   -0.009043    1.261256
     16          1           0        5.424143   -0.826470   -1.658778
     17          1           0        5.640505   -1.887551   -0.271373
     18          1           0        7.480687   -0.399283    0.586219
     19          1           0        7.263095    0.667827   -0.809069
     20          1           0        7.850645   -0.987170   -1.043760
     21          6           0       -4.263253   -0.387578    0.239358
     22          6           0       -5.130849   -1.308767   -0.618941
     23          6           0       -5.631830   -2.532865    0.148128
     24          1           0       -3.406176   -0.956279    0.625289
     25          1           0       -4.841682   -0.061399    1.114813
     26          1           0       -4.551417   -1.632006   -1.493236
     27          1           0       -5.985857   -0.737757   -1.003031
     28          1           0       -6.232428   -2.227505    1.011053
     29          1           0       -4.789838   -3.126835    0.518062
     30          1           0       -6.249949   -3.177674   -0.484334
     31          6           0       -3.754857    0.840622   -0.513494
     32          6           0       -2.887261    1.761810    0.344805
     33          6           0       -2.386281    2.985908   -0.422264
     34          1           0       -3.176428    0.514441   -1.388948
     35          1           0       -4.611933    1.409322   -0.899425
     36          1           0       -2.032253    1.190800    0.728895
     37          1           0       -3.466693    2.085049    1.219100
     38          1           0       -3.228272    3.579878   -0.792198
     39          1           0       -1.785682    2.680548   -1.285187
     40          1           0       -1.768160    3.630717    0.210198
 ---------------------------------------------------------------------

 SCF Done:  E(RHF) =  -470.733208962     A.U. after   11 cycles
 E2 =    -0.1582563884D+01 EUMP2 =    -0.47231577284637D+03

 The electronic state is 1-A.
 Alpha  occ. eigenvalues --  -11.21651 -11.21624 -11.21557 -11.21487 -11.21439
 Alpha  occ. eigenvalues --  -11.21379 -11.21341 -11.21282 -11.21144 -11.21088
 Alpha  occ. eigenvalues --  -11.21036 -11.21025  -1.08467  -1.08366  -1.03577
 Alpha  occ. eigenvalues --   -1.03467  -0.96029  -0.95922  -0.87053  -0.86937
 Alpha  occ. eigenvalues --   -0.79667  -0.79509  -0.78280  -0.78178  -0.65104
 Alpha  occ. eigenvalues --   -0.64998  -0.61013  -0.60861  -0.59447  -0.59237
 Alpha  occ. eigenvalues --   -0.57661  -0.57507  -0.55329  -0.55193  -0.52767
 Alpha  occ. eigenvalues --   -0.52610  -0.52450  -0.52345  -0.49972  -0.49855
 Alpha  occ. eigenvalues --   -0.47982  -0.47829  -0.46682  -0.46540  -0.45825
 Alpha  occ. eigenvalues --   -0.45749  -0.45716  -0.45648  -0.43782  -0.43702
 Alpha virt. eigenvalues --    0.21617   0.23020   0.23722   0.25022   0.26100
 Alpha virt. eigenvalues --    0.26575   0.27031   0.27530   0.28002   0.28882
 Alpha virt. eigenvalues --    0.30242   0.31028   0.31688   0.31799   0.32268

 Mulliken charges:
               1
     1  C   -0.298717
     2  C   -0.299313
     3  C   -0.480535
     4  H    0.149642
     5  H    0.149543
     6  H    0.152541
     7  H    0.152159
     8  H    0.155257
     9  H    0.155131
    10  H    0.165045
    11  C   -0.298328
    12  C   -0.299657
    13  C   -0.475727
    14  H    0.149677
    15  H    0.149736
    16  H    0.151964
    17  H    0.151942
    18  H    0.155220
    19  H    0.155251
    20  H    0.160322
    21  C   -0.298635
    22  C   -0.299586
    23  C   -0.475679
    24  H    0.150430
    25  H    0.149224
    26  H    0.151858
    27  H    0.151761
    28  H    0.155062
    29  H    0.155200
    30  H    0.160062
    31  C   -0.297414
    32  C   -0.308101
    33  C   -0.475124
    34  H    0.149143
    35  H    0.149199
    36  H    0.161070
    37  H    0.151075
    38  H    0.154979
    39  H    0.154752
    40  H    0.159573
 Sum of Mulliken charges =  -0.00000

 Dipole moment (field-independent basis, Debye):
    X=              0.0471    Y=             -0.0125    Z=              0.0146  Tot=              0.0508
 Quadrupole moment (field-independent basis, Debye-Ang):
   XX=            -85.5853   YY=            -85.1388   ZZ=            -84.2219
   XY=             -1.1182   XZ=              0.0416   YZ=              0.0364

 Normal termination of Gaussian 16 at Wed May  5 21:18:18 2021.
