 Gaussian 16, Revision A.03,
 Gaussian 16:  EM64L-G16RevA.03 25-Dec-2016

 -------------
 #p 6-31g* mp2
 -------------

 ------------------------------------------------------
 Input file generated by CHIRIPA (05-May-2021 14:57:24)
 ------------------------------------------------------
 Symbolic Z-matrix:
 Charge =  0 Multiplicity = 1

                         Standard orientation:
 ---------------------------------------------------------------------
 Center     Atomic      Atomic             Coordinates (Angstroms)
 Number     Number       Type             X           Y           Z
 ---------------------------------------------------------------------
      1          6           0        1.262651    1.263119    2.244689
      2          6           0        1.749447    1.929735    1.115453
      3          6           0        2.401191    1.223530    0.100046
      4          6           0        2.549456   -0.154752    0.247174
      5          6           0        2.075479   -0.847413    1.360213
      6          6           0        1.426931   -0.120888    2.363256
      7          1           0        0.757602    1.819609    3.028679
      8          1           0        1.623290    3.004514    1.020691
      9          1           0        2.787784    1.714459   -0.784800
     10          1           0        2.216258   -1.919429    1.426418
     11          1           0        1.049900   -0.641227    3.239121
     12          7           0        3.237737   -0.913136   -0.821247
     13          8           0        3.355679   -2.126878   -0.667768
     14          8           0        3.646236   -0.279454   -1.791924
     15          6           0       -1.161705    2.003136   -1.344043
     16          6           0       -0.662351    0.707375   -1.511875
     17          6           0       -1.359979   -0.393458   -1.005880
     18          6           0       -2.559216   -0.161017   -0.334246
     19          6           0       -3.082678    1.117913   -0.150906
     20          6           0       -2.368148    2.203916   -0.665290
     21          1           0       -0.613206    2.852530   -1.740371
     22          1           0        0.274331    0.548450   -2.038576
     23          1           0       -0.996288   -1.407243   -1.121583
     24          1           0       -4.019110    1.244762    0.378643
     25          1           0       -2.758352    3.209106   -0.533457
     26          7           0       -3.306709   -1.318570    0.205870
     27          8           0       -4.360958   -1.087133    0.793776
     28          8           0       -2.824192   -2.435379    0.031080
 ---------------------------------------------------------------------

 SCF Done:  E(RHF) =  -868.336842340     A.U. after   16 cycles
 E2 =    -0.2603846090D+01 EUMP2 =    -0.87094068842987D+03

 The electronic state is 1-A.
 Alpha  occ. eigenvalues --  -20.61478 -20.61451 -20.60978 -20.60965 -15.86498
 Alpha  occ. eigenvalues --  -15.86024 -11.31746 -11.31374 -11.28366 -11.28255
 Alpha  occ. eigenvalues --  -11.27990 -11.27955 -11.27862 -11.27700 -11.27342
 Alpha  occ. eigenvalues --  -11.27224 -11.27012 -11.26880  -1.60545  -1.60053
 Alpha  occ. eigenvalues --   -1.40097  -1.39605  -1.19932  -1.19534  -1.09327
 Alpha  occ. eigenvalues --   -1.08958  -1.05316  -1.04932  -0.96181  -0.95792
 Alpha  occ. eigenvalues --   -0.86726  -0.86337  -0.83015  -0.82616  -0.78089
 Alpha  occ. eigenvalues --   -0.77660  -0.72705  -0.72242  -0.71893  -0.71380
 Alpha  occ. eigenvalues --   -0.71021  -0.70680  -0.65571  -0.65313  -0.65195
 Alpha  occ. eigenvalues --   -0.64949  -0.62669  -0.62280  -0.55784  -0.55488
 Alpha  occ. eigenvalues --   -0.54189  -0.53398  -0.53047  -0.52711  -0.49487
 Alpha  occ. eigenvalues --   -0.49453  -0.49002  -0.48996  -0.45510  -0.45014
 Alpha  occ. eigenvalues --   -0.38010  -0.37919  -0.36671  -0.36160
 Alpha virt. eigenvalues --    0.04389   0.04855   0.10381   0.11422   0.15755
 Alpha virt. eigenvalues --    0.16547   0.20297   0.21592   0.26220   0.26738
 Alpha virt. eigenvalues --    0.27871   0.28723   0.29918   0.31232   0.31680

 Mulliken charges:
               1
     1  C   -0.168579
     2  C   -0.211696
     3  C   -0.178360
     4  C    0.156746
     5  C   -0.171454
     6  C   -0.217027
     7  H    0.227789
     8  H    0.220075
     9  H    0.270742
    10  H    0.279558
    11  H    0.229081
    12  N    0.485975
    13  O   -0.455171
    14  O   -0.464347
    15  C   -0.172304
    16  C   -0.214294
    17  C   -0.172234
    18  C    0.157942
    19  C   -0.173151
    20  C   -0.220555
    21  H    0.221490
    22  H    0.228917
    23  H    0.278433
    24  H    0.274467
    25  H    0.221280
    26  N    0.487392
    27  O   -0.461644
    28  O   -0.459071
 Sum of Mulliken charges =  -0.00000

 Dipole moment (field-independent basis, Debye):
    X=              0.2794    Y=              6.5900    Z=              2.0509  Tot=              6.9074
 Quadrupole moment (field-independent basis, Debye-Ang):
   XX=           -129.8475   YY=           -102.1187   ZZ=           -100.5337
   XY=             -5.6918   XZ=             11.5436   YZ=             -2.1643

 Normal termination of Gaussian 16 at Fri May  7 12:35:36 2021.
