 Gaussian 16, Revision A.03,
 Gaussian 16:  EM64L-G16RevA.03 25-Dec-2016

 -------------
 #p 6-31g* mp2
 -------------

 ------------------------------------------------------
 Input file generated by CHIRIPA (05-May-2021 14:55:19)
 ------------------------------------------------------
 Symbolic Z-matrix:
 Charge =  0 Multiplicity = 1

                         Standard orientation:
 ---------------------------------------------------------------------
 Center     Atomic      Atomic             Coordinates (Angstroms)
 Number     Number       Type             X           Y           Z
 ---------------------------------------------------------------------
      1          6           0        2.906379    2.419199   -0.060675
      2          6           0        2.049434    1.419568    0.411452
      3          6           0        2.450013    0.080144    0.406108
      4          6           0        3.720072   -0.225379   -0.080610
      5          6           0        4.596665    0.747899   -0.557689
      6          6           0        4.175023    2.080771   -0.542888
      7          1           0        2.587019    3.457151   -0.052850
      8          1           0        1.063626    1.679467    0.786526
      9          1           0        1.806710   -0.713747    0.765712
     10          1           0        5.573444    0.457963   -0.925463
     11          1           0        4.842647    2.855000   -0.910166
     12          7           0        4.155297   -1.639899   -0.091273
     13          8           0        5.279221   -1.883016   -0.525238
     14          8           0        3.364260   -2.478699    0.334535
     15          6           0       -4.029312    0.405824    0.084656
     16          6           0       -2.903001   -0.182211    0.935316
     17          6           0       -1.628097    0.660751    0.892584
     18          1           0       -3.684778    0.499726   -0.954297
     19          1           0       -4.249957    1.423986    0.434026
     20          1           0       -2.685492   -1.199472    0.585340
     21          1           0       -3.250324   -0.274902    1.972328
     22          1           0       -1.822972    1.672937    1.261506
     23          1           0       -1.254931    0.743113   -0.133362
     24          1           0       -0.836024    0.222169    1.507504
     25          6           0       -5.310443   -0.425665    0.117207
     26          6           0       -6.436754    0.162369   -0.733453
     27          6           0       -7.711659   -0.680592   -0.690720
     28          1           0       -5.089799   -1.443826   -0.232163
     29          1           0       -5.654977   -0.519568    1.156160
     30          1           0       -6.089432    0.255061   -1.770465
     31          1           0       -6.654263    1.179631   -0.383477
     32          1           0       -8.084824   -0.762955    0.335225
     33          1           0       -7.516783   -1.692778   -1.059643
     34          1           0       -8.503732   -0.242011   -1.305641
 ---------------------------------------------------------------------

 SCF Done:  E(RHF) =  -669.535374371     A.U. after   15 cycles
 E2 =    -0.2091340760D+01 EUMP2 =    -0.67162671513100D+03

 The electronic state is 1-A.
 Alpha  occ. eigenvalues --  -20.60699 -20.60693 -15.85749 -11.31090 -11.27655
 Alpha  occ. eigenvalues --  -11.27628 -11.27373 -11.26673 -11.26561 -11.22278
 Alpha  occ. eigenvalues --  -11.22162 -11.21907 -11.21897 -11.21734 -11.21295
 Alpha  occ. eigenvalues --   -1.59774  -1.39328  -1.19251  -1.08917  -1.08651
 Alpha  occ. eigenvalues --   -1.04652  -1.04072  -0.96569  -0.95494  -0.87617
 Alpha  occ. eigenvalues --   -0.86039  -0.82328  -0.80160  -0.78687  -0.77368
 Alpha  occ. eigenvalues --   -0.71969  -0.71097  -0.70367  -0.65537  -0.64902
 Alpha  occ. eigenvalues --   -0.64652  -0.62063  -0.61450  -0.59922  -0.58142
 Alpha  occ. eigenvalues --   -0.55843  -0.55161  -0.53397  -0.53042  -0.52960
 Alpha  occ. eigenvalues --   -0.52562  -0.50486  -0.48727  -0.48724  -0.48454
 Alpha  occ. eigenvalues --   -0.47143  -0.46241  -0.46132  -0.44740  -0.44313
 Alpha  occ. eigenvalues --   -0.37236  -0.36243
 Alpha virt. eigenvalues --    0.05142   0.11389   0.16611   0.20577   0.22465
 Alpha virt. eigenvalues --    0.23711   0.25817   0.26198   0.26815   0.27967
 Alpha virt. eigenvalues --    0.28812   0.30007   0.30827   0.31277   0.32082

 Mulliken charges:
               1
     1  C   -0.172408
     2  C   -0.225438
     3  C   -0.175535
     4  C    0.159004
     5  C   -0.171428
     6  C   -0.218469
     7  H    0.225450
     8  H    0.238298
     9  H    0.275507
    10  H    0.275119
    11  H    0.222855
    12  N    0.488240
    13  O   -0.460821
    14  O   -0.460824
    15  C   -0.299409
    16  C   -0.299937
    17  C   -0.486179
    18  H    0.150693
    19  H    0.149127
    20  H    0.157265
    21  H    0.155022
    22  H    0.155043
    23  H    0.158505
    24  H    0.155974
    25  C   -0.299111
    26  C   -0.300000
    27  C   -0.476049
    28  H    0.151741
    29  H    0.150601
    30  H    0.152464
    31  H    0.151674
    32  H    0.155642
    33  H    0.156350
    34  H    0.161034
 Sum of Mulliken charges =  -0.00000

 Dipole moment (field-independent basis, Debye):
    X=             -1.7825    Y=              4.9563    Z=              0.0239  Tot=              5.2672
 Quadrupole moment (field-independent basis, Debye-Ang):
   XX=           -102.7971   YY=            -97.2252   ZZ=            -94.1259
   XY=             19.9192   XZ=             -2.0899   YZ=             -0.6570

 Normal termination of Gaussian 16 at Thu May  6 07:39:22 2021.
