 Gaussian 16, Revision A.03,
 Gaussian 16:  EM64L-G16RevA.03 25-Dec-2016

 -------------
 #p 6-31g* mp2
 -------------

 ------------------------------------------------------
 Input file generated by CHIRIPA (05-May-2021 14:51:09)
 ------------------------------------------------------
 Symbolic Z-matrix:
 Charge =  0 Multiplicity = 1

                         Standard orientation:
 ---------------------------------------------------------------------
 Center     Atomic      Atomic             Coordinates (Angstroms)
 Number     Number       Type             X           Y           Z
 ---------------------------------------------------------------------
      1          6           0       -3.172371    0.441499    0.240981
      2          6           0       -1.881716   -0.191454    0.762100
      3          6           0       -0.747845    0.822134    0.919483
      4          1           0       -2.972559    0.923362   -0.725885
      5          1           0       -3.485180    1.239103    0.929002
      6          1           0       -1.572185   -0.988553    0.074030
      7          1           0       -2.084668   -0.672030    1.727746
      8          1           0       -1.032130    1.612191    1.622045
      9          1           0       -0.516735    1.293870   -0.041066
     10          1           0        0.165233    0.348287    1.293138
     11          6           0       -4.315157   -0.559162    0.078361
     12          6           0       -5.605813    0.073791   -0.442758
     13          6           0       -6.739684   -0.939797   -0.600141
     14          1           0       -4.002349   -1.356766   -0.609661
     15          1           0       -4.514969   -1.041025    1.045226
     16          1           0       -5.402861    0.554368   -1.408404
     17          1           0       -5.915344    0.870890    0.245311
     18          1           0       -6.970794   -1.411533    0.360408
     19          1           0       -6.455399   -1.729853   -1.302704
     20          1           0       -7.652762   -0.465950   -0.973797
     21          6           0        3.383899    0.657715    0.148983
     22          6           0        3.426444    1.909017   -0.728752
     23          6           0        2.702269    3.098634   -0.097740
     24          1           0        2.336453    0.389772    0.343938
     25          1           0        3.834623    0.887102    1.124496
     26          1           0        2.977026    1.676952   -1.702808
     27          1           0        4.473910    2.173901   -0.921797
     28          1           0        3.154321    3.358295    0.864978
     29          1           0        1.648931    2.858522    0.079531
     30          1           0        2.745013    3.982372   -0.741977
     31          6           0        4.103629   -0.540053   -0.468324
     32          6           0        4.061084   -1.791354    0.409411
     33          6           0        4.785260   -2.980971   -0.221601
     34          1           0        3.652906   -0.769439   -1.443837
     35          1           0        5.151077   -0.272109   -0.663279
     36          1           0        3.013619   -2.056239    0.602456
     37          1           0        4.510504   -1.559289    1.383466
     38          1           0        5.838598   -2.740860   -0.398873
     39          1           0        4.333208   -3.240633   -1.184320
     40          1           0        4.742516   -3.864709    0.422635
 ---------------------------------------------------------------------

 SCF Done:  E(RHF) =  -470.732909613     A.U. after   11 cycles
 E2 =    -0.1583135002D+01 EUMP2 =    -0.47231604461468D+03

 The electronic state is 1-A.
 Alpha  occ. eigenvalues --  -11.21673 -11.21630 -11.21582 -11.21525 -11.21450
 Alpha  occ. eigenvalues --  -11.21389 -11.21339 -11.21251 -11.21155 -11.21094
 Alpha  occ. eigenvalues --  -11.21055 -11.20948  -1.08481  -1.08370  -1.03592
 Alpha  occ. eigenvalues --   -1.03467  -0.96042  -0.95917  -0.87065  -0.86935
 Alpha  occ. eigenvalues --   -0.79691  -0.79507  -0.78298  -0.78175  -0.65129
 Alpha  occ. eigenvalues --   -0.64998  -0.61031  -0.60835  -0.59450  -0.59254
 Alpha  occ. eigenvalues --   -0.57715  -0.57482  -0.55335  -0.55201  -0.52793
 Alpha  occ. eigenvalues --   -0.52606  -0.52544  -0.52249  -0.49997  -0.49853
 Alpha  occ. eigenvalues --   -0.47966  -0.47835  -0.46733  -0.46528  -0.45842
 Alpha  occ. eigenvalues --   -0.45771  -0.45707  -0.45626  -0.43761  -0.43709
 Alpha virt. eigenvalues --    0.21504   0.23039   0.23765   0.24391   0.26014
 Alpha virt. eigenvalues --    0.26620   0.26911   0.27204   0.27918   0.29202
 Alpha virt. eigenvalues --    0.30395   0.31301   0.31620   0.31847   0.32273

 Mulliken charges:
               1
     1  C   -0.298707
     2  C   -0.300205
     3  C   -0.481891
     4  H    0.149737
     5  H    0.149835
     6  H    0.151799
     7  H    0.152381
     8  H    0.156338
     9  H    0.155645
    10  H    0.165821
    11  C   -0.298308
    12  C   -0.299681
    13  C   -0.475732
    14  H    0.149528
    15  H    0.149783
    16  H    0.151990
    17  H    0.152040
    18  H    0.155238
    19  H    0.155201
    20  H    0.160370
    21  C   -0.306753
    22  C   -0.298619
    23  C   -0.481308
    24  H    0.158785
    25  H    0.148739
    26  H    0.150894
    27  H    0.151521
    28  H    0.154674
    29  H    0.162310
    30  H    0.159365
    31  C   -0.297564
    32  C   -0.299631
    33  C   -0.475607
    34  H    0.149058
    35  H    0.149454
    36  H    0.151202
    37  H    0.151875
    38  H    0.155233
    39  H    0.155069
    40  H    0.160120
 Sum of Mulliken charges =  -0.00000

 Dipole moment (field-independent basis, Debye):
    X=             -0.0625    Y=             -0.0019    Z=              0.0244  Tot=              0.0671
 Quadrupole moment (field-independent basis, Debye-Ang):
   XX=            -85.1800   YY=            -86.0397   ZZ=            -83.7658
   XY=              0.0380   XZ=              0.1320   YZ=             -0.0626

 Normal termination of Gaussian 16 at Thu May  6 02:09:07 2021.
