 Gaussian 16, Revision A.03,
 Gaussian 16:  EM64L-G16RevA.03 25-Dec-2016

 -------------
 #p 6-31g* mp2
 -------------

 ------------------------------------------------------
 Input file generated by CHIRIPA (05-May-2021 14:55:23)
 ------------------------------------------------------
 Symbolic Z-matrix:
 Charge =  0 Multiplicity = 1

                         Standard orientation:
 ---------------------------------------------------------------------
 Center     Atomic      Atomic             Coordinates (Angstroms)
 Number     Number       Type             X           Y           Z
 ---------------------------------------------------------------------
      1          6           0       -3.288017   -2.425161    0.004760
      2          6           0       -3.357647   -1.730548    1.216860
      3          6           0       -3.201115   -0.341666    1.249279
      4          6           0       -2.975283    0.323809    0.045355
      5          6           0       -2.900675   -0.339997   -1.178199
      6          6           0       -3.060155   -1.728896   -1.186800
      7          1           0       -3.410760   -3.504085   -0.011173
      8          1           0       -3.534497   -2.268665    2.143789
      9          1           0       -3.250401    0.221010    2.173608
     10          1           0       -2.723220    0.223938   -2.085891
     11          1           0       -3.005596   -2.265729   -2.129604
     12          7           0       -2.808009    1.794166    0.067068
     13          8           0       -2.610031    2.357222   -1.007367
     14          8           0       -2.878044    2.355734    1.158111
     15          6           0        3.203887    0.092259   -0.421581
     16          6           0        1.942967   -0.529464    0.179692
     17          6           0        0.671256   -0.126899   -0.567627
     18          1           0        3.104197    1.186322   -0.415687
     19          1           0        3.285928   -0.208457   -1.475257
     20          1           0        1.864065   -0.228789    1.232300
     21          1           0        2.045750   -1.622167    0.172542
     22          1           0        0.724050   -0.441280   -1.614995
     23          1           0        0.541331    0.960015   -0.549215
     24          1           0       -0.218062   -0.582491   -0.121076
     25          6           0        4.483413   -0.300840    0.314634
     26          6           0        5.744332    0.320883   -0.286639
     27          6           0        7.016043   -0.081682    0.460680
     28          1           0        4.401371   -0.000124    1.368309
     29          1           0        4.583102   -1.394903    0.308740
     30          1           0        5.641549    1.413586   -0.279489
     31          1           0        5.823235    0.020208   -1.339248
     32          1           0        7.145969   -1.168596    0.442268
     33          1           0        6.963250    0.232699    1.508048
     34          1           0        7.905362    0.373911    0.014129
 ---------------------------------------------------------------------

 SCF Done:  E(RHF) =  -669.534605896     A.U. after   15 cycles
 E2 =    -0.2093058203D+01 EUMP2 =    -0.67162766409900D+03

 The electronic state is 1-A.
 Alpha  occ. eigenvalues --  -20.60773 -20.60761 -15.85814 -11.31147 -11.27777
 Alpha  occ. eigenvalues --  -11.27725 -11.27539 -11.26811 -11.26769 -11.21495
 Alpha  occ. eigenvalues --  -11.21490 -11.21288 -11.21213 -11.20991 -11.20850
 Alpha  occ. eigenvalues --   -1.59839  -1.39393  -1.19386  -1.08769  -1.08312
 Alpha  occ. eigenvalues --   -1.04784  -1.03416  -0.95876  -0.95594  -0.86900
 Alpha  occ. eigenvalues --   -0.86169  -0.82431  -0.79495  -0.78127  -0.77473
 Alpha  occ. eigenvalues --   -0.72039  -0.71161  -0.70484  -0.65026  -0.64942
 Alpha  occ. eigenvalues --   -0.64781  -0.62123  -0.60814  -0.59312  -0.57514
 Alpha  occ. eigenvalues --   -0.55287  -0.55150  -0.53639  -0.52869  -0.52329
 Alpha  occ. eigenvalues --   -0.51950  -0.49809  -0.48797  -0.48793  -0.47787
 Alpha  occ. eigenvalues --   -0.46521  -0.45670  -0.45595  -0.44791  -0.43659
 Alpha  occ. eigenvalues --   -0.37324  -0.36355
 Alpha virt. eigenvalues --    0.05055   0.11232   0.16535   0.21382   0.22976
 Alpha virt. eigenvalues --    0.24394   0.26749   0.27163   0.27621   0.27933
 Alpha virt. eigenvalues --    0.28451   0.30916   0.31501   0.31843   0.32013

 Mulliken charges:
               1
     1  C   -0.171522
     2  C   -0.218291
     3  C   -0.172584
     4  C    0.160181
     5  C   -0.170225
     6  C   -0.216917
     7  H    0.225830
     8  H    0.223698
     9  H    0.275727
    10  H    0.275922
    11  H    0.223598
    12  N    0.488966
    13  O   -0.460413
    14  O   -0.460913
    15  C   -0.298726
    16  C   -0.298852
    17  C   -0.484978
    18  H    0.153192
    19  H    0.148209
    20  H    0.152378
    21  H    0.148150
    22  H    0.150109
    23  H    0.163054
    24  H    0.165646
    25  C   -0.298133
    26  C   -0.299671
    27  C   -0.475631
    28  H    0.149850
    29  H    0.147784
    30  H    0.153405
    31  H    0.151365
    32  H    0.154168
    33  H    0.155360
    34  H    0.160264
 Sum of Mulliken charges =  -0.00000

 Dipole moment (field-independent basis, Debye):
    X=             -0.6626    Y=             -5.1326    Z=             -0.0819  Tot=              5.1758
 Quadrupole moment (field-independent basis, Debye-Ang):
   XX=            -93.1934   YY=            -98.1580   ZZ=            -89.6729
   XY=             15.7516   XZ=             -0.9565   YZ=              0.3210

 Normal termination of Gaussian 16 at Wed May  5 16:02:43 2021.
