 Gaussian 16, Revision A.03,
 Gaussian 16:  EM64L-G16RevA.03 25-Dec-2016

 -------------
 #p 6-31g* mp2
 -------------

 ------------------------------------------------------
 Input file generated by CHIRIPA (05-May-2021 14:55:21)
 ------------------------------------------------------
 Symbolic Z-matrix:
 Charge =  0 Multiplicity = 1

                         Standard orientation:
 ---------------------------------------------------------------------
 Center     Atomic      Atomic             Coordinates (Angstroms)
 Number     Number       Type             X           Y           Z
 ---------------------------------------------------------------------
      1          6           0       -2.185102   -2.090679    0.869437
      2          6           0       -3.280791   -2.009181    0.003791
      3          6           0       -3.788456   -0.765566   -0.383824
      4          6           0       -3.173314    0.381422    0.115485
      5          6           0       -2.080316    0.333010    0.979373
      6          6           0       -1.589412   -0.921385    1.353612
      7          1           0       -1.797246   -3.060936    1.165351
      8          1           0       -3.745414   -2.915605   -0.373790
      9          1           0       -4.635523   -0.673543   -1.052724
     10          1           0       -1.638248    1.254129    1.339280
     11          1           0       -0.738361   -0.981645    2.026016
     12          7           0       -3.701884    1.703688   -0.287785
     13          8           0       -3.142138    2.699367    0.166024
     14          8           0       -4.665916    1.719362   -1.050042
     15          6           0        4.588861    0.139894   -0.464838
     16          6           0        5.255101    0.974782    0.629269
     17          6           0        6.531316    1.667129    0.149974
     18          1           0        5.301807   -0.612889   -0.828115
     19          1           0        4.355968    0.788499   -1.320680
     20          1           0        5.485414    0.325071    1.483346
     21          1           0        4.540421    1.725540    0.990117
     22          1           0        6.314371    2.337958   -0.687596
     23          1           0        7.264732    0.929530   -0.191566
     24          1           0        6.991177    2.258457    0.947922
     25          6           0        3.311809   -0.558445   -0.000952
     26          6           0        2.645569   -1.393333   -1.095059
     27          6           0        1.369354   -2.085680   -0.615764
     28          1           0        3.544702   -1.207050    0.854891
     29          1           0        2.598862    0.194338    0.362326
     30          1           0        3.360248   -2.144092   -1.455907
     31          1           0        2.415256   -0.743622   -1.949136
     32          1           0        0.635938   -1.348082   -0.274224
     33          1           0        1.586299   -2.756509    0.221807
     34          1           0        0.909492   -2.677008   -1.413711
 ---------------------------------------------------------------------

 SCF Done:  E(RHF) =  -669.534803858     A.U. after   15 cycles
 E2 =    -0.2092258011D+01 EUMP2 =    -0.67162706186891D+03

 The electronic state is 1-A.
 Alpha  occ. eigenvalues --  -20.60785 -20.60780 -15.85839 -11.31211 -11.27777
 Alpha  occ. eigenvalues --  -11.27773 -11.27497 -11.26786 -11.26763 -11.22001
 Alpha  occ. eigenvalues --  -11.21863 -11.21822 -11.21670 -11.21535 -11.21257
 Alpha  occ. eigenvalues --   -1.59861  -1.39414  -1.19388  -1.08805  -1.08758
 Alpha  occ. eigenvalues --   -1.04799  -1.03874  -0.96343  -0.95604  -0.87371
 Alpha  occ. eigenvalues --   -0.86181  -0.82441  -0.79953  -0.78605  -0.77490
 Alpha  occ. eigenvalues --   -0.72057  -0.71185  -0.70473  -0.65417  -0.65035
 Alpha  occ. eigenvalues --   -0.64793  -0.62144  -0.61273  -0.59707  -0.57960
 Alpha  occ. eigenvalues --   -0.55682  -0.55265  -0.53356  -0.52994  -0.52878
 Alpha  occ. eigenvalues --   -0.52584  -0.50252  -0.48817  -0.48812  -0.48261
 Alpha  occ. eigenvalues --   -0.46971  -0.46148  -0.46061  -0.44819  -0.44137
 Alpha  occ. eigenvalues --   -0.37299  -0.36349
 Alpha virt. eigenvalues --    0.05025   0.11216   0.16453   0.20970   0.22629
 Alpha virt. eigenvalues --    0.24040   0.26170   0.26609   0.27305   0.27961
 Alpha virt. eigenvalues --    0.28764   0.30624   0.31381   0.31580   0.31749

 Mulliken charges:
               1
     1  C   -0.166183
     2  C   -0.218875
     3  C   -0.170810
     4  C    0.158889
     5  C   -0.172734
     6  C   -0.220668
     7  H    0.226999
     8  H    0.223641
     9  H    0.275690
    10  H    0.275525
    11  H    0.226014
    12  N    0.488105
    13  O   -0.460553
    14  O   -0.460332
    15  C   -0.298538
    16  C   -0.299994
    17  C   -0.475978
    18  H    0.150297
    19  H    0.151838
    20  H    0.150963
    21  H    0.152312
    22  H    0.156603
    23  H    0.155305
    24  H    0.161025
    25  C   -0.298261
    26  C   -0.299154
    27  C   -0.483734
    28  H    0.147189
    29  H    0.147116
    30  H    0.152376
    31  H    0.155276
    32  H    0.163465
    33  H    0.146910
    34  H    0.160278
 Sum of Mulliken charges =  -0.00000

 Dipole moment (field-independent basis, Debye):
    X=              1.8585    Y=             -4.6377    Z=              1.3899  Tot=              5.1860
 Quadrupole moment (field-independent basis, Debye-Ang):
   XX=           -104.8839   YY=            -97.5996   ZZ=            -93.3649
   XY=             16.8018   XZ=             -1.8681   YZ=              1.2801

 Normal termination of Gaussian 16 at Thu May  6 07:45:44 2021.
