 Gaussian 16, Revision A.03,
 Gaussian 16:  EM64L-G16RevA.03 25-Dec-2016

 -------------
 #p 6-31g* mp2
 -------------

 ------------------------------------------------------
 Input file generated by CHIRIPA (05-May-2021 14:57:22)
 ------------------------------------------------------
 Symbolic Z-matrix:
 Charge =  0 Multiplicity = 1

                         Standard orientation:
 ---------------------------------------------------------------------
 Center     Atomic      Atomic             Coordinates (Angstroms)
 Number     Number       Type             X           Y           Z
 ---------------------------------------------------------------------
      1          6           0        5.590659    0.450387    0.410227
      2          6           0        5.238080   -0.620773   -0.417316
      3          6           0        3.894640   -0.954681   -0.612827
      4          6           0        2.925340   -0.192686    0.037642
      5          6           0        3.244871    0.880271    0.868276
      6          6           0        4.594685    1.196175    1.049255
      7          1           0        6.636751    0.702782    0.556460
      8          1           0        6.009438   -1.201714   -0.914869
      9          1           0        3.593668   -1.778877   -1.248070
     10          1           0        2.453515    1.440916    1.350823
     11          1           0        4.865566    2.028582    1.692502
     12          7           0        1.499726   -0.536650   -0.161645
     13          8           0        0.664706    0.150259    0.422764
     14          8           0        1.244345   -1.486644   -0.898481
     15          6           0       -3.659017   -2.233361    0.638981
     16          6           0       -2.729549   -1.987823   -0.377051
     17          6           0       -2.445378   -0.679077   -0.778274
     18          6           0       -3.112084    0.365058   -0.139075
     19          6           0       -4.043263    0.152711    0.876358
     20          6           0       -4.311756   -1.164196    1.261346
     21          1           0       -3.873679   -3.253196    0.944356
     22          1           0       -2.221110   -2.816199   -0.862156
     23          1           0       -1.730340   -0.460498   -1.562086
     24          1           0       -4.534151    0.999042    1.341299
     25          1           0       -5.034067   -1.351897    2.050700
     26          7           0       -2.819543    1.754888   -0.555238
     27          8           0       -3.420377    2.657410    0.023630
     28          8           0       -1.994954    1.915397   -1.452416
 ---------------------------------------------------------------------

 SCF Done:  E(RHF) =  -868.339989774     A.U. after   16 cycles
 E2 =    -0.2600118985D+01 EUMP2 =    -0.87094010875942D+03

 The electronic state is 1-A.
 Alpha  occ. eigenvalues --  -20.61214 -20.61142 -20.59403 -20.59361 -15.86180
 Alpha  occ. eigenvalues --  -15.84429 -11.31325 -11.29530 -11.27895 -11.27835
 Alpha  occ. eigenvalues --  -11.27590 -11.26859 -11.26819 -11.26270 -11.26007
 Alpha  occ. eigenvalues --  -11.25994 -11.25263 -11.25028  -1.60224  -1.58452
 Alpha  occ. eigenvalues --   -1.39782  -1.38015  -1.19479  -1.17748  -1.08922
 Alpha  occ. eigenvalues --   -1.07219  -1.04850  -1.03121  -0.95795  -0.94081
 Alpha  occ. eigenvalues --   -0.86260  -0.84557  -0.82634  -0.80925  -0.77701
 Alpha  occ. eigenvalues --   -0.75965  -0.72428  -0.71507  -0.70683  -0.70593
 Alpha  occ. eigenvalues --   -0.69737  -0.68942  -0.65140  -0.64859  -0.63431
 Alpha  occ. eigenvalues --   -0.63172  -0.62198  -0.60484  -0.55376  -0.53750
 Alpha  occ. eigenvalues --   -0.53189  -0.52943  -0.51527  -0.51252  -0.49191
 Alpha  occ. eigenvalues --   -0.49095  -0.47434  -0.47407  -0.45229  -0.43467
 Alpha  occ. eigenvalues --   -0.37450  -0.36440  -0.35773  -0.34644
 Alpha virt. eigenvalues --    0.04818   0.06576   0.11218   0.12977   0.16353
 Alpha virt. eigenvalues --    0.18056   0.21358   0.22883   0.27285   0.28229
 Alpha virt. eigenvalues --    0.28839   0.29755   0.30940   0.32326   0.32498

 Mulliken charges:
               1
     1  C   -0.169988
     2  C   -0.218701
     3  C   -0.170563
     4  C    0.159146
     5  C   -0.169090
     6  C   -0.218707
     7  H    0.226384
     8  H    0.223502
     9  H    0.273972
    10  H    0.278875
    11  H    0.225160
    12  N    0.490320
    13  O   -0.454836
    14  O   -0.471033
    15  C   -0.171645
    16  C   -0.220225
    17  C   -0.146575
    18  C    0.158027
    19  C   -0.172492
    20  C   -0.220853
    21  H    0.219033
    22  H    0.224668
    23  H    0.280103
    24  H    0.269496
    25  H    0.216051
    26  N    0.489696
    27  O   -0.469143
    28  O   -0.460579
 Sum of Mulliken charges =  -0.00000

 Dipole moment (field-independent basis, Debye):
    X=              4.5404    Y=             -3.6256    Z=              2.0862  Tot=              6.1735
 Quadrupole moment (field-independent basis, Debye-Ang):
   XX=            -69.1043   YY=           -107.0050   ZZ=           -102.2251
   XY=             15.4977   XZ=             -4.9984   YZ=              5.3412

 Normal termination of Gaussian 16 at Thu May  6 00:12:36 2021.
