 Gaussian 16, Revision A.03,
 Gaussian 16:  EM64L-G16RevA.03 25-Dec-2016

 -------------
 #p 6-31g* mp2
 -------------

 ------------------------------------------------------
 Input file generated by CHIRIPA (05-May-2021 14:55:23)
 ------------------------------------------------------
 Symbolic Z-matrix:
 Charge =  0 Multiplicity = 1

                         Standard orientation:
 ---------------------------------------------------------------------
 Center     Atomic      Atomic             Coordinates (Angstroms)
 Number     Number       Type             X           Y           Z
 ---------------------------------------------------------------------
      1          6           0       -1.849694    1.853252    0.676604
      2          6           0       -2.846994    1.458791    1.574555
      3          6           0       -3.713301    0.408450    1.256994
      4          6           0       -3.553230   -0.228233    0.027237
      5          6           0       -2.569404    0.141599   -0.888515
      6          6           0       -1.714321    1.194558   -0.549903
      7          1           0       -1.181086    2.670199    0.931469
      8          1           0       -2.954456    1.968529    2.527793
      9          1           0       -4.494031    0.082619    1.933539
     10          1           0       -2.486834   -0.385625   -1.831189
     11          1           0       -0.940713    1.498758   -1.249215
     12          7           0       -4.464409   -1.341568   -0.320093
     13          8           0       -4.302657   -1.886368   -1.409894
     14          8           0       -5.323091   -1.648318    0.504047
     15          6           0        3.850650    0.369161   -0.588621
     16          6           0        3.327089    1.727330   -0.120388
     17          6           0        2.317182    2.338560   -1.092129
     18          1           0        4.314442    0.483363   -1.577964
     19          1           0        3.002984   -0.317908   -0.718217
     20          1           0        4.175620    2.411224    0.009616
     21          1           0        2.864659    1.609918    0.868040
     22          1           0        1.452290    1.678578   -1.214548
     23          1           0        2.770699    2.484437   -2.077849
     24          1           0        1.955919    3.309064   -0.737913
     25          6           0        4.861175   -0.254622    0.372348
     26          6           0        5.384737   -1.612792   -0.095884
     27          6           0        6.394643   -2.224021    0.875857
     28          1           0        5.708841    0.432447    0.501944
     29          1           0        4.397383   -0.368824    1.361691
     30          1           0        5.847166   -1.495378   -1.084312
     31          1           0        4.536205   -2.296685   -0.225889
     32          1           0        5.941126   -2.369898    1.861577
     33          1           0        7.259535   -1.564039    0.998276
     34          1           0        6.755906   -3.194524    0.521640
 ---------------------------------------------------------------------

 SCF Done:  E(RHF) =  -669.535564484     A.U. after   15 cycles
 E2 =    -0.2090916087D+01 EUMP2 =    -0.67162648057017D+03

 The electronic state is 1-A.
 Alpha  occ. eigenvalues --  -20.60752 -20.60747 -15.85805 -11.31169 -11.27743
 Alpha  occ. eigenvalues --  -11.27733 -11.27473 -11.26752 -11.26714 -11.22424
 Alpha  occ. eigenvalues --  -11.22189 -11.22001 -11.21958 -11.21839 -11.21355
 Alpha  occ. eigenvalues --   -1.59828  -1.39381  -1.19341  -1.09015  -1.08734
 Alpha  occ. eigenvalues --   -1.04745  -1.04153  -0.96622  -0.95569  -0.87649
 Alpha  occ. eigenvalues --   -0.86140  -0.82403  -0.80229  -0.78785  -0.77453
 Alpha  occ. eigenvalues --   -0.72023  -0.71151  -0.70443  -0.65658  -0.64991
 Alpha  occ. eigenvalues --   -0.64762  -0.62143  -0.61507  -0.60015  -0.58208
 Alpha  occ. eigenvalues --   -0.55924  -0.55234  -0.53343  -0.53126  -0.53059
 Alpha  occ. eigenvalues --   -0.52763  -0.50544  -0.48787  -0.48779  -0.48528
 Alpha  occ. eigenvalues --   -0.47239  -0.46338  -0.46231  -0.44787  -0.44390
 Alpha  occ. eigenvalues --   -0.37318  -0.36347
 Alpha virt. eigenvalues --    0.05084   0.11234   0.16561   0.20067   0.22567
 Alpha virt. eigenvalues --    0.23903   0.25366   0.26342   0.26890   0.27770
 Alpha virt. eigenvalues --    0.29294   0.29607   0.31127   0.31477   0.32040

 Mulliken charges:
               1
     1  C   -0.172459
     2  C   -0.218669
     3  C   -0.171043
     4  C    0.158701
     5  C   -0.171877
     6  C   -0.223484
     7  H    0.226486
     8  H    0.223290
     9  H    0.275518
    10  H    0.275750
    11  H    0.230574
    12  N    0.488029
    13  O   -0.460455
    14  O   -0.460534
    15  C   -0.299180
    16  C   -0.298905
    17  C   -0.481778
    18  H    0.151128
    19  H    0.150429
    20  H    0.155058
    21  H    0.151296
    22  H    0.149818
    23  H    0.160828
    24  H    0.157423
    25  C   -0.298792
    26  C   -0.300309
    27  C   -0.476061
    28  H    0.150198
    29  H    0.150206
    30  H    0.152567
    31  H    0.153317
    32  H    0.155697
    33  H    0.155351
    34  H    0.161883
 Sum of Mulliken charges =  -0.00000

 Dipole moment (field-independent basis, Debye):
    X=              3.3945    Y=              3.8943    Z=              1.2346  Tot=              5.3116
 Quadrupole moment (field-independent basis, Debye-Ang):
   XX=           -116.4065   YY=            -97.3375   ZZ=            -91.1017
   XY=            -14.3209   XZ=             -7.5682   YZ=              0.5364

 Normal termination of Gaussian 16 at Thu May  6 03:06:58 2021.
