 Gaussian 16, Revision A.03,
 Gaussian 16:  EM64L-G16RevA.03 25-Dec-2016

 -------------
 #p 6-31g* mp2
 -------------

 ------------------------------------------------------
 Input file generated by CHIRIPA (05-May-2021 14:55:19)
 ------------------------------------------------------
 Symbolic Z-matrix:
 Charge =  0 Multiplicity = 1

                         Standard orientation:
 ---------------------------------------------------------------------
 Center     Atomic      Atomic             Coordinates (Angstroms)
 Number     Number       Type             X           Y           Z
 ---------------------------------------------------------------------
      1          6           0       -3.291165   -0.122624   -2.131357
      2          6           0       -2.632281    0.995261   -1.609124
      3          6           0       -2.074640    0.956352   -0.327691
      4          6           0       -2.194935   -0.222052    0.407281
      5          6           0       -2.845319   -1.352377   -0.085322
      6          6           0       -3.395397   -1.290815   -1.369133
      7          1           0       -3.721416   -0.083600   -3.127729
      8          1           0       -2.549811    1.903835   -2.198816
      9          1           0       -1.559190    1.807178    0.101056
     10          1           0       -2.911501   -2.243952    0.526342
     11          1           0       -3.906533   -2.160509   -1.772143
     12          7           0       -1.608589   -0.275234    1.765136
     13          8           0       -1.728100   -1.325345    2.392528
     14          8           0       -1.040602    0.734200    2.176318
     15          6           0        2.893306   -0.485210   -0.151528
     16          6           0        4.153592   -1.213806   -0.619303
     17          6           0        4.058522   -2.729985   -0.446212
     18          1           0        2.710048   -0.724305    0.904973
     19          1           0        2.028601   -0.865747   -0.712663
     20          1           0        5.015866   -0.831029   -0.058428
     21          1           0        4.333979   -0.972798   -1.674761
     22          1           0        3.216437   -3.131114   -1.019439
     23          1           0        3.902199   -2.988540    0.606077
     24          1           0        4.970077   -3.230885   -0.786838
     25          6           0        2.973118    1.031225   -0.318206
     26          6           0        1.712832    1.759822    0.149569
     27          6           0        1.807903    3.275999   -0.023523
     28          1           0        3.837823    1.411762    0.242929
     29          1           0        3.156377    1.270320   -1.374707
     30          1           0        1.532445    1.518813    1.205027
     31          1           0        0.850559    1.377045   -0.411306
     32          1           0        1.964226    3.534555   -1.075812
     33          1           0        2.649987    3.677129    0.549704
     34          1           0        0.896348    3.776900    0.317103
 ---------------------------------------------------------------------

 SCF Done:  E(RHF) =  -669.535312489     A.U. after   15 cycles
 E2 =    -0.2093152653D+01 EUMP2 =    -0.67162846514218D+03

 The electronic state is 1-A.
 Alpha  occ. eigenvalues --  -20.60859 -20.60842 -15.85885 -11.31236 -11.27809
 Alpha  occ. eigenvalues --  -11.27782 -11.27551 -11.26819 -11.26809 -11.21307
 Alpha  occ. eigenvalues --  -11.21061 -11.21016 -11.20966 -11.20872 -11.20794
 Alpha  occ. eigenvalues --   -1.59914  -1.39469  -1.19414  -1.08808  -1.08067
 Alpha  occ. eigenvalues --   -1.04817  -1.03203  -0.95704  -0.95630  -0.86698
 Alpha  occ. eigenvalues --   -0.86212  -0.82484  -0.79273  -0.77937  -0.77453
 Alpha  occ. eigenvalues --   -0.72114  -0.71222  -0.70527  -0.65068  -0.64854
 Alpha  occ. eigenvalues --   -0.64667  -0.62185  -0.60592  -0.59039  -0.57285
 Alpha  occ. eigenvalues --   -0.55317  -0.54974  -0.53154  -0.52900  -0.52386
 Alpha  occ. eigenvalues --   -0.52103  -0.49618  -0.48894  -0.48870  -0.47588
 Alpha  occ. eigenvalues --   -0.46272  -0.45550  -0.45347  -0.44628  -0.43449
 Alpha  occ. eigenvalues --   -0.37384  -0.36383
 Alpha virt. eigenvalues --    0.04964   0.11163   0.16434   0.20904   0.23224
 Alpha virt. eigenvalues --    0.24093   0.26560   0.27027   0.27696   0.28011
 Alpha virt. eigenvalues --    0.29253   0.30508   0.31564   0.31626   0.32290

 Mulliken charges:
               1
     1  C   -0.170436
     2  C   -0.221055
     3  C   -0.171000
     4  C    0.158002
     5  C   -0.170703
     6  C   -0.218624
     7  H    0.225825
     8  H    0.224182
     9  H    0.280753
    10  H    0.275770
    11  H    0.223641
    12  N    0.488801
    13  O   -0.459932
    14  O   -0.459854
    15  C   -0.299472
    16  C   -0.299241
    17  C   -0.475590
    18  H    0.156965
    19  H    0.145840
    20  H    0.152245
    21  H    0.149428
    22  H    0.153198
    23  H    0.158032
    24  H    0.158785
    25  C   -0.297628
    26  C   -0.308452
    27  C   -0.477298
    28  H    0.149716
    29  H    0.144892
    30  H    0.176783
    31  H    0.142084
    32  H    0.149870
    33  H    0.157976
    34  H    0.156497
 Sum of Mulliken charges =  -0.00000

 Dipole moment (field-independent basis, Debye):
    X=             -2.1399    Y=              0.1313    Z=             -4.5830  Tot=              5.0597
 Quadrupole moment (field-independent basis, Debye-Ang):
   XX=            -85.8337   YY=            -92.0333   ZZ=            -98.3549
   XY=              1.9249   XZ=             10.5580   YZ=              0.9374

 Normal termination of Gaussian 16 at Thu May  6 06:06:07 2021.
