 Gaussian 16, Revision A.03,
 Gaussian 16:  EM64L-G16RevA.03 25-Dec-2016

 -------------
 #p 6-31g* mp2
 -------------

 ------------------------------------------------------
 Input file generated by CHIRIPA (05-May-2021 14:57:23)
 ------------------------------------------------------
 Symbolic Z-matrix:
 Charge =  0 Multiplicity = 1

                         Standard orientation:
 ---------------------------------------------------------------------
 Center     Atomic      Atomic             Coordinates (Angstroms)
 Number     Number       Type             X           Y           Z
 ---------------------------------------------------------------------
      1          6           0       -3.011986    2.461801    0.173260
      2          6           0       -2.216490    1.331945    0.390364
      3          6           0       -2.770667    0.050113    0.324462
      4          6           0       -4.129993   -0.065653    0.037894
      5          6           0       -4.948700    1.040746   -0.183217
      6          6           0       -4.373152    2.312858   -0.112334
      7          1           0       -2.573187    3.453783    0.226389
      8          1           0       -1.159098    1.444598    0.612347
      9          1           0       -2.177882   -0.841616    0.488296
     10          1           0       -5.999678    0.896649   -0.402529
     11          1           0       -4.993361    3.188533   -0.281384
     12          7           0       -4.727988   -1.417526   -0.034510
     13          8           0       -5.928157   -1.492670   -0.288643
     14          8           0       -3.985203   -2.376382    0.164242
     15          6           0        1.574189   -0.723630   -0.133260
     16          6           0        2.523885   -1.743329   -0.011550
     17          6           0        3.888064   -1.441114    0.035655
     18          6           0        4.268994   -0.102387   -0.041761
     19          6           0        3.346834    0.935934   -0.163422
     20          6           0        1.987965    0.610395   -0.208674
     21          1           0        0.516524   -0.967458   -0.169171
     22          1           0        2.205439   -2.780239    0.047228
     23          1           0        4.644504   -2.210792    0.129526
     24          1           0        3.694806    1.960217   -0.219794
     25          1           0        1.252643    1.404375   -0.303232
     26          7           0        5.710379    0.229901    0.007179
     27          8           0        6.020203    1.417223   -0.062899
     28          8           0        6.503018   -0.703266    0.114692
 ---------------------------------------------------------------------

 SCF Done:  E(RHF) =  -868.336544718     A.U. after   16 cycles
 E2 =    -0.2600319463D+01 EUMP2 =    -0.87093686418183D+03

 The electronic state is 1-A.
 Alpha  occ. eigenvalues --  -20.61556 -20.61536 -20.61161 -20.61150 -15.86609
 Alpha  occ. eigenvalues --  -15.86217 -11.32091 -11.31695 -11.28792 -11.28613
 Alpha  occ. eigenvalues --  -11.28415 -11.28328 -11.28237 -11.28130 -11.27819
 Alpha  occ. eigenvalues --  -11.27624 -11.27457 -11.27263  -1.60620  -1.60231
 Alpha  occ. eigenvalues --   -1.40173  -1.39781  -1.20274  -1.19893  -1.09637
 Alpha  occ. eigenvalues --   -1.09283  -1.05717  -1.05314  -0.96457  -0.96093
 Alpha  occ. eigenvalues --   -0.87111  -0.86716  -0.83305  -0.82920  -0.78351
 Alpha  occ. eigenvalues --   -0.77930  -0.72825  -0.72434  -0.71944  -0.71554
 Alpha  occ. eigenvalues --   -0.71410  -0.71012  -0.65933  -0.65859  -0.65544
 Alpha  occ. eigenvalues --   -0.65276  -0.63094  -0.62618  -0.56187  -0.55863
 Alpha  occ. eigenvalues --   -0.54003  -0.53865  -0.53623  -0.53368  -0.49592
 Alpha  occ. eigenvalues --   -0.49572  -0.49201  -0.49180  -0.45553  -0.45161
 Alpha  occ. eigenvalues --   -0.38228  -0.37897  -0.37313  -0.36906
 Alpha virt. eigenvalues --    0.04214   0.04607   0.10303   0.10670   0.15585
 Alpha virt. eigenvalues --    0.16048   0.17457   0.22278   0.23919   0.24906
 Alpha virt. eigenvalues --    0.27909   0.28939   0.30537   0.30965   0.33210

 Mulliken charges:
               1
     1  C   -0.170487
     2  C   -0.222886
     3  C   -0.175863
     4  C    0.160901
     5  C   -0.169171
     6  C   -0.217800
     7  H    0.227994
     8  H    0.220467
     9  H    0.271336
    10  H    0.278721
    11  H    0.227223
    12  N    0.488353
    13  O   -0.456723
    14  O   -0.461797
    15  C   -0.173202
    16  C   -0.218785
    17  C   -0.169587
    18  C    0.159146
    19  C   -0.169646
    20  C   -0.222609
    21  H    0.224520
    22  H    0.228959
    23  H    0.278291
    24  H    0.276139
    25  H    0.216721
    26  N    0.487943
    27  O   -0.459979
    28  O   -0.458181
 Sum of Mulliken charges =  -0.00000

 Dipole moment (field-independent basis, Debye):
    X=             -3.0636    Y=              3.5580    Z=              0.0532  Tot=              4.6955
 Quadrupole moment (field-independent basis, Debye-Ang):
   XX=           -159.7307   YY=            -99.6833   ZZ=           -106.3021
   XY=            -28.4571   XZ=             -0.2592   YZ=             -0.7163

 Normal termination of Gaussian 16 at Fri May  7 09:30:44 2021.
