 Gaussian 16, Revision A.03,
 Gaussian 16:  EM64L-G16RevA.03 25-Dec-2016

 -------------
 #p 6-31g* mp2
 -------------

 ------------------------------------------------------
 Input file generated by CHIRIPA (05-May-2021 14:57:25)
 ------------------------------------------------------
 Symbolic Z-matrix:
 Charge =  0 Multiplicity = 1

                         Standard orientation:
 ---------------------------------------------------------------------
 Center     Atomic      Atomic             Coordinates (Angstroms)
 Number     Number       Type             X           Y           Z
 ---------------------------------------------------------------------
      1          6           0        2.206229    0.985804    0.433295
      2          6           0        2.520303   -0.277045    0.946219
      3          6           0        3.787482   -0.831236    0.742066
      4          6           0        4.720617   -0.091659    0.017099
      5          6           0        4.437903    1.168931   -0.506614
      6          6           0        3.164342    1.703496   -0.290209
      7          1           0        1.219375    1.408690    0.596645
      8          1           0        1.778205   -0.836682    1.508482
      9          1           0        4.057281   -1.806789    1.127971
     10          1           0        5.198576    1.702908   -1.063089
     11          1           0        2.923222    2.684462   -0.689724
     12          7           0        6.065500   -0.667967   -0.205514
     13          8           0        6.869937    0.003777   -0.847602
     14          8           0        6.289717   -1.780510    0.266305
     15          6           0       -2.274722    1.173187    0.131940
     16          6           0       -2.320533   -0.199910   -0.130790
     17          6           0       -3.547291   -0.862168   -0.235792
     18          6           0       -4.713994   -0.117064   -0.071744
     19          6           0       -4.701174    1.251950    0.190797
     20          6           0       -3.463094    1.893464    0.291614
     21          1           0       -1.317350    1.679589    0.211882
     22          1           0       -1.399228   -0.761827   -0.255253
     23          1           0       -3.611717   -1.924324   -0.438504
     24          1           0       -5.636436    1.785321    0.310033
     25          1           0       -3.430551    2.959919    0.495725
     26          7           0       -6.018702   -0.807188   -0.180689
     27          8           0       -7.032335   -0.128145   -0.032080
     28          8           0       -6.002993   -2.014083   -0.412627
 ---------------------------------------------------------------------

 SCF Done:  E(RHF) =  -868.336238960     A.U. after   16 cycles
 E2 =    -0.2599829565D+01 EUMP2 =    -0.87093606852420D+03

 The electronic state is 1-A.
 Alpha  occ. eigenvalues --  -20.61360 -20.61355 -20.61319 -20.61314 -15.86419
 Alpha  occ. eigenvalues --  -15.86378 -11.31963 -11.31905 -11.28539 -11.28526
 Alpha  occ. eigenvalues --  -11.28486 -11.28477 -11.28468 -11.28411 -11.27668
 Alpha  occ. eigenvalues --  -11.27636 -11.27610 -11.27567  -1.60431  -1.60391
 Alpha  occ. eigenvalues --   -1.39979  -1.39940  -1.20164  -1.20106  -1.09563
 Alpha  occ. eigenvalues --   -1.09499  -1.05582  -1.05524  -0.96372  -0.96293
 Alpha  occ. eigenvalues --   -0.86993  -0.86931  -0.83192  -0.83108  -0.78162
 Alpha  occ. eigenvalues --   -0.78113  -0.72635  -0.72595  -0.71755  -0.71715
 Alpha  occ. eigenvalues --   -0.71577  -0.71099  -0.65831  -0.65772  -0.65631
 Alpha  occ. eigenvalues --   -0.65511  -0.62920  -0.62853  -0.56492  -0.55851
 Alpha  occ. eigenvalues --   -0.53914  -0.53852  -0.53690  -0.53623  -0.49410
 Alpha  occ. eigenvalues --   -0.49377  -0.49367  -0.49338  -0.45344  -0.45308
 Alpha  occ. eigenvalues --   -0.38204  -0.38139  -0.37171  -0.37113
 Alpha virt. eigenvalues --    0.04351   0.04411   0.10437   0.10524   0.15723
 Alpha virt. eigenvalues --    0.15836   0.17290   0.22092   0.24364   0.25498
 Alpha virt. eigenvalues --    0.27218   0.29135   0.29766   0.31399   0.32653

 Mulliken charges:
               1
     1  C   -0.175324
     2  C   -0.221671
     3  C   -0.169587
     4  C    0.159635
     5  C   -0.169733
     6  C   -0.218790
     7  H    0.220272
     8  H    0.223364
     9  H    0.278290
    10  H    0.278247
    11  H    0.224387
    12  N    0.487820
    13  O   -0.458245
    14  O   -0.458243
    15  C   -0.173854
    16  C   -0.220547
    17  C   -0.169805
    18  C    0.159465
    19  C   -0.169872
    20  C   -0.218331
    21  H    0.219004
    22  H    0.221506
    23  H    0.278020
    24  H    0.277983
    25  H    0.225056
    26  N    0.487852
    27  O   -0.458426
    28  O   -0.458476
 Sum of Mulliken charges =  -0.00000

 Dipole moment (field-independent basis, Debye):
    X=             -0.1169    Y=              4.3753    Z=              1.1245  Tot=              4.5190
 Quadrupole moment (field-independent basis, Debye-Ang):
   XX=           -190.0793   YY=            -98.9121   ZZ=           -104.8925
   XY=             -3.1261   XZ=              0.1846   YZ=             -1.8879

 Normal termination of Gaussian 16 at Fri May  7 08:07:26 2021.
