 Gaussian 16, Revision A.03,
 Gaussian 16:  EM64L-G16RevA.03 25-Dec-2016

 -------------
 #p 6-31g* mp2
 -------------

 ------------------------------------------------------
 Input file generated by CHIRIPA (05-May-2021 14:51:11)
 ------------------------------------------------------
 Symbolic Z-matrix:
 Charge =  0 Multiplicity = 1

                         Standard orientation:
 ---------------------------------------------------------------------
 Center     Atomic      Atomic             Coordinates (Angstroms)
 Number     Number       Type             X           Y           Z
 ---------------------------------------------------------------------
      1          6           0        2.254106   -0.073873    0.743544
      2          6           0        2.537815   -1.573925    0.657885
      3          6           0        2.543298   -2.253674    2.027449
      4          1           0        3.008861    0.399461    1.386386
      5          1           0        1.283511    0.081181    1.234766
      6          1           0        3.506950   -1.726152    0.165727
      7          1           0        1.782409   -2.043713    0.015018
      8          1           0        1.574333   -2.131289    2.522150
      9          1           0        3.308673   -1.811923    2.673715
     10          1           0        2.748057   -3.325485    1.942859
     11          6           0        2.245334    0.619715   -0.617553
     12          6           0        1.961625    2.119767   -0.531894
     13          6           0        1.956141    2.799516   -1.901458
     14          1           0        3.215929    0.464661   -1.108775
     15          1           0        1.490579    0.146381   -1.260395
     16          1           0        2.717031    2.589555    0.110973
     17          1           0        0.992490    2.271993   -0.039736
     18          1           0        1.190767    2.357765   -2.547724
     19          1           0        2.925107    2.677131   -2.396159
     20          1           0        1.751383    3.871327   -1.816869
     21          6           0       -2.023468    0.378997    0.264489
     22          6           0       -3.155134    1.128662    0.968277
     23          6           0       -2.686842    2.430827    1.618559
     24          1           0       -1.228276    0.162454    0.990936
     25          1           0       -1.579588    1.032421   -0.499319
     26          1           0       -3.597655    0.473530    1.729588
     27          1           0       -3.947809    1.343276    0.240113
     28          1           0       -2.263927    3.106051    0.867682
     29          1           0       -1.911784    2.231363    2.365620
     30          1           0       -3.511726    2.950494    2.115925
     31          6           0       -2.475973   -0.924838   -0.390479
     32          6           0       -1.344306   -1.674504   -1.094269
     33          6           0       -1.812598   -2.976668   -1.744549
     34          1           0       -2.919851   -1.578262    0.373328
     35          1           0       -3.271163   -0.708296   -1.116927
     36          1           0       -0.551631   -1.889118   -0.366104
     37          1           0       -0.901785   -1.019372   -1.855579
     38          1           0       -2.587655   -2.777206   -2.491611
     39          1           0       -2.235513   -3.651893   -0.993673
     40          1           0       -0.987714   -3.496335   -2.241916
 ---------------------------------------------------------------------

 SCF Done:  E(RHF) =  -470.732673751     A.U. after   11 cycles
 E2 =    -0.1585582144D+01 EUMP2 =    -0.47231825589588D+03

 The electronic state is 1-A.
 Alpha  occ. eigenvalues --  -11.21697 -11.21686 -11.21547 -11.21511 -11.21511
 Alpha  occ. eigenvalues --  -11.21452 -11.21322 -11.21251 -11.21151 -11.21142
 Alpha  occ. eigenvalues --  -11.21080 -11.21044  -1.08562  -1.08344  -1.03630
 Alpha  occ. eigenvalues --   -1.03485  -0.96071  -0.95939  -0.87086  -0.86959
 Alpha  occ. eigenvalues --   -0.79720  -0.79545  -0.78377  -0.78168  -0.65265
 Alpha  occ. eigenvalues --   -0.64933  -0.61107  -0.60825  -0.59433  -0.59307
 Alpha  occ. eigenvalues --   -0.57693  -0.57543  -0.55408  -0.55190  -0.52757
 Alpha  occ. eigenvalues --   -0.52648  -0.52490  -0.52370  -0.50022  -0.49908
 Alpha  occ. eigenvalues --   -0.48129  -0.47863  -0.46955  -0.46389  -0.46243
 Alpha  occ. eigenvalues --   -0.45834  -0.45455  -0.45267  -0.43875  -0.43726
 Alpha virt. eigenvalues --    0.19667   0.22108   0.23158   0.23795   0.25474
 Alpha virt. eigenvalues --    0.26589   0.27228   0.27674   0.28050   0.30223
 Alpha virt. eigenvalues --    0.31010   0.31266   0.31679   0.31893   0.32188

 Mulliken charges:
               1
     1  C   -0.302735
     2  C   -0.305402
     3  C   -0.475662
     4  H    0.149476
     5  H    0.153636
     6  H    0.152224
     7  H    0.156852
     8  H    0.153741
     9  H    0.155538
    10  H    0.160211
    11  C   -0.302003
    12  C   -0.302739
    13  C   -0.475707
    14  H    0.148808
    15  H    0.154965
    16  H    0.151481
    17  H    0.155394
    18  H    0.153941
    19  H    0.155222
    20  H    0.159977
    21  C   -0.305617
    22  C   -0.299358
    23  C   -0.476662
    24  H    0.154235
    25  H    0.151640
    26  H    0.152206
    27  H    0.152349
    28  H    0.155691
    29  H    0.155383
    30  H    0.160880
    31  C   -0.297656
    32  C   -0.308865
    33  C   -0.475613
    34  H    0.149793
    35  H    0.150091
    36  H    0.159324
    37  H    0.153206
    38  H    0.155596
    39  H    0.155505
    40  H    0.160654
 Sum of Mulliken charges =  -0.00000

 Dipole moment (field-independent basis, Debye):
    X=             -0.0641    Y=             -0.0178    Z=             -0.0029  Tot=              0.0666
 Quadrupole moment (field-independent basis, Debye-Ang):
   XX=            -83.7772   YY=            -85.8354   ZZ=            -85.1620
   XY=             -0.0981   XZ=              0.1221   YZ=             -0.2651

 Normal termination of Gaussian 16 at Wed May  5 15:15:44 2021.
