 Gaussian 16, Revision A.03,
 Gaussian 16:  EM64L-G16RevA.03 25-Dec-2016

 -------------
 #p 6-31g* mp2
 -------------

 ------------------------------------------------------
 Input file generated by CHIRIPA (05-May-2021 14:55:20)
 ------------------------------------------------------
 Symbolic Z-matrix:
 Charge =  0 Multiplicity = 1

                         Standard orientation:
 ---------------------------------------------------------------------
 Center     Atomic      Atomic             Coordinates (Angstroms)
 Number     Number       Type             X           Y           Z
 ---------------------------------------------------------------------
      1          6           0       -2.824502   -2.517339    0.935919
      2          6           0       -2.993258   -2.336599   -0.440807
      3          6           0       -2.858139   -1.067807   -1.012172
      4          6           0       -2.552406    0.002885   -0.173461
      5          6           0       -2.378247   -0.145093    1.201698
      6          6           0       -2.518075   -1.422939    1.751340
      7          1           0       -2.931295   -3.506484    1.371332
      8          1           0       -3.231273   -3.184704   -1.076505
      9          1           0       -2.983470   -0.899562   -2.074906
     10          1           0       -2.141403    0.719526    1.809775
     11          1           0       -2.386460   -1.560335    2.820847
     12          7           0       -2.406869    1.350891   -0.766841
     13          8           0       -2.137162    2.277974   -0.006306
     14          8           0       -2.565259    1.454849   -1.981230
     15          6           0        2.622756    0.606238    0.244446
     16          6           0        2.726540    2.096727    0.569501
     17          6           0        1.367868    2.733879    0.862487
     18          1           0        1.958810    0.471428   -0.620393
     19          1           0        2.147154    0.086434    1.087654
     20          1           0        3.203060    2.613351   -0.273496
     21          1           0        3.390467    2.228019    1.433548
     22          1           0        0.889267    2.244789    1.717082
     23          1           0        0.700795    2.632310    0.000340
     24          1           0        1.465363    3.799492    1.092325
     25          6           0        3.972808   -0.044875   -0.050745
     26          6           0        3.869025   -1.535362   -0.375800
     27          6           0        5.227697   -2.172516   -0.668786
     28          1           0        4.448410    0.474930   -0.893954
     29          1           0        4.636754    0.089936    0.814094
     30          1           0        3.205098   -1.666655   -1.239847
     31          1           0        3.392505   -2.051987    0.467196
     32          1           0        5.894770   -2.070947    0.193362
     33          1           0        5.706297   -1.683426   -1.523381
     34          1           0        5.130202   -3.238128   -0.898624
 ---------------------------------------------------------------------

 SCF Done:  E(RHF) =  -669.535899884     A.U. after   15 cycles
 E2 =    -0.2091432571D+01 EUMP2 =    -0.67162733245510D+03

 The electronic state is 1-A.
 Alpha  occ. eigenvalues --  -20.60883 -20.60854 -15.85894 -11.31227 -11.27795
 Alpha  occ. eigenvalues --  -11.27788 -11.27535 -11.26805 -11.26795 -11.21525
 Alpha  occ. eigenvalues --  -11.21186 -11.21091 -11.21030 -11.21029 -11.20162
 Alpha  occ. eigenvalues --   -1.59934  -1.39488  -1.19397  -1.08801  -1.08146
 Alpha  occ. eigenvalues --   -1.04796  -1.03173  -0.95658  -0.95581  -0.86607
 Alpha  occ. eigenvalues --   -0.86196  -0.82475  -0.79250  -0.77954  -0.77520
 Alpha  occ. eigenvalues --   -0.72119  -0.71251  -0.70508  -0.65054  -0.64806
 Alpha  occ. eigenvalues --   -0.64777  -0.62145  -0.60570  -0.59016  -0.57214
 Alpha  occ. eigenvalues --   -0.55303  -0.54882  -0.53126  -0.52890  -0.52278
 Alpha  occ. eigenvalues --   -0.52018  -0.49554  -0.48884  -0.48873  -0.47572
 Alpha  occ. eigenvalues --   -0.46313  -0.45539  -0.45426  -0.44727  -0.43440
 Alpha  occ. eigenvalues --   -0.37375  -0.36395
 Alpha virt. eigenvalues --    0.04979   0.11244   0.16462   0.21261   0.23095
 Alpha virt. eigenvalues --    0.24512   0.26562   0.27151   0.27632   0.27884
 Alpha virt. eigenvalues --    0.28897   0.30809   0.31514   0.32028   0.32426

 Mulliken charges:
               1
     1  C   -0.170462
     2  C   -0.218478
     3  C   -0.170930
     4  C    0.158610
     5  C   -0.170564
     6  C   -0.218641
     7  H    0.225750
     8  H    0.223557
     9  H    0.275512
    10  H    0.276577
    11  H    0.223503
    12  N    0.486952
    13  O   -0.457352
    14  O   -0.460165
    15  C   -0.297204
    16  C   -0.300799
    17  C   -0.475550
    18  H    0.149986
    19  H    0.144682
    20  H    0.152159
    21  H    0.148033
    22  H    0.145884
    23  H    0.171955
    24  H    0.159873
    25  C   -0.297819
    26  C   -0.299010
    27  C   -0.475431
    28  H    0.150573
    29  H    0.148708
    30  H    0.151643
    31  H    0.149106
    32  H    0.154835
    33  H    0.156010
    34  H    0.158495
 Sum of Mulliken charges =  -0.00000

 Dipole moment (field-independent basis, Debye):
    X=             -0.6680    Y=             -4.6732    Z=              2.0218  Tot=              5.1355
 Quadrupole moment (field-independent basis, Debye-Ang):
   XX=            -94.0136   YY=            -94.7433   ZZ=            -90.6747
   XY=             13.2861   XZ=             -4.1474   YZ=              2.2415

 Normal termination of Gaussian 16 at Thu May  6 17:26:41 2021.
