 Gaussian 16, Revision A.03,
 Gaussian 16:  EM64L-G16RevA.03 25-Dec-2016

 -------------
 #p 6-31g* mp2
 -------------

 ------------------------------------------------------
 Input file generated by CHIRIPA (05-May-2021 14:51:14)
 ------------------------------------------------------
 Symbolic Z-matrix:
 Charge =  0 Multiplicity = 1

                         Standard orientation:
 ---------------------------------------------------------------------
 Center     Atomic      Atomic             Coordinates (Angstroms)
 Number     Number       Type             X           Y           Z
 ---------------------------------------------------------------------
      1          6           0        3.714980    0.216017   -0.276303
      2          6           0        3.609239   -1.242512    0.170349
      3          6           0        4.762138   -2.103937   -0.345950
      4          1           0        3.741302    0.255743   -1.373879
      5          1           0        4.669891    0.631328    0.074493
      6          1           0        2.654197   -1.654540   -0.179998
      7          1           0        3.582973   -1.278758    1.266986
      8          1           0        5.721721   -1.719638    0.014766
      9          1           0        4.787668   -2.097555   -1.440440
     10          1           0        4.666646   -3.142750   -0.014877
     11          6           0        2.569601    1.089805    0.231959
     12          6           0        2.675342    2.548334   -0.214693
     13          6           0        1.522444    3.409759    0.301606
     14          1           0        1.614691    0.674494   -0.118837
     15          1           0        2.543279    1.050079    1.329535
     16          1           0        2.701609    2.584580   -1.311330
     17          1           0        3.630385    2.960361    0.135655
     18          1           0        1.496914    3.403377    1.396096
     19          1           0        0.562861    3.025460   -0.059110
     20          1           0        1.617936    4.448572   -0.029467
     21          6           0       -3.686819   -0.333780   -0.408034
     22          6           0       -4.850540    0.230999    0.407295
     23          6           0       -5.931878    0.866118   -0.467420
     24          1           0       -3.245968    0.471047   -1.012062
     25          1           0       -4.072511   -1.080456   -1.115926
     26          1           0       -4.462581    0.975387    1.114395
     27          1           0       -5.288551   -0.575223    1.009597
     28          1           0       -6.346453    0.129466   -1.163173
     29          1           0       -5.515792    1.688887   -1.057779
     30          1           0       -6.754178    1.263365    0.135803
     31          6           0       -2.597763   -0.972042    0.452378
     32          6           0       -1.434042   -1.536821   -0.362951
     33          6           0       -0.352702   -2.171940    0.511764
     34          1           0       -2.212071   -0.225366    1.160270
     35          1           0       -3.038615   -1.776868    1.056406
     36          1           0       -0.996031   -0.730598   -0.965253
     37          1           0       -1.822000   -2.281209   -1.070051
     38          1           0       -0.768790   -2.994708    1.102123
     39          1           0        0.061871   -1.435287    1.207517
     40          1           0        0.469596   -2.569187   -0.091460
 ---------------------------------------------------------------------

 SCF Done:  E(RHF) =  -470.732964615     A.U. after   11 cycles
 E2 =    -0.1583364139D+01 EUMP2 =    -0.47231632875322D+03

 The electronic state is 1-A.
 Alpha  occ. eigenvalues --  -11.21639 -11.21621 -11.21608 -11.21503 -11.21421
 Alpha  occ. eigenvalues --  -11.21400 -11.21362 -11.21333 -11.21111 -11.21075
 Alpha  occ. eigenvalues --  -11.21050 -11.21030  -1.08457  -1.08410  -1.03555
 Alpha  occ. eigenvalues --   -1.03508  -0.95994  -0.95973  -0.87032  -0.86970
 Alpha  occ. eigenvalues --   -0.79670  -0.79525  -0.78270  -0.78219  -0.65153
 Alpha  occ. eigenvalues --   -0.64989  -0.60957  -0.60928  -0.59460  -0.59249
 Alpha  occ. eigenvalues --   -0.57646  -0.57541  -0.55317  -0.55228  -0.52772
 Alpha  occ. eigenvalues --   -0.52630  -0.52438  -0.52359  -0.49950  -0.49904
 Alpha  occ. eigenvalues --   -0.48002  -0.47822  -0.46695  -0.46556  -0.45848
 Alpha  occ. eigenvalues --   -0.45764  -0.45690  -0.45633  -0.43795  -0.43722
 Alpha virt. eigenvalues --    0.20487   0.23216   0.23897   0.24135   0.26309
 Alpha virt. eigenvalues --    0.26353   0.27155   0.27584   0.27720   0.29430
 Alpha virt. eigenvalues --    0.30192   0.31410   0.31794   0.31863   0.32107

 Mulliken charges:
               1
     1  C   -0.297710
     2  C   -0.306297
     3  C   -0.475533
     4  H    0.149175
     5  H    0.149331
     6  H    0.160151
     7  H    0.151525
     8  H    0.154932
     9  H    0.154654
    10  H    0.160083
    11  C   -0.302083
    12  C   -0.299591
    13  C   -0.475587
    14  H    0.153265
    15  H    0.149285
    16  H    0.151946
    17  H    0.152197
    18  H    0.155157
    19  H    0.154292
    20  H    0.160468
    21  C   -0.298227
    22  C   -0.299716
    23  C   -0.475718
    24  H    0.149353
    25  H    0.149524
    26  H    0.152167
    27  H    0.151973
    28  H    0.155143
    29  H    0.155209
    30  H    0.160333
    31  C   -0.298618
    32  C   -0.301322
    33  C   -0.480101
    34  H    0.150089
    35  H    0.149874
    36  H    0.151691
    37  H    0.152035
    38  H    0.155114
    39  H    0.158547
    40  H    0.162997
 Sum of Mulliken charges =  -0.00000

 Dipole moment (field-independent basis, Debye):
    X=             -0.0182    Y=             -0.0139    Z=              0.0155  Tot=              0.0276
 Quadrupole moment (field-independent basis, Debye-Ang):
   XX=            -85.7273   YY=            -84.7287   ZZ=            -84.4044
   XY=              1.5850   XZ=              0.2846   YZ=              0.2499

 Normal termination of Gaussian 16 at Wed May  5 20:02:12 2021.
