 Gaussian 16, Revision A.03,
 Gaussian 16:  EM64L-G16RevA.03 25-Dec-2016

 -------------
 #p 6-31g* mp2
 -------------

 ------------------------------------------------------
 Input file generated by CHIRIPA (05-May-2021 14:57:26)
 ------------------------------------------------------
 Symbolic Z-matrix:
 Charge =  0 Multiplicity = 1

                         Standard orientation:
 ---------------------------------------------------------------------
 Center     Atomic      Atomic             Coordinates (Angstroms)
 Number     Number       Type             X           Y           Z
 ---------------------------------------------------------------------
      1          6           0       -2.657297   -2.331418   -0.196228
      2          6           0       -3.603097   -1.595843    0.525515
      3          6           0       -3.569897   -0.198194    0.520607
      4          6           0       -2.572615    0.434182   -0.220218
      5          6           0       -1.616283   -0.270764   -0.949442
      6          6           0       -1.668652   -1.667701   -0.930109
      7          1           0       -2.690533   -3.416868   -0.186813
      8          1           0       -4.372026   -2.108621    1.096348
      9          1           0       -4.289742    0.395904    1.070415
     10          1           0       -0.861732    0.268564   -1.509081
     11          1           0       -0.932835   -2.236375   -1.491562
     12          7           0       -2.527321    1.913433   -0.233049
     13          8           0       -1.638621    2.446778   -0.893648
     14          8           0       -3.381378    2.511516    0.417736
     15          6           0        3.504805    2.154079    0.098516
     16          6           0        2.484226    1.849547    1.005267
     17          6           0        1.964279    0.553943    1.080185
     18          6           0        2.490682   -0.417038    0.229664
     19          6           0        3.507470   -0.144739   -0.684274
     20          6           0        4.012275    1.157720   -0.741880
     21          1           0        3.902831    3.163198    0.047042
     22          1           0        2.088194    2.621324    1.659152
     23          1           0        1.174145    0.290730    1.772880
     24          1           0        3.881986   -0.935248   -1.323221
     25          1           0        4.804867    1.391346   -1.447048
     26          7           0        1.948252   -1.792265    0.299813
     27          8           0        2.429126   -2.629832   -0.460371
     28          8           0        1.052493   -2.006561    1.113648
 ---------------------------------------------------------------------

 SCF Done:  E(RHF) =  -868.339742651     A.U. after   16 cycles
 E2 =    -0.2600823776D+01 EUMP2 =    -0.87094056642696D+03

 The electronic state is 1-A.
 Alpha  occ. eigenvalues --  -20.61284 -20.61226 -20.60605 -20.60594 -15.86254
 Alpha  occ. eigenvalues --  -15.85640 -11.31329 -11.30694 -11.27870 -11.27810
 Alpha  occ. eigenvalues --  -11.27480 -11.27209 -11.27171 -11.26799 -11.26772
 Alpha  occ. eigenvalues --  -11.26706 -11.26160 -11.26046  -1.60336  -1.59689
 Alpha  occ. eigenvalues --   -1.39889  -1.39248  -1.19455  -1.18798  -1.08902
 Alpha  occ. eigenvalues --   -1.08232  -1.04795  -1.04160  -0.95791  -0.95135
 Alpha  occ. eigenvalues --   -0.86209  -0.85559  -0.82627  -0.81993  -0.77721
 Alpha  occ. eigenvalues --   -0.77100  -0.72494  -0.71866  -0.71675  -0.71014
 Alpha  occ. eigenvalues --   -0.70538  -0.69878  -0.65097  -0.64781  -0.64447
 Alpha  occ. eigenvalues --   -0.64142  -0.62147  -0.61524  -0.55290  -0.54613
 Alpha  occ. eigenvalues --   -0.53159  -0.52876  -0.52486  -0.52232  -0.49274
 Alpha  occ. eigenvalues --   -0.49237  -0.48639  -0.48591  -0.45360  -0.44723
 Alpha  occ. eigenvalues --   -0.37421  -0.36691  -0.36364  -0.35676
 Alpha virt. eigenvalues --    0.04752   0.05407   0.11162   0.12048   0.16330
 Alpha virt. eigenvalues --    0.17046   0.21475   0.22051   0.27402   0.27794
 Alpha virt. eigenvalues --    0.28327   0.28915   0.31075   0.31664   0.32472

 Mulliken charges:
               1
     1  C   -0.165723
     2  C   -0.218272
     3  C   -0.173356
     4  C    0.155905
     5  C   -0.178394
     6  C   -0.206509
     7  H    0.228890
     8  H    0.221845
     9  H    0.272242
    10  H    0.270938
    11  H    0.230915
    12  N    0.487199
    13  O   -0.465192
    14  O   -0.462671
    15  C   -0.168496
    16  C   -0.213246
    17  C   -0.170952
    18  C    0.153468
    19  C   -0.173209
    20  C   -0.218248
    21  H    0.228672
    22  H    0.229313
    23  H    0.276041
    24  H    0.273658
    25  H    0.224002
    26  N    0.484987
    27  O   -0.465587
    28  O   -0.458221
 Sum of Mulliken charges =  -0.00000

 Dipole moment (field-independent basis, Debye):
    X=              1.8919    Y=             -0.4417    Z=             -0.1112  Tot=              1.9460
 Quadrupole moment (field-independent basis, Debye-Ang):
   XX=            -90.2718   YY=           -113.6436   ZZ=           -101.4884
   XY=             25.0225   XZ=             -5.5712   YZ=              3.8670

 Normal termination of Gaussian 16 at Fri May  7 03:32:12 2021.
