 Gaussian 16, Revision A.03,
 Gaussian 16:  EM64L-G16RevA.03 25-Dec-2016

 -------------
 #p 6-31g* mp2
 -------------

 ------------------------------------------------------
 Input file generated by CHIRIPA (05-May-2021 14:55:21)
 ------------------------------------------------------
 Symbolic Z-matrix:
 Charge =  0 Multiplicity = 1

                         Standard orientation:
 ---------------------------------------------------------------------
 Center     Atomic      Atomic             Coordinates (Angstroms)
 Number     Number       Type             X           Y           Z
 ---------------------------------------------------------------------
      1          6           0       -2.798530    2.047680    0.415016
      2          6           0       -1.647743    1.488524    0.980308
      3          6           0       -1.372136    0.126321    0.828674
      4          6           0       -2.272996   -0.650891    0.102255
      5          6           0       -3.427981   -0.123192   -0.472926
      6          6           0       -3.683416    1.241459   -0.308521
      7          1           0       -3.004794    3.106822    0.537770
      8          1           0       -0.958751    2.112236    1.542729
      9          1           0       -0.488672   -0.332503    1.255744
     10          1           0       -4.096065   -0.770323   -1.028175
     11          1           0       -4.577912    1.672988   -0.748640
     12          7           0       -1.991900   -2.094289   -0.065033
     13          8           0       -2.801377   -2.757583   -0.709568
     14          8           0       -0.967423   -2.535001    0.451549
     15          6           0        3.163628   -0.161776   -0.428420
     16          6           0        4.100233   -0.924377    0.509236
     17          6           0        4.481144   -2.303812   -0.029150
     18          1           0        2.254763   -0.756843   -0.592138
     19          1           0        3.646888   -0.052964   -1.409245
     20          1           0        3.615916   -1.030510    1.488414
     21          1           0        5.006891   -0.327339    0.670892
     22          1           0        4.987337   -2.213786   -0.995724
     23          1           0        3.588460   -2.920953   -0.173558
     24          1           0        5.151084   -2.831535    0.656814
     25          6           0        2.773840    1.219059    0.096065
     26          6           0        1.837235    1.981659   -0.841591
     27          6           0        1.456325    3.361095   -0.303205
     28          1           0        2.290581    1.110246    1.076888
     29          1           0        3.682706    1.814127    0.259783
     30          1           0        0.930578    1.384622   -1.003248
     31          1           0        2.321552    2.087794   -1.820769
     32          1           0        2.349009    3.978235   -0.158798
     33          1           0        0.950131    3.271069    0.663369
     34          1           0        0.786384    3.888818   -0.989170
 ---------------------------------------------------------------------

 SCF Done:  E(RHF) =  -669.535255226     A.U. after   15 cycles
 E2 =    -0.2093212565D+01 EUMP2 =    -0.67162846779168D+03

 The electronic state is 1-A.
 Alpha  occ. eigenvalues --  -20.60862 -20.60854 -15.85910 -11.31269 -11.27834
 Alpha  occ. eigenvalues --  -11.27822 -11.27552 -11.26839 -11.26822 -11.21932
 Alpha  occ. eigenvalues --  -11.21734 -11.21704 -11.21483 -11.21349 -11.20742
 Alpha  occ. eigenvalues --   -1.59932  -1.39486  -1.19440  -1.08831  -1.08590
 Alpha  occ. eigenvalues --   -1.04846  -1.03664  -0.96142  -0.95666  -0.87160
 Alpha  occ. eigenvalues --   -0.86230  -0.82502  -0.79758  -0.78351  -0.77557
 Alpha  occ. eigenvalues --   -0.72127  -0.71254  -0.70536  -0.65299  -0.65074
 Alpha  occ. eigenvalues --   -0.64851  -0.62227  -0.61016  -0.59540  -0.57724
 Alpha  occ. eigenvalues --   -0.55505  -0.55306  -0.53154  -0.52946  -0.52822
 Alpha  occ. eigenvalues --   -0.52508  -0.50066  -0.48884  -0.48880  -0.48055
 Alpha  occ. eigenvalues --   -0.46792  -0.45906  -0.45794  -0.44885  -0.43922
 Alpha  occ. eigenvalues --   -0.37404  -0.36396
 Alpha virt. eigenvalues --    0.04949   0.11136   0.16371   0.19279   0.22925
 Alpha virt. eigenvalues --    0.23995   0.25551   0.26222   0.27328   0.28727
 Alpha virt. eigenvalues --    0.29276   0.30554   0.31364   0.32033   0.32665

 Mulliken charges:
               1
     1  C   -0.172082
     2  C   -0.216350
     3  C   -0.174361
     4  C    0.158366
     5  C   -0.170855
     6  C   -0.218422
     7  H    0.226506
     8  H    0.227270
     9  H    0.277062
    10  H    0.275826
    11  H    0.223828
    12  N    0.488319
    13  O   -0.459642
    14  O   -0.461417
    15  C   -0.302141
    16  C   -0.298741
    17  C   -0.477753
    18  H    0.157729
    19  H    0.150419
    20  H    0.151250
    21  H    0.149962
    22  H    0.153871
    23  H    0.164208
    24  H    0.159839
    25  C   -0.297645
    26  C   -0.304781
    27  C   -0.474137
    28  H    0.139933
    29  H    0.151024
    30  H    0.156932
    31  H    0.155106
    32  H    0.158158
    33  H    0.142539
    34  H    0.160178
 Sum of Mulliken charges =  -0.00000

 Dipole moment (field-independent basis, Debye):
    X=             -1.0154    Y=              4.9747    Z=              0.4901  Tot=              5.1009
 Quadrupole moment (field-independent basis, Debye-Ang):
   XX=            -86.1933   YY=           -102.8642   ZZ=            -93.7097
   XY=            -10.1648   XZ=              0.6505   YZ=             -0.1032

 Normal termination of Gaussian 16 at Wed May  5 15:56:51 2021.
