 Gaussian 16, Revision A.03,
 Gaussian 16:  EM64L-G16RevA.03 25-Dec-2016

 -------------
 #p 6-31g* mp2
 -------------

 ------------------------------------------------------
 Input file generated by CHIRIPA (05-May-2021 14:55:19)
 ------------------------------------------------------
 Symbolic Z-matrix:
 Charge =  0 Multiplicity = 1

                         Standard orientation:
 ---------------------------------------------------------------------
 Center     Atomic      Atomic             Coordinates (Angstroms)
 Number     Number       Type             X           Y           Z
 ---------------------------------------------------------------------
      1          6           0       -2.497604   -2.143268    1.124330
      2          6           0       -1.849764   -1.703488   -0.034729
      3          6           0       -2.156212   -0.457634   -0.590144
      4          6           0       -3.119935    0.326223    0.042386
      5          6           0       -3.782726   -0.084057    1.198097
      6          6           0       -3.460320   -1.333577    1.735965
      7          1           0       -2.253349   -3.112501    1.548975
      8          1           0       -1.101686   -2.330191   -0.511874
      9          1           0       -1.669970   -0.092568   -1.486645
     10          1           0       -4.524018    0.562949    1.651184
     11          1           0       -3.965043   -1.672537    2.636190
     12          7           0       -3.452805    1.647094   -0.536320
     13          8           0       -4.305586    2.318865    0.039982
     14          8           0       -2.854624    1.985609   -1.555252
     15          6           0        3.578949   -0.372705   -0.816806
     16          6           0        2.464354   -1.389795   -0.569437
     17          6           0        1.784996   -1.847974   -1.860305
     18          1           0        3.162546    0.497463   -1.342506
     19          1           0        4.327161   -0.815309   -1.488875
     20          1           0        1.719166   -0.945899    0.103070
     21          1           0        2.883421   -2.257559   -0.044095
     22          1           0        2.511416   -2.315210   -2.533064
     23          1           0        1.340547   -0.996097   -2.385062
     24          1           0        0.991494   -2.574746   -1.660260
     25          6           0        4.267641    0.094873    0.464132
     26          6           0        5.382236    1.111963    0.216763
     27          6           0        6.061593    1.570142    1.507630
     28          1           0        3.519430    0.537477    1.136202
     29          1           0        4.684044   -0.775296    0.989832
     30          1           0        4.963169    1.979727   -0.308580
     31          1           0        6.127423    0.668066   -0.455744
     32          1           0        6.506043    0.718265    2.032389
     33          1           0        5.335173    2.037378    2.180389
     34          1           0        6.855096    2.296915    1.307586
 ---------------------------------------------------------------------

 SCF Done:  E(RHF) =  -669.535613348     A.U. after   15 cycles
 E2 =    -0.2091320226D+01 EUMP2 =    -0.67162693357333D+03

 The electronic state is 1-A.
 Alpha  occ. eigenvalues --  -20.60759 -20.60753 -15.85812 -11.31167 -11.27740
 Alpha  occ. eigenvalues --  -11.27726 -11.27472 -11.26753 -11.26709 -11.22246
 Alpha  occ. eigenvalues --  -11.21992 -11.21804 -11.21790 -11.21664 -11.21218
 Alpha  occ. eigenvalues --   -1.59834  -1.39388  -1.19339  -1.08835  -1.08734
 Alpha  occ. eigenvalues --   -1.04740  -1.03985  -0.96451  -0.95572  -0.87471
 Alpha  occ. eigenvalues --   -0.86136  -0.82402  -0.80051  -0.78605  -0.77453
 Alpha  occ. eigenvalues --   -0.72030  -0.71158  -0.70447  -0.65461  -0.64988
 Alpha  occ. eigenvalues --   -0.64770  -0.62156  -0.61346  -0.59840  -0.58045
 Alpha  occ. eigenvalues --   -0.55721  -0.55235  -0.53282  -0.53067  -0.52969
 Alpha  occ. eigenvalues --   -0.52599  -0.50371  -0.48788  -0.48785  -0.48364
 Alpha  occ. eigenvalues --   -0.47063  -0.46157  -0.46049  -0.44796  -0.44228
 Alpha  occ. eigenvalues --   -0.37320  -0.36335
 Alpha virt. eigenvalues --    0.05068   0.11293   0.16501   0.19689   0.22752
 Alpha virt. eigenvalues --    0.23817   0.25976   0.26103   0.26789   0.27780
 Alpha virt. eigenvalues --    0.29117   0.29790   0.31194   0.31634   0.32310

 Mulliken charges:
               1
     1  C   -0.172313
     2  C   -0.222772
     3  C   -0.174535
     4  C    0.158680
     5  C   -0.171022
     6  C   -0.218544
     7  H    0.226014
     8  H    0.232101
     9  H    0.276418
    10  H    0.275484
    11  H    0.223301
    12  N    0.488129
    13  O   -0.460557
    14  O   -0.460639
    15  C   -0.299068
    16  C   -0.302433
    17  C   -0.480265
    18  H    0.153281
    19  H    0.150631
    20  H    0.153363
    21  H    0.152056
    22  H    0.161564
    23  H    0.158036
    24  H    0.149858
    25  C   -0.298842
    26  C   -0.300306
    27  C   -0.476029
    28  H    0.150937
    29  H    0.149009
    30  H    0.154197
    31  H    0.152090
    32  H    0.154641
    33  H    0.156053
    34  H    0.161481
 Sum of Mulliken charges =  -0.00000

 Dipole moment (field-independent basis, Debye):
    X=              1.3276    Y=             -4.5970    Z=              2.0374  Tot=              5.2005
 Quadrupole moment (field-independent basis, Debye-Ang):
   XX=            -99.7248   YY=            -98.0686   ZZ=            -92.9107
   XY=             13.7804   XZ=             -9.9119   YZ=              0.7248

 Normal termination of Gaussian 16 at Thu May  6 10:48:45 2021.
