 Gaussian 16, Revision A.03,
 Gaussian 16:  EM64L-G16RevA.03 25-Dec-2016

 -------------
 #p 6-31g* mp2
 -------------

 ------------------------------------------------------
 Input file generated by CHIRIPA (05-May-2021 14:53:16)
 ------------------------------------------------------
 Symbolic Z-matrix:
 Charge =  0 Multiplicity = 1

                         Standard orientation:
 ---------------------------------------------------------------------
 Center     Atomic      Atomic             Coordinates (Angstroms)
 Number     Number       Type             X           Y           Z
 ---------------------------------------------------------------------
      1          6           0        3.766918    0.024495   -0.298930
      2          6           0        3.923747   -1.223635    0.570301
      3          6           0        5.344005   -1.789190    0.541856
      4          1           0        4.045328   -0.219457   -1.333300
      5          1           0        4.475137    0.792053    0.042649
      6          1           0        3.214479   -1.988116    0.228067
      7          1           0        3.644748   -0.976732    1.602684
      8          1           0        6.061949   -1.045915    0.903378
      9          1           0        5.629235   -2.063045   -0.479049
     10          1           0        5.433659   -2.680999    1.169948
     11          6           0        2.352567    0.601565   -0.280807
     12          6           0        2.195739    1.849695   -1.150037
     13          6           0        0.775481    2.415251   -1.121593
     14          1           0        1.644349   -0.165993   -0.622385
     15          1           0        2.074158    0.845517    0.753563
     16          1           0        2.474737    1.602793   -2.182420
     17          1           0        2.905006    2.614176   -0.807803
     18          1           0        0.490250    2.689105   -0.100687
     19          1           0        0.057536    1.671976   -1.483115
     20          1           0        0.685827    3.307060   -1.749684
     21          6           0       -2.916506   -1.768054   -1.714703
     22          6           0       -2.787846   -2.295634   -0.425663
     23          6           0       -2.496524   -1.460903    0.657344
     24          6           0       -2.339565   -0.097269    0.414124
     25          6           0       -2.461588    0.458447   -0.858503
     26          6           0       -2.753254   -0.395117   -1.926636
     27          1           0       -3.142945   -2.423808   -2.550232
     28          1           0       -2.914103   -3.361481   -0.258108
     29          1           0       -2.391482   -1.842802    1.665578
     30          1           0       -2.330182    1.525085   -0.994281
     31          1           0       -2.852602    0.017391   -2.926642
     32          7           0       -2.030972    0.796393    1.552782
     33          8           0       -1.897375    1.994254    1.312121
     34          8           0       -1.928540    0.282062    2.664360
 ---------------------------------------------------------------------

 SCF Done:  E(RHF) =  -669.535177932     A.U. after   15 cycles
 E2 =    -0.2093077750D+01 EUMP2 =    -0.67162825568233D+03

 The electronic state is 1-A.
 Alpha  occ. eigenvalues --  -20.60853 -20.60843 -15.85882 -11.31215 -11.27801
 Alpha  occ. eigenvalues --  -11.27759 -11.27543 -11.26802 -11.26792 -11.21422
 Alpha  occ. eigenvalues --  -11.21295 -11.21177 -11.21079 -11.20940 -11.20576
 Alpha  occ. eigenvalues --   -1.59912  -1.39467  -1.19402  -1.08797  -1.08182
 Alpha  occ. eigenvalues --   -1.04806  -1.03274  -0.95760  -0.95604  -0.86760
 Alpha  occ. eigenvalues --   -0.86186  -0.82474  -0.79362  -0.78013  -0.77497
 Alpha  occ. eigenvalues --   -0.72111  -0.71224  -0.70518  -0.65057  -0.64849
 Alpha  occ. eigenvalues --   -0.64770  -0.62171  -0.60666  -0.59101  -0.57337
 Alpha  occ. eigenvalues --   -0.55334  -0.55001  -0.53149  -0.52924  -0.52417
 Alpha  occ. eigenvalues --   -0.52091  -0.49655  -0.48872  -0.48857  -0.47659
 Alpha  occ. eigenvalues --   -0.46378  -0.45577  -0.45466  -0.44737  -0.43537
 Alpha  occ. eigenvalues --   -0.37371  -0.36360
 Alpha virt. eigenvalues --    0.04965   0.11212   0.16413   0.21302   0.23118
 Alpha virt. eigenvalues --    0.24617   0.26645   0.27012   0.27709   0.27909
 Alpha virt. eigenvalues --    0.28997   0.30750   0.31656   0.31840   0.32331

 Mulliken charges:
               1
     1  C   -0.297859
     2  C   -0.299686
     3  C   -0.475534
     4  H    0.147402
     5  H    0.150420
     6  H    0.149305
     7  H    0.154986
     8  H    0.155864
     9  H    0.153719
    10  H    0.159562
    11  C   -0.300461
    12  C   -0.298633
    13  C   -0.487176
    14  H    0.146128
    15  H    0.155991
    16  H    0.147369
    17  H    0.152935
    18  H    0.179042
    19  H    0.144487
    20  H    0.156121
    21  C   -0.170286
    22  C   -0.218790
    23  C   -0.170696
    24  C    0.158512
    25  C   -0.170255
    26  C   -0.221005
    27  H    0.225759
    28  H    0.223548
    29  H    0.275731
    30  H    0.280463
    31  H    0.224047
    32  N    0.488358
    33  O   -0.459428
    34  O   -0.459938
 Sum of Mulliken charges =  -0.00000

 Dipole moment (field-independent basis, Debye):
    X=             -1.1839    Y=             -3.0958    Z=             -3.8485  Tot=              5.0790
 Quadrupole moment (field-independent basis, Debye-Ang):
   XX=            -91.5324   YY=            -91.1379   ZZ=            -96.1536
   XY=              8.4205   XZ=              9.4108   YZ=             -2.8763

 Normal termination of Gaussian 16 at Thu May  6 15:32:53 2021.
