 Gaussian 16, Revision A.03,
 Gaussian 16:  EM64L-G16RevA.03 25-Dec-2016

 -------------
 #p 6-31g* mp2
 -------------

 ------------------------------------------------------
 Input file generated by CHIRIPA (05-May-2021 14:55:22)
 ------------------------------------------------------
 Symbolic Z-matrix:
 Charge =  0 Multiplicity = 1

                         Standard orientation:
 ---------------------------------------------------------------------
 Center     Atomic      Atomic             Coordinates (Angstroms)
 Number     Number       Type             X           Y           Z
 ---------------------------------------------------------------------
      1          6           0        2.858114    2.154802    0.902174
      2          6           0        1.994872    1.758787   -0.124718
      3          6           0        2.025082    0.448765   -0.612035
      4          6           0        2.935220   -0.443190   -0.046921
      5          6           0        3.808074   -0.078870    0.977134
      6          6           0        3.760369    1.236329    1.448858
      7          1           0        2.827851    3.174470    1.274677
      8          1           0        1.293133    2.469945   -0.551171
      9          1           0        1.368069    0.115501   -1.406193
     10          1           0        4.496687   -0.810341    1.382324
     11          1           0        4.431957    1.541083    2.246442
     12          7           0        2.976463   -1.832792   -0.554568
     13          8           0        3.787510   -2.599564   -0.039885
     14          8           0        2.196959   -2.128877   -1.457533
     15          6           0       -3.257576    0.571598   -0.551073
     16          6           0       -2.824307    1.997002   -0.206854
     17          6           0       -1.842411    2.578430   -1.224505
     18          1           0       -2.368188   -0.070374   -0.612761
     19          1           0       -3.716702    0.566351   -1.549357
     20          1           0       -2.367385    1.999799    0.791060
     21          1           0       -3.714847    2.635615   -0.145789
     22          1           0       -2.292222    2.604728   -2.222291
     23          1           0       -0.937105    1.965299   -1.280120
     24          1           0       -1.545877    3.597975   -0.959067
     25          6           0       -4.239187   -0.023332    0.457006
     26          6           0       -4.672456   -1.448736    0.112785
     27          6           0       -5.654352   -2.030165    1.130437
     28          1           0       -3.780061   -0.018086    1.455290
     29          1           0       -5.128576    0.618641    0.518693
     30          1           0       -3.781917   -2.087348    0.051721
     31          1           0       -5.129378   -1.451532   -0.885127
     32          1           0       -6.559658   -1.417032    1.186051
     33          1           0       -5.204540   -2.056461    2.128224
     34          1           0       -5.950886   -3.049709    0.864998
 ---------------------------------------------------------------------

 SCF Done:  E(RHF) =  -669.535397000     A.U. after   15 cycles
 E2 =    -0.2091392399D+01 EUMP2 =    -0.67162678939969D+03

 The electronic state is 1-A.
 Alpha  occ. eigenvalues --  -20.60767 -20.60762 -15.85820 -11.31183 -11.27746
 Alpha  occ. eigenvalues --  -11.27739 -11.27474 -11.26764 -11.26700 -11.22173
 Alpha  occ. eigenvalues --  -11.21980 -11.21715 -11.21648 -11.21558 -11.21085
 Alpha  occ. eigenvalues --   -1.59843  -1.39396  -1.19349  -1.08750  -1.08732
 Alpha  occ. eigenvalues --   -1.04753  -1.03888  -0.96365  -0.95581  -0.87395
 Alpha  occ. eigenvalues --   -0.86143  -0.82417  -0.79965  -0.78500  -0.77463
 Alpha  occ. eigenvalues --   -0.72037  -0.71166  -0.70459  -0.65391  -0.64998
 Alpha  occ. eigenvalues --   -0.64751  -0.62179  -0.61223  -0.59762  -0.57941
 Alpha  occ. eigenvalues --   -0.55690  -0.55224  -0.53130  -0.53079  -0.52848
 Alpha  occ. eigenvalues --   -0.52717  -0.50290  -0.48794  -0.48793  -0.48271
 Alpha  occ. eigenvalues --   -0.46972  -0.46055  -0.45943  -0.44803  -0.44122
 Alpha  occ. eigenvalues --   -0.37328  -0.36347
 Alpha virt. eigenvalues --    0.05053   0.11290   0.16486   0.20069   0.22831
 Alpha virt. eigenvalues --    0.23924   0.25507   0.26635   0.26932   0.28158
 Alpha virt. eigenvalues --    0.29104   0.30588   0.31058   0.31389   0.31901

 Mulliken charges:
               1
     1  C   -0.171672
     2  C   -0.222026
     3  C   -0.173958
     4  C    0.158673
     5  C   -0.171246
     6  C   -0.218414
     7  H    0.225738
     8  H    0.230321
     9  H    0.275626
    10  H    0.275516
    11  H    0.223344
    12  N    0.488181
    13  O   -0.460462
    14  O   -0.460598
    15  C   -0.299674
    16  C   -0.299338
    17  C   -0.480253
    18  H    0.151998
    19  H    0.151144
    20  H    0.152193
    21  H    0.154511
    22  H    0.161171
    23  H    0.147959
    24  H    0.157364
    25  C   -0.298677
    26  C   -0.300727
    27  C   -0.475979
    28  H    0.149839
    29  H    0.149436
    30  H    0.155802
    31  H    0.152473
    32  H    0.154434
    33  H    0.155357
    34  H    0.161945
 Sum of Mulliken charges =  -0.00000

 Dipole moment (field-independent basis, Debye):
    X=             -0.2876    Y=              4.8585    Z=              1.8031  Tot=              5.1903
 Quadrupole moment (field-independent basis, Debye-Ang):
   XX=            -92.7616   YY=            -99.6839   ZZ=            -93.4119
   XY=             13.0528   XZ=              9.1003   YZ=             -1.6147

 Normal termination of Gaussian 16 at Thu May  6 14:13:19 2021.
