 Gaussian 16, Revision A.03,
 Gaussian 16:  EM64L-G16RevA.03 25-Dec-2016

 -------------
 #p 6-31g* mp2
 -------------

 ------------------------------------------------------
 Input file generated by CHIRIPA (05-May-2021 14:53:15)
 ------------------------------------------------------
 Symbolic Z-matrix:
 Charge =  0 Multiplicity = 1

                         Standard orientation:
 ---------------------------------------------------------------------
 Center     Atomic      Atomic             Coordinates (Angstroms)
 Number     Number       Type             X           Y           Z
 ---------------------------------------------------------------------
      1          6           0       -3.847089    1.166194    0.005810
      2          6           0       -2.394560    1.405430   -0.407603
      3          6           0       -2.051959    2.890422   -0.530961
      4          1           0       -4.513347    1.637821   -0.729454
      5          1           0       -4.035330    1.667796    0.965162
      6          1           0       -2.208732    0.902367   -1.365210
      7          1           0       -1.731685    0.933014    0.328628
      8          1           0       -2.209446    3.402707    0.423693
      9          1           0       -2.689203    3.371885   -1.279770
     10          1           0       -1.008864    3.038503   -0.827414
     11          6           0       -4.204810   -0.313503    0.133330
     12          6           0       -5.657339   -0.552739    0.546743
     13          6           0       -5.999940   -2.037731    0.670101
     14          1           0       -4.016569   -0.815105   -0.826022
     15          1           0       -3.538553   -0.785130    0.868594
     16          1           0       -6.320214   -0.080323   -0.189488
     17          1           0       -5.843168   -0.049676    1.504350
     18          1           0       -5.362696   -2.519194    1.418910
     19          1           0       -5.842453   -2.550016   -0.284553
     20          1           0       -7.043035   -2.185812    0.966554
     21          6           0        5.346527    0.540627    0.815727
     22          6           0        4.244943    1.396518    0.713337
     23          6           0        3.020396    0.923291    0.232616
     24          6           0        2.932464   -0.417550   -0.138468
     25          6           0        4.011867   -1.295058   -0.048145
     26          6           0        5.226685   -0.800065    0.435330
     27          1           0        6.294006    0.916695    1.190232
     28          1           0        4.335104    2.438187    1.008026
     29          1           0        2.151587    1.564043    0.143033
     30          1           0        3.891320   -2.328499   -0.349618
     31          1           0        6.080513   -1.467052    0.513767
     32          7           0        1.641242   -0.930055   -0.648843
     33          8           0        1.589666   -2.115513   -0.969255
     34          8           0        0.705206   -0.136592   -0.718798
 ---------------------------------------------------------------------

 SCF Done:  E(RHF) =  -669.535633690     A.U. after   15 cycles
 E2 =    -0.2091257328D+01 EUMP2 =    -0.67162689101805D+03

 The electronic state is 1-A.
 Alpha  occ. eigenvalues --  -20.60892 -20.60885 -15.85928 -11.31273 -11.27841
 Alpha  occ. eigenvalues --  -11.27837 -11.27580 -11.26852 -11.26842 -11.20816
 Alpha  occ. eigenvalues --  -11.20386 -11.20369 -11.20321 -11.20193 -11.20128
 Alpha  occ. eigenvalues --   -1.59960  -1.39515  -1.19445  -1.08845  -1.07411
 Alpha  occ. eigenvalues --   -1.04844  -1.02551  -0.95685  -0.95067  -0.86244
 Alpha  occ. eigenvalues --   -0.86090  -0.82522  -0.78601  -0.77585  -0.77140
 Alpha  occ. eigenvalues --   -0.72143  -0.71278  -0.70553  -0.65100  -0.64846
 Alpha  occ. eigenvalues --   -0.64055  -0.62192  -0.59960  -0.58418  -0.56634
 Alpha  occ. eigenvalues --   -0.55347  -0.54385  -0.53175  -0.52936  -0.51791
 Alpha  occ. eigenvalues --   -0.51478  -0.49033  -0.48931  -0.48905  -0.46894
 Alpha  occ. eigenvalues --   -0.45650  -0.45004  -0.44677  -0.44534  -0.42813
 Alpha  occ. eigenvalues --   -0.37425  -0.36447
 Alpha virt. eigenvalues --    0.04946   0.11207   0.16427   0.21105   0.23720
 Alpha virt. eigenvalues --    0.24665   0.26995   0.27633   0.27727   0.28715
 Alpha virt. eigenvalues --    0.29108   0.30621   0.31664   0.32309   0.32790

 Mulliken charges:
               1
     1  C   -0.299286
     2  C   -0.295862
     3  C   -0.476428
     4  H    0.145101
     5  H    0.143684
     6  H    0.161599
     7  H    0.161927
     8  H    0.148230
     9  H    0.151406
    10  H    0.156856
    11  C   -0.297055
    12  C   -0.298939
    13  C   -0.475027
    14  H    0.152936
    15  H    0.151240
    16  H    0.149835
    17  H    0.149018
    18  H    0.154889
    19  H    0.155856
    20  H    0.157050
    21  C   -0.170662
    22  C   -0.218611
    23  C   -0.171246
    24  C    0.157593
    25  C   -0.170722
    26  C   -0.218581
    27  H    0.225924
    28  H    0.223914
    29  H    0.276030
    30  H    0.275796
    31  H    0.223730
    32  N    0.493253
    33  O   -0.459524
    34  O   -0.463922
 Sum of Mulliken charges =  -0.00000

 Dipole moment (field-independent basis, Debye):
    X=              4.8248    Y=              1.6479    Z=              1.7303  Tot=              5.3841
 Quadrupole moment (field-independent basis, Debye-Ang):
   XX=            -69.0313   YY=            -94.0000   ZZ=            -95.1381
   XY=              1.3294   XZ=              5.1619   YZ=             -0.1577

 Normal termination of Gaussian 16 at Wed May  5 20:19:11 2021.
