 Gaussian 16, Revision A.03,
 Gaussian 16:  EM64L-G16RevA.03 25-Dec-2016

 -------------
 #p 6-31g* mp2
 -------------

 ------------------------------------------------------
 Input file generated by CHIRIPA (05-May-2021 14:57:25)
 ------------------------------------------------------
 Symbolic Z-matrix:
 Charge =  0 Multiplicity = 1

                         Standard orientation:
 ---------------------------------------------------------------------
 Center     Atomic      Atomic             Coordinates (Angstroms)
 Number     Number       Type             X           Y           Z
 ---------------------------------------------------------------------
      1          6           0       -1.402875   -0.603832    1.386845
      2          6           0       -1.646619   -1.327595    0.214976
      3          6           0       -2.828149   -1.133378   -0.506699
      4          6           0       -3.748283   -0.203245   -0.025558
      5          6           0       -3.534279    0.533183    1.138559
      6          6           0       -2.345821    0.322614    1.844090
      7          1           0       -0.482343   -0.761055    1.941189
      8          1           0       -0.916104   -2.047741   -0.142492
      9          1           0       -3.042300   -1.680170   -1.416960
     10          1           0       -4.281348    1.244147    1.469975
     11          1           0       -2.159194    0.886115    2.753860
     12          7           0       -5.002783    0.011019   -0.781018
     13          8           0       -5.797503    0.836304   -0.336089
     14          8           0       -5.167587   -0.650382   -1.803771
     15          6           0        4.750477   -1.975850   -0.126461
     16          6           0        5.265858   -0.888054   -0.838922
     17          6           0        4.604428    0.343608   -0.830815
     18          6           0        3.424649    0.452639   -0.096291
     19          6           0        2.885982   -0.612642    0.623644
     20          6           0        3.564275   -1.834921    0.601265
     21          1           0        5.270841   -2.928990   -0.138302
     22          1           0        6.186887   -0.994599   -1.404961
     23          1           0        4.981202    1.202084   -1.373474
     24          1           0        1.965844   -0.475849    1.178667
     25          1           0        3.161694   -2.678006    1.155505
     26          7           0        2.715496    1.751578   -0.080154
     27          8           0        1.677808    1.821813    0.574756
     28          8           0        3.210779    2.674854   -0.722721
 ---------------------------------------------------------------------

 SCF Done:  E(RHF) =  -868.337001525     A.U. after   16 cycles
 E2 =    -0.2600062690D+01 EUMP2 =    -0.87093706421576D+03

 The electronic state is 1-A.
 Alpha  occ. eigenvalues --  -20.61453 -20.61433 -20.60491 -20.60481 -15.86500
 Alpha  occ. eigenvalues --  -15.85542 -11.31954 -11.30891 -11.28634 -11.28457
 Alpha  occ. eigenvalues --  -11.28226 -11.27596 -11.27494 -11.27478 -11.27421
 Alpha  occ. eigenvalues --  -11.27307 -11.26572 -11.26437  -1.60513  -1.59563
 Alpha  occ. eigenvalues --   -1.40068  -1.39118  -1.20119  -1.19067  -1.09483
 Alpha  occ. eigenvalues --   -1.08483  -1.05547  -1.04471  -0.96316  -0.95323
 Alpha  occ. eigenvalues --   -0.86933  -0.85885  -0.83154  -0.82157  -0.78207
 Alpha  occ. eigenvalues --   -0.77186  -0.72721  -0.71834  -0.71766  -0.71244
 Alpha  occ. eigenvalues --   -0.70882  -0.70242  -0.65771  -0.65547  -0.64741
 Alpha  occ. eigenvalues --   -0.64502  -0.62910  -0.61828  -0.56018  -0.55068
 Alpha  occ. eigenvalues --   -0.53850  -0.53620  -0.52772  -0.52588  -0.49486
 Alpha  occ. eigenvalues --   -0.49464  -0.48523  -0.48518  -0.45453  -0.44527
 Alpha  occ. eigenvalues --   -0.38071  -0.37165  -0.37021  -0.36046
 Alpha virt. eigenvalues --    0.04342   0.05342   0.10492   0.11605   0.15835
 Alpha virt. eigenvalues --    0.16726   0.18935   0.21986   0.25216   0.27041
 Alpha virt. eigenvalues --    0.27552   0.29315   0.30349   0.30986   0.32668

 Mulliken charges:
               1
     1  C   -0.162256
     2  C   -0.218330
     3  C   -0.170437
     4  C    0.159135
     5  C   -0.170124
     6  C   -0.214190
     7  H    0.216911
     8  H    0.216923
     9  H    0.274249
    10  H    0.276066
    11  H    0.226221
    12  N    0.488140
    13  O   -0.460016
    14  O   -0.461681
    15  C   -0.170273
    16  C   -0.218087
    17  C   -0.169367
    18  C    0.159348
    19  C   -0.175370
    20  C   -0.220537
    21  H    0.228031
    22  H    0.226527
    23  H    0.278326
    24  H    0.270960
    25  H    0.221711
    26  N    0.487690
    27  O   -0.463309
    28  O   -0.456263
 Sum of Mulliken charges =  -0.00000

 Dipole moment (field-independent basis, Debye):
    X=              7.0877    Y=             -5.1592    Z=              2.5370  Tot=              9.1263
 Quadrupole moment (field-independent basis, Debye-Ang):
   XX=           -117.7712   YY=           -106.5333   ZZ=           -101.8555
   XY=            -12.6001   XZ=            -14.7103   YZ=              1.3290

 Normal termination of Gaussian 16 at Fri May  7 08:06:47 2021.
