 Gaussian 16, Revision A.03,
 Gaussian 16:  EM64L-G16RevA.03 25-Dec-2016

 -------------
 #p 6-31g* mp2
 -------------

 ------------------------------------------------------
 Input file generated by CHIRIPA (05-May-2021 14:55:23)
 ------------------------------------------------------
 Symbolic Z-matrix:
 Charge =  0 Multiplicity = 1

                         Standard orientation:
 ---------------------------------------------------------------------
 Center     Atomic      Atomic             Coordinates (Angstroms)
 Number     Number       Type             X           Y           Z
 ---------------------------------------------------------------------
      1          6           0        4.675528   -1.761041   -0.425130
      2          6           0        3.334451   -1.899490   -0.797777
      3          6           0        2.457411   -0.814317   -0.709745
      4          6           0        2.957419    0.400232   -0.242679
      5          6           0        4.288229    0.569685    0.136163
      6          6           0        5.147305   -0.529068    0.039831
      7          1           0        5.349856   -2.609304   -0.496739
      8          1           0        2.965291   -2.855064   -1.159225
      9          1           0        1.414484   -0.893694   -0.991563
     10          1           0        4.627023    1.534816    0.492754
     11          1           0        6.188309   -0.418632    0.329933
     12          7           0        2.038445    1.556244   -0.145090
     13          8           0        2.503607    2.615653    0.269536
     14          8           0        0.870392    1.381028   -0.485073
     15          6           0       -3.498256   -0.704730    0.733219
     16          6           0       -2.220302    0.025143    1.148071
     17          6           0       -1.267842   -0.860830    1.951605
     18          1           0       -4.009944   -1.074674    1.632253
     19          1           0       -3.230487   -1.589713    0.139502
     20          1           0       -2.490461    0.909254    1.739661
     21          1           0       -1.711695    0.393559    0.247957
     22          1           0       -0.969589   -1.736319    1.365801
     23          1           0       -1.752781   -1.217694    2.865982
     24          1           0       -0.360922   -0.319122    2.237803
     25          6           0       -4.460470    0.167879   -0.070788
     26          6           0       -5.738424   -0.561994   -0.485640
     27          6           0       -6.690884    0.323979   -1.289173
     28          1           0       -4.728239    1.052863    0.522928
     29          1           0       -3.948782    0.537823   -0.969821
     30          1           0       -6.247030   -0.930409    0.414475
     31          1           0       -5.468265   -1.446104   -1.077229
     32          1           0       -6.205945    0.680843   -2.203550
     33          1           0       -6.989135    1.199468   -0.703370
     34          1           0       -7.597802   -0.217729   -1.575371
 ---------------------------------------------------------------------

 SCF Done:  E(RHF) =  -669.536105928     A.U. after   15 cycles
 E2 =    -0.2091391953D+01 EUMP2 =    -0.67162749788139D+03

 The electronic state is 1-A.
 Alpha  occ. eigenvalues --  -20.60920 -20.60914 -15.85954 -11.31264 -11.27829
 Alpha  occ. eigenvalues --  -11.27825 -11.27565 -11.26835 -11.26825 -11.21153
 Alpha  occ. eigenvalues --  -11.20794 -11.20731 -11.20667 -11.20596 -11.20490
 Alpha  occ. eigenvalues --   -1.59979  -1.39536  -1.19433  -1.08839  -1.07801
 Alpha  occ. eigenvalues --   -1.04828  -1.02911  -0.95686  -0.95411  -0.86438
 Alpha  occ. eigenvalues --   -0.86228  -0.82521  -0.78967  -0.77635  -0.77517
 Alpha  occ. eigenvalues --   -0.72182  -0.71294  -0.70543  -0.65094  -0.64834
 Alpha  occ. eigenvalues --   -0.64433  -0.62179  -0.60311  -0.58766  -0.56990
 Alpha  occ. eigenvalues --   -0.55335  -0.54731  -0.53159  -0.52921  -0.52114
 Alpha  occ. eigenvalues --   -0.51833  -0.49382  -0.48938  -0.48928  -0.47286
 Alpha  occ. eigenvalues --   -0.45999  -0.45176  -0.45113  -0.44790  -0.43175
 Alpha  occ. eigenvalues --   -0.37410  -0.36426
 Alpha virt. eigenvalues --    0.04940   0.11209   0.16419   0.21071   0.23310
 Alpha virt. eigenvalues --    0.24470   0.26913   0.27442   0.27926   0.28320
 Alpha virt. eigenvalues --    0.28796   0.30876   0.31675   0.32211   0.32369

 Mulliken charges:
               1
     1  C   -0.170534
     2  C   -0.218539
     3  C   -0.169876
     4  C    0.157605
     5  C   -0.170864
     6  C   -0.218562
     7  H    0.225926
     8  H    0.223753
     9  H    0.275982
    10  H    0.275726
    11  H    0.223713
    12  N    0.492107
    13  O   -0.459070
    14  O   -0.463900
    15  C   -0.297721
    16  C   -0.306567
    17  C   -0.473486
    18  H    0.146192
    19  H    0.143678
    20  H    0.152633
    21  H    0.174944
    22  H    0.144445
    23  H    0.151613
    24  H    0.161377
    25  C   -0.298135
    26  C   -0.298953
    27  C   -0.475374
    28  H    0.150403
    29  H    0.152349
    30  H    0.150520
    31  H    0.149508
    32  H    0.155445
    33  H    0.155459
    34  H    0.158200
 Sum of Mulliken charges =  -0.00000

 Dipole moment (field-independent basis, Debye):
    X=              3.4281    Y=             -3.9073    Z=             -0.4081  Tot=              5.2140
 Quadrupole moment (field-independent basis, Debye-Ang):
   XX=            -74.0292   YY=            -97.1841   ZZ=            -94.5938
   XY=             -8.6945   XZ=             -1.0876   YZ=              2.7872

 Normal termination of Gaussian 16 at Wed May  5 22:20:16 2021.
