 Gaussian 16, Revision A.03,
 Gaussian 16:  EM64L-G16RevA.03 25-Dec-2016

 -------------
 #p 6-31g* mp2
 -------------

 ------------------------------------------------------
 Input file generated by CHIRIPA (05-May-2021 14:55:24)
 ------------------------------------------------------
 Symbolic Z-matrix:
 Charge =  0 Multiplicity = 1

                         Standard orientation:
 ---------------------------------------------------------------------
 Center     Atomic      Atomic             Coordinates (Angstroms)
 Number     Number       Type             X           Y           Z
 ---------------------------------------------------------------------
      1          6           0       -3.131782    2.599948   -0.610299
      2          6           0       -2.937067    1.596329   -1.564948
      3          6           0       -2.735740    0.270359   -1.170208
      4          6           0       -2.735156   -0.017790    0.193705
      5          6           0       -2.926363    0.959884    1.168837
      6          6           0       -3.125820    2.279088    0.751147
      7          1           0       -3.287451    3.627366   -0.925856
      8          1           0       -2.941202    1.842597   -2.622956
      9          1           0       -2.582533   -0.526247   -1.888096
     10          1           0       -2.917021    0.683663    2.216231
     11          1           0       -3.276780    3.056454    1.494759
     12          7           0       -2.523011   -1.417954    0.623747
     13          8           0       -2.526904   -1.645870    1.831503
     14          8           0       -2.356855   -2.260973   -0.255086
     15          6           0        2.921065   -0.450240   -0.559268
     16          6           0        2.371259   -1.841379   -0.242355
     17          6           0        1.121499   -2.182235   -1.054581
     18          1           0        2.140672    0.298365   -0.365558
     19          1           0        3.152137   -0.390523   -1.631851
     20          1           0        2.142590   -1.898907    0.829567
     21          1           0        3.153114   -2.586741   -0.436658
     22          1           0        1.339147   -2.152548   -2.127124
     23          1           0        0.322881   -1.460805   -0.853705
     24          1           0        0.745268   -3.181032   -0.812271
     25          6           0        4.170443   -0.094972    0.244825
     26          6           0        4.720249    1.296166   -0.072087
     27          6           0        5.970010    1.637021    0.740138
     28          1           0        3.939372   -0.154689    1.317408
     29          1           0        4.950836   -0.843578    0.051117
     30          1           0        3.938395    2.041528    0.122216
     31          1           0        4.948918    1.353694   -1.144009
     32          1           0        6.768627    0.915592    0.539262
     33          1           0        5.752362    1.607335    1.812681
     34          1           0        6.346241    2.635819    0.497829
 ---------------------------------------------------------------------

 SCF Done:  E(RHF) =  -669.535653417     A.U. after   15 cycles
 E2 =    -0.2091715913D+01 EUMP2 =    -0.67162736932999D+03

 The electronic state is 1-A.
 Alpha  occ. eigenvalues --  -20.60871 -20.60845 -15.85882 -11.31258 -11.27820
 Alpha  occ. eigenvalues --  -11.27813 -11.27561 -11.26836 -11.26823 -11.21469
 Alpha  occ. eigenvalues --  -11.21131 -11.21043 -11.20973 -11.20971 -11.20206
 Alpha  occ. eigenvalues --   -1.59921  -1.39476  -1.19427  -1.08822  -1.08100
 Alpha  occ. eigenvalues --   -1.04825  -1.03133  -0.95666  -0.95558  -0.86582
 Alpha  occ. eigenvalues --   -0.86223  -0.82487  -0.79214  -0.77910  -0.77530
 Alpha  occ. eigenvalues --   -0.72112  -0.71251  -0.70528  -0.65079  -0.64826
 Alpha  occ. eigenvalues --   -0.64736  -0.62170  -0.60537  -0.58952  -0.57171
 Alpha  occ. eigenvalues --   -0.55327  -0.54873  -0.53158  -0.52915  -0.52211
 Alpha  occ. eigenvalues --   -0.52005  -0.49562  -0.48878  -0.48863  -0.47524
 Alpha  occ. eigenvalues --   -0.46311  -0.45487  -0.45390  -0.44710  -0.43358
 Alpha  occ. eigenvalues --   -0.37406  -0.36425
 Alpha virt. eigenvalues --    0.04985   0.11161   0.16458   0.21347   0.23143
 Alpha virt. eigenvalues --    0.24648   0.26846   0.27198   0.27723   0.27960
 Alpha virt. eigenvalues --    0.28626   0.30699   0.31616   0.32037   0.32539

 Mulliken charges:
               1
     1  C   -0.170715
     2  C   -0.218514
     3  C   -0.171826
     4  C    0.157389
     5  C   -0.171192
     6  C   -0.218553
     7  H    0.225919
     8  H    0.223997
     9  H    0.276999
    10  H    0.275708
    11  H    0.223687
    12  N    0.487970
    13  O   -0.459789
    14  O   -0.456617
    15  C   -0.297424
    16  C   -0.301691
    17  C   -0.471879
    18  H    0.146393
    19  H    0.147159
    20  H    0.154553
    21  H    0.150199
    22  H    0.147470
    23  H    0.150238
    24  H    0.172955
    25  C   -0.297903
    26  C   -0.298994
    27  C   -0.475452
    28  H    0.149975
    29  H    0.149816
    30  H    0.149764
    31  H    0.150900
    32  H    0.155544
    33  H    0.155172
    34  H    0.158742
 Sum of Mulliken charges =  -0.00000

 Dipole moment (field-independent basis, Debye):
    X=             -0.9139    Y=              4.8324    Z=             -1.4829  Tot=              5.1368
 Quadrupole moment (field-independent basis, Debye-Ang):
   XX=            -92.3510   YY=            -94.7442   ZZ=            -90.6116
   XY=            -14.5176   XZ=              2.8749   YZ=              2.5772

 Normal termination of Gaussian 16 at Thu May  6 07:55:39 2021.
