 Gaussian 16, Revision A.03,
 Gaussian 16:  EM64L-G16RevA.03 25-Dec-2016

 -------------
 #p 6-31g* mp2
 -------------

 ------------------------------------------------------
 Input file generated by CHIRIPA (05-May-2021 14:51:09)
 ------------------------------------------------------
 Symbolic Z-matrix:
 Charge =  0 Multiplicity = 1

                         Standard orientation:
 ---------------------------------------------------------------------
 Center     Atomic      Atomic             Coordinates (Angstroms)
 Number     Number       Type             X           Y           Z
 ---------------------------------------------------------------------
      1          6           0       -3.681531   -0.489040   -0.426274
      2          6           0       -2.888910   -1.787520   -0.272362
      3          6           0       -3.741105   -3.032972   -0.518136
      4          1           0       -4.528886   -0.499099    0.272893
      5          1           0       -4.110700   -0.447214   -1.436947
      6          1           0       -2.460214   -1.826236    0.737260
      7          1           0       -2.043233   -1.774285   -0.971841
      8          1           0       -4.157302   -3.021316   -1.530680
      9          1           0       -4.576652   -3.073562    0.188133
     10          1           0       -3.154651   -3.949846   -0.402924
     11          6           0       -2.843250    0.764810   -0.183640
     12          6           0       -3.635871    2.063290   -0.337552
     13          6           0       -2.783675    3.308742   -0.091778
     14          1           0       -2.414081    0.722984    0.827033
     15          1           0       -1.995895    0.774869   -0.882806
     16          1           0       -4.481548    2.050055    0.361927
     17          1           0       -4.064566    2.102006   -1.347174
     18          1           0       -1.948128    3.349332   -0.798046
     19          1           0       -2.367479    3.297086    0.920766
     20          1           0       -3.370129    4.225616   -0.206990
     21          6           0        2.540700   -0.386959    0.328551
     22          6           0        1.829117   -0.060263    1.641908
     23          6           0        0.386194   -0.564985    1.673909
     24          1           0        1.977909    0.054011   -0.505568
     25          1           0        2.528236   -1.474720    0.173578
     26          1           0        1.844133    1.026448    1.795041
     27          1           0        2.393772   -0.501901    2.473014
     28          1           0        0.355334   -1.651878    1.546191
     29          1           0       -0.197428   -0.114845    0.864366
     30          1           0       -0.103638   -0.320716    2.621674
     31          6           0        3.984081    0.111189    0.281363
     32          6           0        4.695664   -0.215507   -1.031993
     33          6           0        6.138586    0.289215   -1.063996
     34          1           0        3.996543    1.198951    0.436336
     35          1           0        4.546872   -0.329781    1.115483
     36          1           0        4.131009    0.226131   -1.863099
     37          1           0        4.680648   -1.302218   -1.185126
     38          1           0        6.722209   -0.160925   -0.254453
     39          1           0        6.169447    1.376108   -0.936277
     40          1           0        6.628419    0.044946   -2.011759
 ---------------------------------------------------------------------

 SCF Done:  E(RHF) =  -470.732366069     A.U. after   11 cycles
 E2 =    -0.1583723004D+01 EUMP2 =    -0.47231608907242D+03

 The electronic state is 1-A.
 Alpha  occ. eigenvalues --  -11.21601 -11.21588 -11.21532 -11.21515 -11.21379
 Alpha  occ. eigenvalues --  -11.21377 -11.21320 -11.21317 -11.21091 -11.21061
 Alpha  occ. eigenvalues --  -11.21025 -11.20907  -1.08435  -1.08378  -1.03511
 Alpha  occ. eigenvalues --   -1.03482  -0.95993  -0.95914  -0.86988  -0.86959
 Alpha  occ. eigenvalues --   -0.79614  -0.79555  -0.78329  -0.78093  -0.65061
 Alpha  occ. eigenvalues --   -0.65012  -0.60930  -0.60868  -0.59339  -0.59304
 Alpha  occ. eigenvalues --   -0.57637  -0.57514  -0.55318  -0.55167  -0.52731
 Alpha  occ. eigenvalues --   -0.52614  -0.52410  -0.52324  -0.49981  -0.49827
 Alpha  occ. eigenvalues --   -0.47992  -0.47834  -0.46698  -0.46561  -0.45935
 Alpha  occ. eigenvalues --   -0.45724  -0.45673  -0.45265  -0.43768  -0.43725
 Alpha virt. eigenvalues --    0.22122   0.23066   0.24144   0.24234   0.25651
 Alpha virt. eigenvalues --    0.25935   0.26966   0.27784   0.27891   0.29743
 Alpha virt. eigenvalues --    0.30675   0.31389   0.31561   0.31824   0.32154

 Mulliken charges:
               1
     1  C   -0.297617
     2  C   -0.303125
     3  C   -0.475662
     4  H    0.149356
     5  H    0.149070
     6  H    0.157934
     7  H    0.151684
     8  H    0.154798
     9  H    0.154888
    10  H    0.159985
    11  C   -0.303782
    12  C   -0.298720
    13  C   -0.475914
    14  H    0.155775
    15  H    0.148368
    16  H    0.151986
    17  H    0.151765
    18  H    0.154593
    19  H    0.155242
    20  H    0.160432
    21  C   -0.298180
    22  C   -0.300249
    23  C   -0.482937
    24  H    0.149129
    25  H    0.149410
    26  H    0.151541
    27  H    0.151226
    28  H    0.154757
    29  H    0.166987
    30  H    0.157480
    31  C   -0.298231
    32  C   -0.299587
    33  C   -0.475683
    34  H    0.149527
    35  H    0.149648
    36  H    0.151724
    37  H    0.151858
    38  H    0.155179
    39  H    0.155183
    40  H    0.160159
 Sum of Mulliken charges =  -0.00000

 Dipole moment (field-independent basis, Debye):
    X=             -0.0320    Y=              0.0022    Z=              0.0043  Tot=              0.0324
 Quadrupole moment (field-independent basis, Debye-Ang):
   XX=            -86.0904   YY=            -85.1273   ZZ=            -83.7830
   XY=             -1.0919   XZ=             -0.1169   YZ=             -0.4779

 Normal termination of Gaussian 16 at Wed May  5 16:39:50 2021.
