 Gaussian 16, Revision A.03,
 Gaussian 16:  EM64L-G16RevA.03 25-Dec-2016

 -------------
 #p 6-31g* mp2
 -------------

 ------------------------------------------------------
 Input file generated by CHIRIPA (05-May-2021 14:51:13)
 ------------------------------------------------------
 Symbolic Z-matrix:
 Charge =  0 Multiplicity = 1

                         Standard orientation:
 ---------------------------------------------------------------------
 Center     Atomic      Atomic             Coordinates (Angstroms)
 Number     Number       Type             X           Y           Z
 ---------------------------------------------------------------------
      1          6           0        2.128783   -1.285012    0.424137
      2          6           0        1.484224   -2.359785   -0.451872
      3          6           0        0.784643   -3.446802    0.364692
      4          1           0        2.851796   -1.758687    1.102243
      5          1           0        1.357243   -0.828313    1.059390
      6          1           0        2.256503   -2.813366   -1.086274
      7          1           0        0.762799   -1.883473   -1.128104
      8          1           0       -0.005652   -3.013284    0.986059
      9          1           0        1.496538   -3.948460    1.028127
     10          1           0        0.330862   -4.204782   -0.281380
     11          6           0        2.832088   -0.191351   -0.377732
     12          6           0        3.476647    0.883422    0.498277
     13          6           0        4.176228    1.970438   -0.318287
     14          1           0        3.603628   -0.648050   -1.012985
     15          1           0        2.109075    0.282323   -1.055838
     16          1           0        4.198072    0.407110    1.174509
     17          1           0        2.704368    1.337003    1.132679
     18          1           0        3.464333    2.472097   -0.981722
     19          1           0        4.966523    1.536920   -0.939654
     20          1           0        4.630009    2.728418    0.327785
     21          6           0       -3.014449    0.202217    0.081698
     22          6           0       -2.542154   -1.204623   -0.286708
     23          6           0       -3.621587   -2.265881   -0.071424
     24          1           0       -3.334979    0.211077    1.132473
     25          1           0       -3.900782    0.452565   -0.517578
     26          1           0       -1.656150   -1.451705    0.312093
     27          1           0       -2.222532   -1.210087   -1.336673
     28          1           0       -4.504335   -2.046645   -0.680762
     29          1           0       -3.934735   -2.289635    0.977373
     30          1           0       -3.262648   -3.264055   -0.341002
     31          6           0       -1.946422    1.274145   -0.128103
     32          6           0       -2.418717    2.680986    0.240303
     33          6           0       -1.339284    3.742245    0.025019
     34          1           0       -1.060088    1.023799    0.471173
     35          1           0       -1.625893    1.265287   -1.178878
     36          1           0       -2.738340    2.686451    1.290268
     37          1           0       -3.304722    2.928068   -0.358499
     38          1           0       -1.026136    3.765999   -1.023778
     39          1           0       -0.456536    3.523008    0.634357
     40          1           0       -1.698223    4.740419    0.294597
 ---------------------------------------------------------------------

 SCF Done:  E(RHF) =  -470.733136448     A.U. after   11 cycles
 E2 =    -0.1584070789D+01 EUMP2 =    -0.47231720723728D+03

 The electronic state is 1-A.
 Alpha  occ. eigenvalues --  -11.21664 -11.21620 -11.21592 -11.21548 -11.21477
 Alpha  occ. eigenvalues --  -11.21408 -11.21390 -11.21327 -11.21129 -11.21089
 Alpha  occ. eigenvalues --  -11.21049 -11.21044  -1.08502  -1.08398  -1.03603
 Alpha  occ. eigenvalues --   -1.03483  -0.96040  -0.95946  -0.87042  -0.86976
 Alpha  occ. eigenvalues --   -0.79647  -0.79569  -0.78313  -0.78224  -0.65249
 Alpha  occ. eigenvalues --   -0.64929  -0.61164  -0.60770  -0.59382  -0.59315
 Alpha  occ. eigenvalues --   -0.57646  -0.57570  -0.55407  -0.55150  -0.52719
 Alpha  occ. eigenvalues --   -0.52648  -0.52458  -0.52373  -0.50036  -0.49845
 Alpha  occ. eigenvalues --   -0.48068  -0.47781  -0.46791  -0.46486  -0.46025
 Alpha  occ. eigenvalues --   -0.45893  -0.45607  -0.45468  -0.43837  -0.43757
 Alpha virt. eigenvalues --    0.19632   0.22368   0.23686   0.25035   0.25403
 Alpha virt. eigenvalues --    0.25891   0.26660   0.28202   0.28693   0.29863
 Alpha virt. eigenvalues --    0.30626   0.30986   0.31469   0.31920   0.32478

 Mulliken charges:
               1
     1  C   -0.299654
     2  C   -0.302327
     3  C   -0.477856
     4  H    0.149582
     5  H    0.149380
     6  H    0.151907
     7  H    0.155530
     8  H    0.157113
     9  H    0.155030
    10  H    0.160068
    11  C   -0.298704
    12  C   -0.299446
    13  C   -0.475815
    14  H    0.149418
    15  H    0.150939
    16  H    0.151823
    17  H    0.151130
    18  H    0.155723
    19  H    0.155074
    20  H    0.160172
    21  C   -0.297838
    22  C   -0.306873
    23  C   -0.475946
    24  H    0.149634
    25  H    0.149796
    26  H    0.159349
    27  H    0.151987
    28  H    0.155255
    29  H    0.154976
    30  H    0.161304
    31  C   -0.300377
    32  C   -0.299641
    33  C   -0.475814
    34  H    0.150281
    35  H    0.149462
    36  H    0.152198
    37  H    0.152364
    38  H    0.155114
    39  H    0.154983
    40  H    0.160701
 Sum of Mulliken charges =  -0.00000

 Dipole moment (field-independent basis, Debye):
    X=             -0.0271    Y=              0.0009    Z=             -0.0151  Tot=              0.0310
 Quadrupole moment (field-independent basis, Debye-Ang):
   XX=            -84.6647   YY=            -85.9683   ZZ=            -84.0708
   XY=             -1.5610   XZ=              0.6273   YZ=              0.3361

 Normal termination of Gaussian 16 at Wed May  5 15:21:59 2021.
