 Gaussian 16, Revision A.03,
 Gaussian 16:  EM64L-G16RevA.03 25-Dec-2016

 -------------
 #p 6-31g* mp2
 -------------

 ------------------------------------------------------
 Input file generated by CHIRIPA (05-May-2021 14:55:24)
 ------------------------------------------------------
 Symbolic Z-matrix:
 Charge =  0 Multiplicity = 1

                         Standard orientation:
 ---------------------------------------------------------------------
 Center     Atomic      Atomic             Coordinates (Angstroms)
 Number     Number       Type             X           Y           Z
 ---------------------------------------------------------------------
      1          6           0        0.615361   -1.675428    1.895938
      2          6           0        0.735585   -2.156979    0.588201
      3          6           0        1.489887   -1.458331   -0.359147
      4          6           0        2.113393   -0.276238    0.037321
      5          6           0        2.012517    0.229268    1.332534
      6          6           0        1.253087   -0.485938    2.263283
      7          1           0        0.027409   -2.224586    2.625413
      8          1           0        0.241418   -3.080472    0.300097
      9          1           0        1.599642   -1.808433   -1.378363
     10          1           0        2.516701    1.152800    1.590032
     11          1           0        1.161468   -0.109580    3.278175
     12          7           0        2.914654    0.472154   -0.956808
     13          8           0        3.454193    1.511090   -0.582447
     14          8           0        2.987971    0.005636   -2.091542
     15          6           0       -2.757536    1.203074   -0.020679
     16          6           0       -1.634998    2.240971   -0.046444
     17          6           0       -2.093478    3.619563    0.430079
     18          1           0       -3.586654    1.553325   -0.650627
     19          1           0       -3.152741    1.125937    1.001700
     20          1           0       -1.241097    2.315125   -1.068187
     21          1           0       -0.808378    1.888119    0.583486
     22          1           0       -2.467670    3.567201    1.457620
     23          1           0       -2.902847    3.996633   -0.203437
     24          1           0       -1.275348    4.346076    0.403564
     25          6           0       -2.314684   -0.180143   -0.494303
     26          6           0       -3.437222   -1.218041   -0.468539
     27          6           0       -2.978743   -2.596633   -0.945062
     28          1           0       -1.919480   -0.103007   -1.516682
     29          1           0       -1.485567   -0.530395    0.135644
     30          1           0       -4.263842   -0.865189   -1.098468
     31          1           0       -3.831124   -1.292195    0.553204
     32          1           0       -2.169374   -2.973703   -0.311545
     33          1           0       -2.604552   -2.544271   -1.972602
     34          1           0       -3.796872   -3.323146   -0.918547
 ---------------------------------------------------------------------

 SCF Done:  E(RHF) =  -669.534099900     A.U. after   15 cycles
 E2 =    -0.2095404572D+01 EUMP2 =    -0.67162950447214D+03

 The electronic state is 1-A.
 Alpha  occ. eigenvalues --  -20.60840 -20.60835 -15.85895 -11.31315 -11.27899
 Alpha  occ. eigenvalues --  -11.27842 -11.27612 -11.26935 -11.26853 -11.21972
 Alpha  occ. eigenvalues --  -11.21711 -11.21584 -11.21475 -11.21373 -11.21074
 Alpha  occ. eigenvalues --   -1.59913  -1.39465  -1.19499  -1.08893  -1.08582
 Alpha  occ. eigenvalues --   -1.04906  -1.03755  -0.96214  -0.95702  -0.87243
 Alpha  occ. eigenvalues --   -0.86296  -0.82531  -0.79823  -0.78393  -0.77565
 Alpha  occ. eigenvalues --   -0.72113  -0.71233  -0.70587  -0.65292  -0.65136
 Alpha  occ. eigenvalues --   -0.64890  -0.62266  -0.61158  -0.59585  -0.57820
 Alpha  occ. eigenvalues --   -0.55576  -0.55374  -0.53405  -0.53042  -0.52874
 Alpha  occ. eigenvalues --   -0.52564  -0.50181  -0.48876  -0.48864  -0.48151
 Alpha  occ. eigenvalues --   -0.46875  -0.45895  -0.45727  -0.44859  -0.43959
 Alpha  occ. eigenvalues --   -0.37423  -0.36403
 Alpha virt. eigenvalues --    0.04944   0.11026   0.16378   0.20453   0.22916
 Alpha virt. eigenvalues --    0.23947   0.25897   0.26613   0.27347   0.28156
 Alpha virt. eigenvalues --    0.28600   0.30162   0.31338   0.31640   0.32065

 Mulliken charges:
               1
     1  C   -0.173393
     2  C   -0.220306
     3  C   -0.168021
     4  C    0.161157
     5  C   -0.171517
     6  C   -0.217414
     7  H    0.226399
     8  H    0.227096
     9  H    0.276461
    10  H    0.276486
    11  H    0.224413
    12  N    0.488096
    13  O   -0.460057
    14  O   -0.460010
    15  C   -0.296861
    16  C   -0.302789
    17  C   -0.476044
    18  H    0.149851
    19  H    0.145611
    20  H    0.155674
    21  H    0.151045
    22  H    0.152044
    23  H    0.155865
    24  H    0.162754
    25  C   -0.309083
    26  C   -0.298791
    27  C   -0.476201
    28  H    0.149659
    29  H    0.161865
    30  H    0.154269
    31  H    0.148959
    32  H    0.143316
    33  H    0.157524
    34  H    0.161944
 Sum of Mulliken charges =  -0.00000

 Dipole moment (field-independent basis, Debye):
    X=             -2.6780    Y=             -2.6167    Z=              3.4682  Tot=              5.1036
 Quadrupole moment (field-independent basis, Debye-Ang):
   XX=           -107.4456   YY=            -92.4812   ZZ=            -91.5315
   XY=             -3.9000   XZ=              8.6529   YZ=              0.9745

 Normal termination of Gaussian 16 at Wed May  5 19:07:04 2021.
