 Gaussian 16, Revision A.03,
 Gaussian 16:  EM64L-G16RevA.03 25-Dec-2016

 -------------
 #p 6-31g* mp2
 -------------

 ------------------------------------------------------
 Input file generated by CHIRIPA (05-May-2021 14:57:22)
 ------------------------------------------------------
 Symbolic Z-matrix:
 Charge =  0 Multiplicity = 1

                         Standard orientation:
 ---------------------------------------------------------------------
 Center     Atomic      Atomic             Coordinates (Angstroms)
 Number     Number       Type             X           Y           Z
 ---------------------------------------------------------------------
      1          6           0        3.170070    2.161456   -0.210195
      2          6           0        4.117406    1.223821    0.213971
      3          6           0        3.778959   -0.128314    0.322291
      4          6           0        2.478185   -0.509628   -0.003093
      5          6           0        1.511976    0.400676   -0.428623
      6          6           0        1.872666    1.747621   -0.529575
      7          1           0        3.441623    3.209811   -0.291479
      8          1           0        5.125740    1.542344    0.462669
      9          1           0        4.492629   -0.875274    0.648087
     10          1           0        0.514750    0.052946   -0.669542
     11          1           0        1.134885    2.473591   -0.859258
     12          7           0        2.108112   -1.938325    0.107681
     13          8           0        0.955432   -2.248758   -0.184889
     14          8           0        2.977737   -2.720653    0.484978
     15          6           0       -1.882870    2.692986    0.311991
     16          6           0       -2.341306    1.955447    1.408527
     17          6           0       -2.707695    0.614554    1.259153
     18          6           0       -2.602626    0.040319   -0.006748
     19          6           0       -2.149515    0.748798   -1.118521
     20          6           0       -1.788603    2.088374   -0.945816
     21          1           0       -1.600377    3.734113    0.437090
     22          1           0       -2.415546    2.422393    2.386533
     23          1           0       -3.065813    0.020325    2.091055
     24          1           0       -2.086376    0.255882   -2.081052
     25          1           0       -1.432912    2.658719   -1.799182
     26          7           0       -2.987607   -1.378527   -0.177234
     27          8           0       -2.885868   -1.861263   -1.302957
     28          8           0       -3.383803   -1.981017    0.818090
 ---------------------------------------------------------------------

 SCF Done:  E(RHF) =  -868.334915256     A.U. after   16 cycles
 E2 =    -0.2604691938D+01 EUMP2 =    -0.87093960719425D+03

 The electronic state is 1-A.
 Alpha  occ. eigenvalues --  -20.60637 -20.60617 -20.60617 -20.60593 -15.85712
 Alpha  occ. eigenvalues --  -15.85660 -11.31621 -11.31167 -11.28252 -11.28178
 Alpha  occ. eigenvalues --  -11.28109 -11.27781 -11.27682 -11.27604 -11.27457
 Alpha  occ. eigenvalues --  -11.27303 -11.26842 -11.26832  -1.59681  -1.59677
 Alpha  occ. eigenvalues --   -1.39230  -1.39224  -1.19872  -1.19374  -1.09146
 Alpha  occ. eigenvalues --   -1.08759  -1.05367  -1.04783  -0.95886  -0.95558
 Alpha  occ. eigenvalues --   -0.86723  -0.86191  -0.82723  -0.82382  -0.77675
 Alpha  occ. eigenvalues --   -0.77398  -0.71934  -0.71880  -0.71022  -0.70975
 Alpha  occ. eigenvalues --   -0.70930  -0.70513  -0.65504  -0.65388  -0.65032
 Alpha  occ. eigenvalues --   -0.64777  -0.62676  -0.62196  -0.55807  -0.55402
 Alpha  occ. eigenvalues --   -0.53595  -0.53415  -0.53093  -0.52855  -0.48721
 Alpha  occ. eigenvalues --   -0.48649  -0.48640  -0.48618  -0.44600  -0.44512
 Alpha  occ. eigenvalues --   -0.37877  -0.37386  -0.36953  -0.36382
 Alpha virt. eigenvalues --    0.04816   0.05197   0.10477   0.11216   0.16175
 Alpha virt. eigenvalues --    0.16654   0.19934   0.21974   0.25760   0.27422
 Alpha virt. eigenvalues --    0.28346   0.28807   0.29891   0.31228   0.31943

 Mulliken charges:
               1
     1  C   -0.171841
     2  C   -0.219232
     3  C   -0.169953
     4  C    0.157823
     5  C   -0.175466
     6  C   -0.221878
     7  H    0.222594
     8  H    0.222916
     9  H    0.276217
    10  H    0.284571
    11  H    0.213937
    12  N    0.487164
    13  O   -0.456237
    14  O   -0.460256
    15  C   -0.172024
    16  C   -0.216145
    17  C   -0.168806
    18  C    0.169339
    19  C   -0.191551
    20  C   -0.224568
    21  H    0.224307
    22  H    0.226095
    23  H    0.280353
    24  H    0.280689
    25  H    0.221689
    26  N    0.491928
    27  O   -0.454786
    28  O   -0.456879
 Sum of Mulliken charges =  -0.00000

 Dipole moment (field-independent basis, Debye):
    X=              2.3160    Y=              9.6549    Z=              0.3627  Tot=              9.9354
 Quadrupole moment (field-independent basis, Debye-Ang):
   XX=           -101.2177   YY=           -110.8265   ZZ=           -100.2883
   XY=             -2.0903   XZ=             -2.3743   YZ=             -0.1841

 Normal termination of Gaussian 16 at Thu May  6 22:43:03 2021.
