 Gaussian 16, Revision A.03,
 Gaussian 16:  EM64L-G16RevA.03 25-Dec-2016

 -------------
 #p 6-31g* mp2
 -------------

 ------------------------------------------------------
 Input file generated by CHIRIPA (05-May-2021 14:53:12)
 ------------------------------------------------------
 Symbolic Z-matrix:
 Charge =  0 Multiplicity = 1

                         Standard orientation:
 ---------------------------------------------------------------------
 Center     Atomic      Atomic             Coordinates (Angstroms)
 Number     Number       Type             X           Y           Z
 ---------------------------------------------------------------------
      1          6           0       -3.562170    0.383542   -0.312728
      2          6           0       -3.587166    1.885335   -0.026407
      3          6           0       -2.319622    2.598304   -0.498427
      4          1           0       -2.685292   -0.062033    0.176653
      5          1           0       -3.431734    0.225272   -1.392233
      6          1           0       -3.718904    2.040733    1.052070
      7          1           0       -4.464192    2.327354   -0.516367
      8          1           0       -2.186285    2.472799   -1.577811
      9          1           0       -1.436763    2.184549   -0.000463
     10          1           0       -2.358717    3.670819   -0.283855
     11          6           0       -4.822513   -0.343105    0.153371
     12          6           0       -4.797517   -1.844897   -0.132950
     13          6           0       -6.065061   -2.557866    0.339070
     14          1           0       -4.952950   -0.184835    1.232876
     15          1           0       -5.699391    0.102470   -0.336010
     16          1           0       -3.920492   -2.286916    0.357010
     17          1           0       -4.665779   -2.000295   -1.211426
     18          1           0       -6.947920   -2.144111   -0.158894
     19          1           0       -6.198398   -2.432361    1.418454
     20          1           0       -6.025967   -3.630382    0.124498
     21          6           0        1.568370    1.792229    0.490584
     22          6           0        1.850916    1.392556   -0.819739
     23          6           0        2.794789    0.391766   -1.068881
     24          6           0        3.440283   -0.190589    0.020839
     25          6           0        3.180602    0.185860    1.337707
     26          6           0        2.232944    1.188669    1.563235
     27          1           0        0.833676    2.570451    0.674952
     28          1           0        1.336338    1.859532   -1.654717
     29          1           0        3.032786    0.063156   -2.073267
     30          1           0        3.709772   -0.298149    2.149577
     31          1           0        2.015534    1.497049    2.581901
     32          7           0        4.441524   -1.251150   -0.230416
     33          8           0        4.996516   -1.748584    0.746916
     34          8           0        4.652345   -1.564900   -1.399926
 ---------------------------------------------------------------------

 SCF Done:  E(RHF) =  -669.535488175     A.U. after   15 cycles
 E2 =    -0.2091229631D+01 EUMP2 =    -0.67162671780602D+03

 The electronic state is 1-A.
 Alpha  occ. eigenvalues --  -20.60754 -20.60749 -15.85807 -11.31177 -11.27740
 Alpha  occ. eigenvalues --  -11.27730 -11.27445 -11.26757 -11.26737 -11.22381
 Alpha  occ. eigenvalues --  -11.22150 -11.21974 -11.21942 -11.21821 -11.21344
 Alpha  occ. eigenvalues --   -1.59830  -1.39383  -1.19344  -1.08990  -1.08738
 Alpha  occ. eigenvalues --   -1.04744  -1.04128  -0.96604  -0.95572  -0.87630
 Alpha  occ. eigenvalues --   -0.86138  -0.82406  -0.80206  -0.78762  -0.77451
 Alpha  occ. eigenvalues --   -0.72025  -0.71153  -0.70470  -0.65620  -0.64993
 Alpha  occ. eigenvalues --   -0.64745  -0.62090  -0.61533  -0.59980  -0.58190
 Alpha  occ. eigenvalues --   -0.56013  -0.55165  -0.53300  -0.53148  -0.52942
 Alpha  occ. eigenvalues --   -0.52825  -0.50533  -0.48784  -0.48781  -0.48509
 Alpha  occ. eigenvalues --   -0.47217  -0.46314  -0.46211  -0.44788  -0.44363
 Alpha  occ. eigenvalues --   -0.37307  -0.36348
 Alpha virt. eigenvalues --    0.05042   0.11279   0.16442   0.20614   0.22465
 Alpha virt. eigenvalues --    0.23903   0.25947   0.26165   0.27140   0.27480
 Alpha virt. eigenvalues --    0.29014   0.30132   0.31176   0.31515   0.32069

 Mulliken charges:
               1
     1  C   -0.299321
     2  C   -0.298837
     3  C   -0.482922
     4  H    0.150996
     5  H    0.150251
     6  H    0.152634
     7  H    0.155080
     8  H    0.156180
     9  H    0.150347
    10  H    0.160713
    11  C   -0.298760
    12  C   -0.300211
    13  C   -0.476047
    14  H    0.149754
    15  H    0.150447
    16  H    0.153124
    17  H    0.152730
    18  H    0.155456
    19  H    0.155370
    20  H    0.161972
    21  C   -0.173180
    22  C   -0.218552
    23  C   -0.171208
    24  C    0.158692
    25  C   -0.171128
    26  C   -0.219516
    27  H    0.229347
    28  H    0.225046
    29  H    0.275571
    30  H    0.275459
    31  H    0.223336
    32  N    0.488065
    33  O   -0.460495
    34  O   -0.460395
 Sum of Mulliken charges =  -0.00000

 Dipole moment (field-independent basis, Debye):
    X=             -3.6687    Y=              3.6864    Z=              0.8723  Tot=              5.2735
 Quadrupole moment (field-independent basis, Debye-Ang):
   XX=           -119.7317   YY=            -97.3542   ZZ=            -89.1031
   XY=             12.9962   XZ=              4.5441   YZ=             -0.5355

 Normal termination of Gaussian 16 at Thu May  6 10:26:55 2021.
