 Gaussian 16, Revision A.03,
 Gaussian 16:  EM64L-G16RevA.03 25-Dec-2016

 -------------
 #p 6-31g* mp2
 -------------

 ------------------------------------------------------
 Input file generated by CHIRIPA (05-May-2021 14:51:08)
 ------------------------------------------------------
 Symbolic Z-matrix:
 Charge =  0 Multiplicity = 1

                         Standard orientation:
 ---------------------------------------------------------------------
 Center     Atomic      Atomic             Coordinates (Angstroms)
 Number     Number       Type             X           Y           Z
 ---------------------------------------------------------------------
      1          6           0       -3.192791   -0.505370   -0.076870
      2          6           0       -3.265950   -1.596867    0.991432
      3          6           0       -2.622517   -2.908771    0.541216
      4          1           0       -3.686049   -0.862492   -0.991258
      5          1           0       -2.140398   -0.327900   -0.338343
      6          1           0       -4.317809   -1.771252    1.251812
      7          1           0       -2.772629   -1.237033    1.903446
      8          1           0       -1.565458   -2.756609    0.300230
      9          1           0       -3.119418   -3.293863   -0.355107
     10          1           0       -2.686024   -3.675092    1.320048
     11          6           0       -3.831862    0.812149    0.358399
     12          6           0       -3.758703    1.903646   -0.709903
     13          6           0       -4.402136    3.215550   -0.259687
     14          1           0       -4.884255    0.634679    0.619872
     15          1           0       -3.338604    1.169270    1.272787
     16          1           0       -4.252024    1.543812   -1.621917
     17          1           0       -2.706843    2.078031   -0.970283
     18          1           0       -3.905235    3.600642    0.636636
     19          1           0       -5.459195    3.063387   -0.018701
     20          1           0       -4.338629    3.981871   -1.038519
     21          6           0        3.316387   -0.867251   -0.329024
     22          6           0        1.813505   -1.046187   -0.546535
     23          6           0        1.437151   -2.479629   -0.922560
     24          1           0        3.850209   -1.160153   -1.243457
     25          1           0        3.649794   -1.554162    0.461158
     26          1           0        1.482776   -0.358160   -1.335112
     27          1           0        1.283186   -0.752642    0.368457
     28          1           0        1.739319   -3.176669   -0.134251
     29          1           0        1.940042   -2.779944   -1.847500
     30          1           0        0.358258   -2.585026   -1.073369
     31          6           0        3.708266    0.560472    0.047495
     32          6           0        5.211148    0.739408    0.265007
     33          6           0        5.587502    2.172850    0.641032
     34          1           0        3.374858    1.247383   -0.742687
     35          1           0        3.174444    0.853374    0.961928
     36          1           0        5.741466    0.445864   -0.649986
     37          1           0        5.541877    0.051381    1.053584
     38          1           0        5.084611    2.473165    1.565971
     39          1           0        5.285334    2.869890   -0.147277
     40          1           0        6.666394    2.278248    0.791840
 ---------------------------------------------------------------------

 SCF Done:  E(RHF) =  -470.733319307     A.U. after   11 cycles
 E2 =    -0.1582573784D+01 EUMP2 =    -0.47231589309016D+03

 The electronic state is 1-A.
 Alpha  occ. eigenvalues --  -11.21661 -11.21627 -11.21590 -11.21587 -11.21442
 Alpha  occ. eigenvalues --  -11.21394 -11.21382 -11.21334 -11.21092 -11.21086
 Alpha  occ. eigenvalues --  -11.21063 -11.21029  -1.08468  -1.08417  -1.03574
 Alpha  occ. eigenvalues --   -1.03509  -0.96031  -0.95949  -0.87061  -0.86953
 Alpha  occ. eigenvalues --   -0.79642  -0.79566  -0.78282  -0.78229  -0.65105
 Alpha  occ. eigenvalues --   -0.65043  -0.61008  -0.60896  -0.59451  -0.59283
 Alpha  occ. eigenvalues --   -0.57715  -0.57496  -0.55345  -0.55209  -0.52802
 Alpha  occ. eigenvalues --   -0.52656  -0.52487  -0.52261  -0.49985  -0.49857
 Alpha  occ. eigenvalues --   -0.48002  -0.47824  -0.46664  -0.46597  -0.45835
 Alpha  occ. eigenvalues --   -0.45766  -0.45746  -0.45680  -0.43798  -0.43769
 Alpha virt. eigenvalues --    0.20906   0.23107   0.23480   0.25006   0.26264
 Alpha virt. eigenvalues --    0.26637   0.27037   0.27277   0.28070   0.28996
 Alpha virt. eigenvalues --    0.30720   0.31343   0.31687   0.31791   0.31975

 Mulliken charges:
               1
     1  C   -0.299718
     2  C   -0.299066
     3  C   -0.483145
     4  H    0.149499
     5  H    0.150746
     6  H    0.151865
     7  H    0.151575
     8  H    0.162895
     9  H    0.154846
    10  H    0.160307
    11  C   -0.298178
    12  C   -0.299721
    13  C   -0.475697
    14  H    0.149538
    15  H    0.149595
    16  H    0.151856
    17  H    0.152153
    18  H    0.155186
    19  H    0.155139
    20  H    0.160206
    21  C   -0.298286
    22  C   -0.300712
    23  C   -0.481425
    24  H    0.150023
    25  H    0.149762
    26  H    0.152087
    27  H    0.151609
    28  H    0.155428
    29  H    0.155726
    30  H    0.165815
    31  C   -0.298327
    32  C   -0.299695
    33  C   -0.475732
    34  H    0.149542
    35  H    0.149497
    36  H    0.152054
    37  H    0.152013
    38  H    0.155156
    39  H    0.155217
    40  H    0.160369
 Sum of Mulliken charges =  -0.00000

 Dipole moment (field-independent basis, Debye):
    X=              0.0234    Y=             -0.0065    Z=             -0.0089  Tot=              0.0259
 Quadrupole moment (field-independent basis, Debye-Ang):
   XX=            -84.3449   YY=            -86.6441   ZZ=            -83.7498
   XY=              0.2881   XZ=              0.1878   YZ=             -0.5516

 Normal termination of Gaussian 16 at Wed May  5 22:54:45 2021.
