 Gaussian 16, Revision A.03,
 Gaussian 16:  EM64L-G16RevA.03 25-Dec-2016

 -------------
 #p 6-31g* mp2
 -------------

 ------------------------------------------------------
 Input file generated by CHIRIPA (05-May-2021 14:57:23)
 ------------------------------------------------------
 Symbolic Z-matrix:
 Charge =  0 Multiplicity = 1

                         Standard orientation:
 ---------------------------------------------------------------------
 Center     Atomic      Atomic             Coordinates (Angstroms)
 Number     Number       Type             X           Y           Z
 ---------------------------------------------------------------------
      1          6           0       -1.585936   -2.545651    0.160290
      2          6           0       -2.024168   -1.966671   -1.035224
      3          6           0       -2.517516   -0.658662   -1.051636
      4          6           0       -2.558628    0.044730    0.151210
      5          6           0       -2.129389   -0.504472    1.358447
      6          6           0       -1.639850   -1.813994    1.351211
      7          1           0       -1.204170   -3.562331    0.163854
      8          1           0       -1.983464   -2.532520   -1.961617
      9          1           0       -2.863296   -0.186038   -1.962943
     10          1           0       -2.182248    0.084520    2.266033
     11          1           0       -1.300195   -2.261080    2.281154
     12          7           0       -3.078898    1.430261    0.146354
     13          8           0       -3.104748    2.028908    1.219476
     14          8           0       -3.450984    1.891359   -0.930483
     15          6           0        2.623659    2.702040   -0.124440
     16          6           0        1.764583    2.062023   -1.023822
     17          6           0        1.672941    0.667188   -1.047935
     18          6           0        2.458305   -0.059849   -0.154676
     19          6           0        3.323628    0.548642    0.753203
     20          6           0        3.399073    1.944642    0.759643
     21          1           0        2.688558    3.786034   -0.112572
     22          1           0        1.161203    2.647679   -1.711561
     23          1           0        1.016170    0.145968   -1.733792
     24          1           0        3.912631   -0.062044    1.426669
     25          1           0        4.067112    2.438988    1.459207
     26          7           0        2.369861   -1.537116   -0.170849
     27          8           0        3.072299   -2.154946    0.626336
     28          8           0        1.599775   -2.049195   -0.980403
 ---------------------------------------------------------------------

 SCF Done:  E(RHF) =  -868.340170578     A.U. after   16 cycles
 E2 =    -0.2600747644D+01 EUMP2 =    -0.87094091822154D+03

 The electronic state is 1-A.
 Alpha  occ. eigenvalues --  -20.61240 -20.61223 -20.60713 -20.60700 -15.86251
 Alpha  occ. eigenvalues --  -15.85756 -11.31338 -11.30841 -11.27890 -11.27850
 Alpha  occ. eigenvalues --  -11.27533 -11.27411 -11.27403 -11.26917 -11.26832
 Alpha  occ. eigenvalues --  -11.26768 -11.26253 -11.26238  -1.60301  -1.59797
 Alpha  occ. eigenvalues --   -1.39863  -1.39357  -1.19479  -1.18980  -1.08921
 Alpha  occ. eigenvalues --   -1.08372  -1.04839  -1.04351  -0.95810  -0.95265
 Alpha  occ. eigenvalues --   -0.86244  -0.85730  -0.82657  -0.82124  -0.77739
 Alpha  occ. eigenvalues --   -0.77244  -0.72512  -0.71975  -0.71614  -0.71126
 Alpha  occ. eigenvalues --   -0.70574  -0.69985  -0.65133  -0.64829  -0.64606
 Alpha  occ. eigenvalues --   -0.64311  -0.62193  -0.61714  -0.55334  -0.54718
 Alpha  occ. eigenvalues --   -0.53193  -0.52951  -0.52641  -0.52415  -0.49266
 Alpha  occ. eigenvalues --   -0.49230  -0.48749  -0.48704  -0.45337  -0.44829
 Alpha  occ. eigenvalues --   -0.37449  -0.36801  -0.36385  -0.35971
 Alpha virt. eigenvalues --    0.04672   0.05375   0.11225   0.11706   0.16298
 Alpha virt. eigenvalues --    0.16943   0.21387   0.22005   0.27252   0.27774
 Alpha virt. eigenvalues --    0.28285   0.28925   0.30995   0.31650   0.32325

 Mulliken charges:
               1
     1  C   -0.154517
     2  C   -0.213483
     3  C   -0.180496
     4  C    0.156122
     5  C   -0.172167
     6  C   -0.225294
     7  H    0.234984
     8  H    0.225699
     9  H    0.271301
    10  H    0.272930
    11  H    0.224866
    12  N    0.487885
    13  O   -0.462276
    14  O   -0.465196
    15  C   -0.168934
    16  C   -0.218809
    17  C   -0.170031
    18  C    0.157601
    19  C   -0.171984
    20  C   -0.218643
    21  H    0.228788
    22  H    0.229016
    23  H    0.273717
    24  H    0.274093
    25  H    0.224068
    26  N    0.488528
    27  O   -0.462457
    28  O   -0.465313
 Sum of Mulliken charges =  -0.00000

 Dipole moment (field-independent basis, Debye):
    X=              2.2985    Y=              0.1526    Z=              0.0646  Tot=              2.3044
 Quadrupole moment (field-independent basis, Debye-Ang):
   XX=           -112.2678   YY=           -106.0428   ZZ=            -97.7716
   XY=             26.3272   XZ=              4.1208   YZ=             -1.4185

 Normal termination of Gaussian 16 at Thu May  6 01:49:31 2021.
