 Gaussian 16, Revision A.03,
 Gaussian 16:  EM64L-G16RevA.03 25-Dec-2016

 -------------
 #p 6-31g* mp2
 -------------

 ------------------------------------------------------
 Input file generated by CHIRIPA (05-May-2021 14:57:27)
 ------------------------------------------------------
 Symbolic Z-matrix:
 Charge =  0 Multiplicity = 1

                         Standard orientation:
 ---------------------------------------------------------------------
 Center     Atomic      Atomic             Coordinates (Angstroms)
 Number     Number       Type             X           Y           Z
 ---------------------------------------------------------------------
      1          6           0       -4.054261    2.472638    0.265681
      2          6           0       -3.598211    2.043199   -0.984968
      3          6           0       -3.151126    0.730913   -1.165428
      4          6           0       -3.173941   -0.129201   -0.068626
      5          6           0       -3.622440    0.268821    1.189832
      6          6           0       -4.064901    1.585642    1.347183
      7          1           0       -4.399771    3.493815    0.396891
      8          1           0       -3.588818    2.729867   -1.826659
      9          1           0       -2.792884    0.372127   -2.122692
     10          1           0       -3.619900   -0.438705    2.010087
     11          1           0       -4.418531    1.916390    2.319600
     12          7           0       -2.703079   -1.520860   -0.247439
     13          8           0       -2.733229   -2.259184    0.734704
     14          8           0       -2.312785   -1.846967   -1.366350
     15          6           0        1.295891   -1.693814    0.079386
     16          6           0        1.971089   -1.384219    1.264621
     17          6           0        3.056001   -0.502513    1.254185
     18          6           0        3.440610    0.053907    0.035267
     19          6           0        2.788127   -0.234794   -1.162318
     20          6           0        1.705843   -1.119127   -1.128171
     21          1           0        0.454127   -2.379764    0.096703
     22          1           0        1.654919   -1.829034    2.203888
     23          1           0        3.596568   -0.245403    2.157014
     24          1           0        3.126530    0.224364   -2.083228
     25          1           0        1.183348   -1.357736   -2.050185
     26          7           0        4.587767    0.988719    0.011668
     27          8           0        4.906996    1.465634   -1.075201
     28          8           0        5.145957    1.226811    1.080486
 ---------------------------------------------------------------------

 SCF Done:  E(RHF) =  -868.340905183     A.U. after   16 cycles
 E2 =    -0.2598942300D+01 EUMP2 =    -0.87093984748286D+03

 The electronic state is 1-A.
 Alpha  occ. eigenvalues --  -20.61961 -20.61942 -20.60378 -20.60373 -15.86959
 Alpha  occ. eigenvalues --  -15.85426 -11.31941 -11.30611 -11.28469 -11.28463
 Alpha  occ. eigenvalues --  -11.28121 -11.27384 -11.27374 -11.27172 -11.27150
 Alpha  occ. eigenvalues --  -11.26630 -11.26075 -11.26004  -1.61021  -1.59459
 Alpha  occ. eigenvalues --   -1.40579  -1.39018  -1.20075  -1.18743  -1.09540
 Alpha  occ. eigenvalues --   -1.08126  -1.05420  -1.04123  -0.96438  -0.94999
 Alpha  occ. eigenvalues --   -0.86836  -0.85494  -0.83287  -0.81852  -0.78381
 Alpha  occ. eigenvalues --   -0.76962  -0.73182  -0.72357  -0.71643  -0.71177
 Alpha  occ. eigenvalues --   -0.70783  -0.69693  -0.65730  -0.65417  -0.64364
 Alpha  occ. eigenvalues --   -0.64076  -0.62777  -0.61475  -0.55929  -0.54455
 Alpha  occ. eigenvalues --   -0.53755  -0.53507  -0.52469  -0.52179  -0.49960
 Alpha  occ. eigenvalues --   -0.49911  -0.48413  -0.48382  -0.46070  -0.44465
 Alpha  occ. eigenvalues --   -0.38022  -0.37002  -0.36664  -0.35757
 Alpha virt. eigenvalues --    0.04075   0.05562   0.10657   0.11916   0.15656
 Alpha virt. eigenvalues --    0.17115   0.20811   0.22356   0.26749   0.27577
 Alpha virt. eigenvalues --    0.28115   0.29260   0.30547   0.31670   0.32184

 Mulliken charges:
               1
     1  C   -0.168984
     2  C   -0.218059
     3  C   -0.169735
     4  C    0.158892
     5  C   -0.170447
     6  C   -0.218268
     7  H    0.229014
     8  H    0.226335
     9  H    0.274316
    10  H    0.275241
    11  H    0.225947
    12  N    0.487869
    13  O   -0.462528
    14  O   -0.466084
    15  C   -0.182176
    16  C   -0.220394
    17  C   -0.172587
    18  C    0.157350
    19  C   -0.173164
    20  C   -0.221693
    21  H    0.247462
    22  H    0.223844
    23  H    0.272684
    24  H    0.272390
    25  H    0.229924
    26  N    0.488197
    27  O   -0.462766
    28  O   -0.462581
 Sum of Mulliken charges =  -0.00000

 Dipole moment (field-independent basis, Debye):
    X=             -6.1397    Y=              1.6468    Z=              0.7157  Tot=              6.3969
 Quadrupole moment (field-independent basis, Debye-Ang):
   XX=           -123.7258   YY=           -107.0601   ZZ=            -95.3977
   XY=            -27.8395   XZ=             -2.4079   YZ=             -2.1867

 Normal termination of Gaussian 16 at Thu May  6 13:11:57 2021.
