 Gaussian 16, Revision A.03,
 Gaussian 16:  EM64L-G16RevA.03 25-Dec-2016

 -------------
 #p 6-31g* mp2
 -------------

 ------------------------------------------------------
 Input file generated by CHIRIPA (05-May-2021 14:53:16)
 ------------------------------------------------------
 Symbolic Z-matrix:
 Charge =  0 Multiplicity = 1

                         Standard orientation:
 ---------------------------------------------------------------------
 Center     Atomic      Atomic             Coordinates (Angstroms)
 Number     Number       Type             X           Y           Z
 ---------------------------------------------------------------------
      1          6           0       -3.832868    0.681358   -0.247111
      2          6           0       -3.111024    1.611644    0.728335
      3          6           0       -2.279504    2.681237    0.019575
      4          1           0       -3.092477    0.199269   -0.900070
      5          1           0       -4.483180    1.279577   -0.900274
      6          1           0       -2.463315    1.011702    1.380377
      7          1           0       -3.853203    2.091428    1.379174
      8          1           0       -2.915580    3.304321   -0.617430
      9          1           0       -1.517794    2.218459   -0.616221
     10          1           0       -1.772111    3.335181    0.735654
     11          6           0       -4.668298   -0.393286    0.446378
     12          6           0       -5.390142   -1.323572   -0.529067
     13          6           0       -6.221662   -2.393165    0.179692
     14          1           0       -4.017986   -0.991506    1.099541
     15          1           0       -5.408690    0.088803    1.099338
     16          1           0       -4.647963   -1.803357   -1.179907
     17          1           0       -6.037851   -0.723630   -1.181109
     18          1           0       -6.983372   -1.930387    0.815488
     19          1           0       -5.585587   -3.016249    0.816697
     20          1           0       -6.729056   -3.047109   -0.536387
     21          6           0        1.605359    1.703973   -0.429435
     22          6           0        2.908417    2.036662   -0.044885
     23          6           0        3.867096    1.038456    0.152773
     24          6           0        3.486608   -0.288141   -0.043847
     25          6           0        2.196430   -0.651439   -0.426922
     26          6           0        1.254144    0.363347   -0.618892
     27          1           0        0.867001    2.485843   -0.580771
     28          1           0        3.184002    3.076966    0.102978
     29          1           0        4.883019    1.267925    0.450535
     30          1           0        1.951500   -1.697336   -0.566658
     31          1           0        0.242920    0.102033   -0.917533
     32          7           0        4.492841   -1.353673    0.162394
     33          8           0        4.132483   -2.514918   -0.017298
     34          8           0        5.622832   -1.007416    0.499831
 ---------------------------------------------------------------------

 SCF Done:  E(RHF) =  -669.535272201     A.U. after   15 cycles
 E2 =    -0.2091454992D+01 EUMP2 =    -0.67162672719324D+03

 The electronic state is 1-A.
 Alpha  occ. eigenvalues --  -20.60734 -20.60729 -15.85788 -11.31142 -11.27724
 Alpha  occ. eigenvalues --  -11.27714 -11.27400 -11.26725 -11.26706 -11.22587
 Alpha  occ. eigenvalues --  -11.22379 -11.22279 -11.22155 -11.22038 -11.21495
 Alpha  occ. eigenvalues --   -1.59810  -1.39364  -1.19315  -1.09230  -1.08706
 Alpha  occ. eigenvalues --   -1.04723  -1.04338  -0.96816  -0.95543  -0.87836
 Alpha  occ. eigenvalues --   -0.86119  -0.82382  -0.80414  -0.78997  -0.77434
 Alpha  occ. eigenvalues --   -0.72006  -0.71134  -0.70436  -0.65884  -0.64968
 Alpha  occ. eigenvalues --   -0.64734  -0.62110  -0.61694  -0.60196  -0.58389
 Alpha  occ. eigenvalues --   -0.56197  -0.55159  -0.53484  -0.53220  -0.53044
 Alpha  occ. eigenvalues --   -0.52813  -0.50739  -0.48767  -0.48762  -0.48713
 Alpha  occ. eigenvalues --   -0.47434  -0.46550  -0.46445  -0.44772  -0.44581
 Alpha  occ. eigenvalues --   -0.37281  -0.36331
 Alpha virt. eigenvalues --    0.05107   0.11303   0.16594   0.18861   0.22518
 Alpha virt. eigenvalues --    0.23791   0.25096   0.25970   0.26547   0.28080
 Alpha virt. eigenvalues --    0.29139   0.29814   0.30860   0.31208   0.31643

 Mulliken charges:
               1
     1  C   -0.298607
     2  C   -0.300978
     3  C   -0.479994
     4  H    0.143951
     5  H    0.152219
     6  H    0.154335
     7  H    0.156967
     8  H    0.160955
     9  H    0.144917
    10  H    0.161915
    11  C   -0.299118
    12  C   -0.300059
    13  C   -0.476237
    14  H    0.150736
    15  H    0.151955
    16  H    0.151390
    17  H    0.152869
    18  H    0.156161
    19  H    0.156373
    20  H    0.162091
    21  C   -0.173759
    22  C   -0.219211
    23  C   -0.170740
    24  C    0.158162
    25  C   -0.171010
    26  C   -0.221832
    27  H    0.231859
    28  H    0.223440
    29  H    0.275401
    30  H    0.275278
    31  H    0.223704
    32  N    0.488093
    33  O   -0.460701
    34  O   -0.460525
 Sum of Mulliken charges =  -0.00000

 Dipole moment (field-independent basis, Debye):
    X=             -3.8004    Y=              3.7776    Z=             -0.6534  Tot=              5.3982
 Quadrupole moment (field-independent basis, Debye-Ang):
   XX=           -116.2655   YY=            -94.9437   ZZ=            -95.3968
   XY=             15.8580   XZ=             -1.3928   YZ=              1.3708

 Normal termination of Gaussian 16 at Wed May  5 15:41:22 2021.
