 Gaussian 16, Revision A.03,
 Gaussian 16:  EM64L-G16RevA.03 25-Dec-2016

 -------------
 #p 6-31g* mp2
 -------------

 ------------------------------------------------------
 Input file generated by CHIRIPA (05-May-2021 14:53:18)
 ------------------------------------------------------
 Symbolic Z-matrix:
 Charge =  0 Multiplicity = 1

                         Standard orientation:
 ---------------------------------------------------------------------
 Center     Atomic      Atomic             Coordinates (Angstroms)
 Number     Number       Type             X           Y           Z
 ---------------------------------------------------------------------
      1          6           0       -3.002368    1.006851    0.108920
      2          6           0       -2.987851    2.251913   -0.778545
      3          6           0       -2.234469    3.421372   -0.144056
      4          1           0       -3.460047    1.258576    1.075413
      5          1           0       -1.967565    0.705073    0.322250
      6          1           0       -4.022377    2.550441   -0.991275
      7          1           0       -2.530327    1.997148   -1.743108
      8          1           0       -1.192973    3.147280    0.052820
      9          1           0       -2.693501    3.703717    0.808925
     10          1           0       -2.236497    4.300939   -0.795376
     11          6           0       -3.751813   -0.170795   -0.511732
     12          6           0       -3.766330   -1.415858    0.375733
     13          6           0       -4.519711   -2.585317   -0.258756
     14          1           0       -4.786615    0.130982   -0.725061
     15          1           0       -3.294133   -0.422520   -1.478225
     16          1           0       -4.223854   -1.161092    1.340296
     17          1           0       -2.731804   -1.714385    0.588463
     18          1           0       -4.060680   -2.867661   -1.211736
     19          1           0       -5.561207   -2.311224   -0.455632
     20          1           0       -4.517683   -3.464883    0.392565
     21          6           0        4.947795    0.312452   -0.632608
     22          6           0        4.329892   -0.837948   -1.133904
     23          6           0        3.050491   -1.201672   -0.703340
     24          6           0        2.415083   -0.388364    0.233718
     25          6           0        3.004384    0.763828    0.751859
     26          6           0        4.284237    1.108265    0.307017
     27          1           0        5.941840    0.587511   -0.972627
     28          1           0        4.842841   -1.457876   -1.863711
     29          1           0        2.548899   -2.086961   -1.074936
     30          1           0        2.467995    1.361903    1.478503
     31          1           0        4.761673    2.002239    0.698058
     32          7           0        1.060399   -0.763213    0.697095
     33          8           0        0.521758   -0.029888    1.523375
     34          8           0        0.562889   -1.783248    0.225237
 ---------------------------------------------------------------------

 SCF Done:  E(RHF) =  -669.536967685     A.U. after   15 cycles
 E2 =    -0.2091908818D+01 EUMP2 =    -0.67162887650253D+03

 The electronic state is 1-A.
 Alpha  occ. eigenvalues --  -20.61168 -20.61162 -15.86156 -11.31412 -11.27962
 Alpha  occ. eigenvalues --  -11.27958 -11.27686 -11.26950 -11.26940 -11.20621
 Alpha  occ. eigenvalues --  -11.20289 -11.20086 -11.20019 -11.19882 -11.19866
 Alpha  occ. eigenvalues --   -1.60201  -1.39759  -1.19569  -1.08988  -1.07132
 Alpha  occ. eigenvalues --   -1.04953  -1.02352  -0.95839  -0.94827  -0.86357
 Alpha  occ. eigenvalues --   -0.85857  -0.82674  -0.78405  -0.77738  -0.76892
 Alpha  occ. eigenvalues --   -0.72365  -0.71508  -0.70676  -0.65224  -0.64955
 Alpha  occ. eigenvalues --   -0.63760  -0.62299  -0.59754  -0.58208  -0.56423
 Alpha  occ. eigenvalues --   -0.55461  -0.54126  -0.53288  -0.53042  -0.51581
 Alpha  occ. eigenvalues --   -0.51258  -0.49175  -0.49150  -0.48770  -0.46738
 Alpha  occ. eigenvalues --   -0.45521  -0.45115  -0.44483  -0.44161  -0.42567
 Alpha  occ. eigenvalues --   -0.37542  -0.36549
 Alpha virt. eigenvalues --    0.04741   0.11105   0.16244   0.21231   0.24106
 Alpha virt. eigenvalues --    0.25379   0.27156   0.27755   0.28176   0.28868
 Alpha virt. eigenvalues --    0.29229   0.30902   0.32038   0.32603   0.32974

 Mulliken charges:
               1
     1  C   -0.307818
     2  C   -0.298483
     3  C   -0.474039
     4  H    0.146491
     5  H    0.172397
     6  H    0.147949
     7  H    0.147342
     8  H    0.154499
     9  H    0.154623
    10  H    0.154344
    11  C   -0.296090
    12  C   -0.306275
    13  C   -0.474504
    14  H    0.142540
    15  H    0.146160
    16  H    0.147506
    17  H    0.175100
    18  H    0.153066
    19  H    0.149451
    20  H    0.157846
    21  C   -0.170260
    22  C   -0.218598
    23  C   -0.170648
    24  C    0.158494
    25  C   -0.170755
    26  C   -0.218537
    27  H    0.226509
    28  H    0.224262
    29  H    0.276035
    30  H    0.276297
    31  H    0.224420
    32  N    0.487826
    33  O   -0.457777
    34  O   -0.459372
 Sum of Mulliken charges =  -0.00000

 Dipole moment (field-independent basis, Debye):
    X=              5.2210    Y=              1.1842    Z=             -1.4921  Tot=              5.5576
 Quadrupole moment (field-independent basis, Debye-Ang):
   XX=            -73.1250   YY=            -94.3076   ZZ=            -94.3368
   XY=              0.7293   XZ=             -4.0241   YZ=              3.7357

 Normal termination of Gaussian 16 at Wed May  5 23:41:19 2021.
