 Gaussian 16, Revision A.03,
 Gaussian 16:  EM64L-G16RevA.03 25-Dec-2016

 -------------
 #p 6-31g* mp2
 -------------

 ------------------------------------------------------
 Input file generated by CHIRIPA (05-May-2021 14:53:17)
 ------------------------------------------------------
 Symbolic Z-matrix:
 Charge =  0 Multiplicity = 1

                         Standard orientation:
 ---------------------------------------------------------------------
 Center     Atomic      Atomic             Coordinates (Angstroms)
 Number     Number       Type             X           Y           Z
 ---------------------------------------------------------------------
      1          6           0       -3.830571   -0.234164   -0.154113
      2          6           0       -3.982752    1.215205   -0.616882
      3          6           0       -5.180635    1.416583   -1.545492
      4          1           0       -3.727856   -0.884356   -1.033685
      5          1           0       -4.750433   -0.546235    0.359561
      6          1           0       -3.062347    1.524892   -1.128315
      7          1           0       -4.084925    1.862043    0.263899
      8          1           0       -6.110588    1.134321   -1.041392
      9          1           0       -5.082199    0.795253   -2.441517
     10          1           0       -5.270626    2.459742   -1.864211
     11          6           0       -2.637437   -0.451396    0.774848
     12          6           0       -2.485256   -1.900766    1.237617
     13          6           0       -1.287373   -2.102144    2.166227
     14          1           0       -1.717575   -0.139326    0.261174
     15          1           0       -2.740152    0.198795    1.654419
     16          1           0       -2.383083   -2.547604    0.356835
     17          1           0       -3.405661   -2.210452    1.749050
     18          1           0       -1.385809   -1.480814    3.062252
     19          1           0       -0.357420   -1.819882    1.662126
     20          1           0       -1.197382   -3.145303    2.484946
     21          6           0        2.718151   -1.861401   -1.582525
     22          6           0        3.846538   -1.327573   -0.951419
     23          6           0        3.752090   -0.148380   -0.206348
     24          6           0        2.508044    0.473640   -0.112923
     25          6           0        1.365595   -0.033463   -0.730134
     26          6           0        1.483459   -1.213783   -1.470066
     27          1           0        2.800616   -2.777864   -2.159319
     28          1           0        4.806701   -1.828374   -1.037034
     29          1           0        4.609582    0.286741    0.292447
     30          1           0        0.421996    0.488386   -0.626642
     31          1           0        0.605455   -1.626071   -1.959120
     32          7           0        2.395663    1.722596    0.673131
     33          8           0        1.288226    2.251494    0.740117
     34          8           0        3.417143    2.148980    1.207369
 ---------------------------------------------------------------------

 SCF Done:  E(RHF) =  -669.535458111     A.U. after   15 cycles
 E2 =    -0.2092204832D+01 EUMP2 =    -0.67162766294281D+03

 The electronic state is 1-A.
 Alpha  occ. eigenvalues --  -20.60782 -20.60776 -15.85836 -11.31237 -11.27810
 Alpha  occ. eigenvalues --  -11.27803 -11.27552 -11.26847 -11.26824 -11.21847
 Alpha  occ. eigenvalues --  -11.21682 -11.21635 -11.21563 -11.21171 -11.21141
 Alpha  occ. eigenvalues --   -1.59856  -1.39409  -1.19415  -1.08799  -1.08627
 Alpha  occ. eigenvalues --   -1.04827  -1.03673  -0.96122  -0.95630  -0.87134
 Alpha  occ. eigenvalues --   -0.86218  -0.82462  -0.79732  -0.78444  -0.77497
 Alpha  occ. eigenvalues --   -0.72054  -0.71179  -0.70526  -0.65317  -0.65059
 Alpha  occ. eigenvalues --   -0.64808  -0.62182  -0.61068  -0.59485  -0.57725
 Alpha  occ. eigenvalues --   -0.55451  -0.55295  -0.53149  -0.52941  -0.52793
 Alpha  occ. eigenvalues --   -0.52512  -0.50064  -0.48817  -0.48807  -0.48039
 Alpha  occ. eigenvalues --   -0.46779  -0.45955  -0.45910  -0.44804  -0.43947
 Alpha  occ. eigenvalues --   -0.37388  -0.36407
 Alpha virt. eigenvalues --    0.04994   0.11190   0.16457   0.19806   0.22992
 Alpha virt. eigenvalues --    0.24132   0.24839   0.26738   0.27645   0.27982
 Alpha virt. eigenvalues --    0.29838   0.30911   0.31350   0.31768   0.31822

 Mulliken charges:
               1
     1  C   -0.298369
     2  C   -0.299316
     3  C   -0.475868
     4  H    0.144765
     5  H    0.151365
     6  H    0.150278
     7  H    0.157008
     8  H    0.155632
     9  H    0.152930
    10  H    0.162367
    11  C   -0.300934
    12  C   -0.299341
    13  C   -0.477867
    14  H    0.143100
    15  H    0.157934
    16  H    0.145755
    17  H    0.153932
    18  H    0.159770
    19  H    0.155190
    20  H    0.159106
    21  C   -0.170640
    22  C   -0.218381
    23  C   -0.170401
    24  C    0.159210
    25  C   -0.177400
    26  C   -0.220683
    27  H    0.225960
    28  H    0.223823
    29  H    0.275936
    30  H    0.284018
    31  H    0.223797
    32  N    0.487486
    33  O   -0.459832
    34  O   -0.460328
 Sum of Mulliken charges =  -0.00000

 Dipole moment (field-independent basis, Debye):
    X=              0.3797    Y=             -4.3164    Z=             -2.6801  Tot=              5.0950
 Quadrupole moment (field-independent basis, Debye-Ang):
   XX=            -87.8938   YY=            -99.7544   ZZ=            -94.3091
   XY=            -11.4673   XZ=             -7.2628   YZ=             -0.3753

 Normal termination of Gaussian 16 at Wed May  5 23:37:05 2021.
