 Gaussian 16, Revision A.03,
 Gaussian 16:  EM64L-G16RevA.03 25-Dec-2016

 -------------
 #p 6-31g* mp2
 -------------

 ------------------------------------------------------
 Input file generated by CHIRIPA (05-May-2021 14:51:11)
 ------------------------------------------------------
 Symbolic Z-matrix:
 Charge =  0 Multiplicity = 1

                         Standard orientation:
 ---------------------------------------------------------------------
 Center     Atomic      Atomic             Coordinates (Angstroms)
 Number     Number       Type             X           Y           Z
 ---------------------------------------------------------------------
      1          6           0       -5.317212   -0.082445   -0.133726
      2          6           0       -5.861884   -1.456629    0.257343
      3          6           0       -7.370825   -1.577533    0.042231
      4          1           0       -5.835402    0.690180    0.450632
      5          1           0       -5.554831    0.111738   -1.188821
      6          1           0       -5.622097   -1.648748    1.311007
      7          1           0       -5.342201   -2.226086   -0.327877
      8          1           0       -7.624468   -1.411917   -1.009832
      9          1           0       -7.905953   -0.831299    0.638364
     10          1           0       -7.739045   -2.567741    0.328171
     11          6           0       -3.810124    0.053872    0.075639
     12          6           0       -3.265452    1.428056   -0.315430
     13          6           0       -1.756511    1.548960   -0.100318
     14          1           0       -3.572505   -0.140311    1.130734
     15          1           0       -3.291934   -0.718753   -0.508719
     16          1           0       -3.785135    2.197513    0.269790
     17          1           0       -3.505239    1.620176   -1.369094
     18          1           0       -1.221383    0.802727   -0.696450
     19          1           0       -1.502868    1.383344    0.951745
     20          1           0       -1.388291    2.539169   -0.386257
     21          6           0        4.990840   -0.515354   -0.317997
     22          6           0        6.284146   -0.837701    0.431294
     23          6           0        7.127963   -1.898998   -0.275401
     24          1           0        4.402668   -1.435957   -0.434144
     25          1           0        5.238548   -0.172654   -1.332191
     26          1           0        6.034132   -1.178374    1.444236
     27          1           0        6.869218    0.083812    0.545839
     28          1           0        7.406146   -1.563962   -1.279873
     29          1           0        6.566315   -2.833319   -0.376372
     30          1           0        8.047771   -2.114123    0.277352
     31          6           0        4.136496    0.543927    0.376084
     32          6           0        2.843190    0.866274   -0.373207
     33          6           0        1.999373    1.927570    0.333488
     34          1           0        3.888788    0.201227    1.390279
     35          1           0        4.724668    1.464529    0.492230
     36          1           0        2.258118   -0.055239   -0.487752
     37          1           0        3.093204    1.206947   -1.386149
     38          1           0        2.561021    2.861892    0.434459
     39          1           0        1.721189    1.592535    1.337961
     40          1           0        1.079565    2.142695   -0.219264
 ---------------------------------------------------------------------

 SCF Done:  E(RHF) =  -470.732934245     A.U. after   11 cycles
 E2 =    -0.1582461322D+01 EUMP2 =    -0.47231539556744D+03

 The electronic state is 1-A.
 Alpha  occ. eigenvalues --  -11.21607 -11.21593 -11.21567 -11.21511 -11.21411
 Alpha  occ. eigenvalues --  -11.21352 -11.21350 -11.21287 -11.21077 -11.21076
 Alpha  occ. eigenvalues --  -11.21045 -11.20868  -1.08437  -1.08366  -1.03549
 Alpha  occ. eigenvalues --   -1.03444  -0.96038  -0.95857  -0.87102  -0.86832
 Alpha  occ. eigenvalues --   -0.79658  -0.79469  -0.78249  -0.78183  -0.65065
 Alpha  occ. eigenvalues --   -0.64999  -0.60934  -0.60854  -0.59535  -0.59138
 Alpha  occ. eigenvalues --   -0.57599  -0.57518  -0.55277  -0.55187  -0.53041
 Alpha  occ. eigenvalues --   -0.52446  -0.52384  -0.52126  -0.49942  -0.49827
 Alpha  occ. eigenvalues --   -0.47916  -0.47829  -0.46644  -0.46543  -0.45787
 Alpha  occ. eigenvalues --   -0.45726  -0.45714  -0.45649  -0.43962  -0.43503
 Alpha virt. eigenvalues --    0.22363   0.22970   0.23578   0.24782   0.26529
 Alpha virt. eigenvalues --    0.26596   0.27031   0.27489   0.27525   0.29171
 Alpha virt. eigenvalues --    0.29904   0.30725   0.31413   0.32049   0.32137

 Mulliken charges:
               1
     1  C   -0.298297
     2  C   -0.299613
     3  C   -0.475704
     4  H    0.149698
     5  H    0.149546
     6  H    0.151901
     7  H    0.151905
     8  H    0.155197
     9  H    0.155201
    10  H    0.160255
    11  C   -0.298530
    12  C   -0.300611
    13  C   -0.476398
    14  H    0.149458
    15  H    0.149563
    16  H    0.152001
    17  H    0.151806
    18  H    0.155493
    19  H    0.157067
    20  H    0.160135
    21  C   -0.298167
    22  C   -0.299576
    23  C   -0.475658
    24  H    0.149437
    25  H    0.149338
    26  H    0.151846
    27  H    0.151871
    28  H    0.155105
    29  H    0.155088
    30  H    0.160127
    31  C   -0.298253
    32  C   -0.299550
    33  C   -0.482048
    34  H    0.149326
    35  H    0.149492
    36  H    0.151465
    37  H    0.151200
    38  H    0.153394
    39  H    0.154124
    40  H    0.171365
 Sum of Mulliken charges =  -0.00000

 Dipole moment (field-independent basis, Debye):
    X=             -0.0464    Y=              0.0124    Z=             -0.0005  Tot=              0.0480
 Quadrupole moment (field-independent basis, Debye-Ang):
   XX=            -86.4680   YY=            -84.7707   ZZ=            -83.7679
   XY=              0.5563   XZ=             -0.2742   YZ=             -0.3965

 Normal termination of Gaussian 16 at Thu May  6 05:27:00 2021.
