 Gaussian 16, Revision A.03,
 Gaussian 16:  EM64L-G16RevA.03 25-Dec-2016

 -------------
 #p 6-31g* mp2
 -------------

 ------------------------------------------------------
 Input file generated by CHIRIPA (05-May-2021 14:55:23)
 ------------------------------------------------------
 Symbolic Z-matrix:
 Charge =  0 Multiplicity = 1

                         Standard orientation:
 ---------------------------------------------------------------------
 Center     Atomic      Atomic             Coordinates (Angstroms)
 Number     Number       Type             X           Y           Z
 ---------------------------------------------------------------------
      1          6           0        0.073318   -2.062893    1.447807
      2          6           0        0.247763   -2.334470    0.086802
      3          6           0        1.192685   -1.627573   -0.662843
      4          6           0        1.949447   -0.651434   -0.016505
      5          6           0        1.798995   -0.357814    1.337910
      6          6           0        0.848124   -1.077169    2.067925
      7          1           0       -0.663031   -2.616866    2.022525
      8          1           0       -0.352556   -3.099445   -0.397425
      9          1           0        1.348341   -1.817489   -1.717889
     10          1           0        2.412233    0.410560    1.792836
     11          1           0        0.714807   -0.864128    3.124752
     12          7           0        2.952942    0.103521   -0.799730
     13          8           0        3.607146    0.958596   -0.206856
     14          8           0        3.066276   -0.174116   -1.991665
     15          6           0       -2.545980    0.426334   -0.583832
     16          6           0       -3.855921   -0.177795   -0.076814
     17          6           0       -4.368164   -1.310434   -0.967055
     18          1           0       -2.693445    0.799868   -1.606412
     19          1           0       -1.785652   -0.364465   -0.646536
     20          1           0       -4.613167    0.614178   -0.013768
     21          1           0       -3.705374   -0.549761    0.944750
     22          1           0       -3.633344   -2.120188   -1.021272
     23          1           0       -4.546295   -0.949636   -1.985236
     24          1           0       -5.305488   -1.727833   -0.586185
     25          6           0       -2.021210    1.559866    0.295628
     26          6           0       -0.711268    2.163994   -0.211390
     27          6           0       -0.199026    3.296634    0.678851
     28          1           0       -2.781538    2.350665    0.358332
     29          1           0       -1.873745    1.186333    1.318209
     30          1           0       -0.861817    2.535961   -1.232954
     31          1           0        0.045977    1.372022   -0.274436
     32          1           0       -0.020895    2.935836    1.697033
     33          1           0       -0.933846    4.106389    0.733069
     34          1           0        0.738298    3.714034    0.297982
 ---------------------------------------------------------------------

 SCF Done:  E(RHF) =  -669.534108113     A.U. after   15 cycles
 E2 =    -0.2096582105D+01 EUMP2 =    -0.67163069021765D+03

 The electronic state is 1-A.
 Alpha  occ. eigenvalues --  -20.60891 -20.60885 -15.85941 -11.31332 -11.27939
 Alpha  occ. eigenvalues --  -11.27930 -11.27714 -11.26984 -11.26970 -11.21951
 Alpha  occ. eigenvalues --  -11.21560 -11.21467 -11.21423 -11.21382 -11.20947
 Alpha  occ. eigenvalues --   -1.59964  -1.39514  -1.19577  -1.08950  -1.08537
 Alpha  occ. eigenvalues --   -1.04977  -1.03664  -0.96116  -0.95761  -0.87138
 Alpha  occ. eigenvalues --   -0.86360  -0.82591  -0.79744  -0.78351  -0.77625
 Alpha  occ. eigenvalues --   -0.72161  -0.71305  -0.70648  -0.65245  -0.65209
 Alpha  occ. eigenvalues --   -0.64948  -0.62308  -0.61114  -0.59492  -0.57713
 Alpha  occ. eigenvalues --   -0.55480  -0.55426  -0.53374  -0.53048  -0.52778
 Alpha  occ. eigenvalues --   -0.52550  -0.50103  -0.48927  -0.48911  -0.48072
 Alpha  occ. eigenvalues --   -0.46840  -0.45866  -0.45694  -0.44901  -0.43878
 Alpha  occ. eigenvalues --   -0.37447  -0.36503
 Alpha virt. eigenvalues --    0.04868   0.10982   0.16298   0.20543   0.23037
 Alpha virt. eigenvalues --    0.23600   0.26259   0.26557   0.27611   0.28031
 Alpha virt. eigenvalues --    0.28300   0.29972   0.31501   0.31689   0.32157

 Mulliken charges:
               1
     1  C   -0.169772
     2  C   -0.219262
     3  C   -0.171064
     4  C    0.157169
     5  C   -0.172282
     6  C   -0.215751
     7  H    0.227188
     8  H    0.225501
     9  H    0.277039
    10  H    0.276885
    11  H    0.224725
    12  N    0.490480
    13  O   -0.460093
    14  O   -0.459902
    15  C   -0.305318
    16  C   -0.298721
    17  C   -0.474047
    18  H    0.150166
    19  H    0.154621
    20  H    0.153817
    21  H    0.145850
    22  H    0.146606
    23  H    0.158249
    24  H    0.160463
    25  C   -0.295574
    26  C   -0.305157
    27  C   -0.476456
    28  H    0.148865
    29  H    0.144295
    30  H    0.153981
    31  H    0.156526
    32  H    0.147687
    33  H    0.154556
    34  H    0.168730
 Sum of Mulliken charges =  -0.00000

 Dipole moment (field-independent basis, Debye):
    X=             -3.3514    Y=             -2.6887    Z=              2.7262  Tot=              5.0885
 Quadrupole moment (field-independent basis, Debye-Ang):
   XX=           -109.2126   YY=            -90.5995   ZZ=            -91.6782
   XY=             -2.9304   XZ=              6.7599   YZ=             -0.3767

 Normal termination of Gaussian 16 at Wed May  5 20:44:49 2021.
