 Gaussian 16, Revision A.03,
 Gaussian 16:  EM64L-G16RevA.03 25-Dec-2016

 -------------
 #p 6-31g* mp2
 -------------

 ------------------------------------------------------
 Input file generated by CHIRIPA (05-May-2021 14:51:09)
 ------------------------------------------------------
 Symbolic Z-matrix:
 Charge =  0 Multiplicity = 1

                         Standard orientation:
 ---------------------------------------------------------------------
 Center     Atomic      Atomic             Coordinates (Angstroms)
 Number     Number       Type             X           Y           Z
 ---------------------------------------------------------------------
      1          6           0        3.843674    0.572740    0.343736
      2          6           0        4.831759    1.424826   -0.453524
      3          6           0        5.390395    2.595382    0.356118
      4          1           0        3.017271    1.208429    0.690003
      5          1           0        4.343261    0.191124    1.244945
      6          1           0        4.330864    1.803586   -1.353668
      7          1           0        5.655809    0.786995   -0.798095
      8          1           0        5.914481    2.232747    1.246304
      9          1           0        4.582007    3.255114    0.687574
     10          1           0        6.094556    3.191185   -0.232979
     11          6           0        3.276527   -0.601402   -0.452168
     12          6           0        2.288443   -1.453487    0.345092
     13          6           0        1.729807   -2.624043   -0.464549
     14          1           0        2.776941   -0.219786   -1.353377
     15          1           0        4.102931   -1.237091   -0.798435
     16          1           0        1.464393   -0.815656    0.689663
     17          1           0        2.789338   -1.832248    1.245237
     18          1           0        2.538195   -3.283776   -0.796005
     19          1           0        1.205721   -2.261408   -1.354735
     20          1           0        1.025646   -3.219847    0.124548
     21          6           0       -3.144355   -0.473241    0.469982
     22          6           0       -2.617613   -1.661171   -0.335839
     23          6           0       -1.787760   -2.627688    0.509726
     24          1           0       -2.296295    0.063505    0.916797
     25          1           0       -3.752976   -0.846638    1.305176
     26          1           0       -2.011304   -1.285597   -1.170075
     27          1           0       -3.467014   -2.195039   -0.780944
     28          1           0       -2.386102   -3.030169    1.333497
     29          1           0       -0.922120   -2.115560    0.942155
     30          1           0       -1.421210   -3.469373   -0.086149
     31          6           0       -3.975847    0.501902   -0.361551
     32          6           0       -4.502589    1.689833    0.444271
     33          6           0       -5.332442    2.656349   -0.401295
     34          1           0       -3.367225    0.875300   -1.196745
     35          1           0       -4.823908   -0.034844   -0.808365
     36          1           0       -3.653187    2.223701    0.889376
     37          1           0       -5.108897    1.314259    1.278506
     38          1           0       -6.198082    2.144222   -0.833724
     39          1           0       -4.734101    3.058831   -1.225065
     40          1           0       -5.698993    3.498035    0.194580
 ---------------------------------------------------------------------

 SCF Done:  E(RHF) =  -470.731963157     A.U. after   11 cycles
 E2 =    -0.1583369131D+01 EUMP2 =    -0.47231533228802D+03

 The electronic state is 1-A.
 Alpha  occ. eigenvalues --  -11.21616 -11.21611 -11.21607 -11.21599 -11.21419
 Alpha  occ. eigenvalues --  -11.21413 -11.21359 -11.21353 -11.21084 -11.21081
 Alpha  occ. eigenvalues --  -11.20993 -11.20919  -1.08454  -1.08418  -1.03592
 Alpha  occ. eigenvalues --   -1.03464  -0.96095  -0.95857  -0.87135  -0.86854
 Alpha  occ. eigenvalues --   -0.79645  -0.79546  -0.78265  -0.78239  -0.65149
 Alpha  occ. eigenvalues --   -0.65002  -0.61164  -0.60759  -0.59554  -0.59163
 Alpha  occ. eigenvalues --   -0.57629  -0.57581  -0.55447  -0.55033  -0.52999
 Alpha  occ. eigenvalues --   -0.52496  -0.52380  -0.52226  -0.49955  -0.49790
 Alpha  occ. eigenvalues --   -0.47924  -0.47889  -0.46677  -0.46557  -0.45824
 Alpha  occ. eigenvalues --   -0.45770  -0.45748  -0.45662  -0.43956  -0.43564
 Alpha virt. eigenvalues --    0.21096   0.23198   0.23528   0.25354   0.26069
 Alpha virt. eigenvalues --    0.26641   0.27078   0.27172   0.27952   0.29331
 Alpha virt. eigenvalues --    0.29731   0.30572   0.31000   0.32160   0.32545

 Mulliken charges:
               1
     1  C   -0.298267
     2  C   -0.299640
     3  C   -0.475694
     4  H    0.149248
     5  H    0.149619
     6  H    0.151834
     7  H    0.152039
     8  H    0.155238
     9  H    0.155085
    10  H    0.160288
    11  C   -0.298089
    12  C   -0.302054
    13  C   -0.479125
    14  H    0.149267
    15  H    0.150008
    16  H    0.151395
    17  H    0.152120
    18  H    0.154060
    19  H    0.154300
    20  H    0.167359
    21  C   -0.298556
    22  C   -0.300036
    23  C   -0.479913
    24  H    0.149132
    25  H    0.149753
    26  H    0.151804
    27  H    0.151966
    28  H    0.154116
    29  H    0.160888
    30  H    0.161911
    31  C   -0.298275
    32  C   -0.299631
    33  C   -0.475701
    34  H    0.149289
    35  H    0.149797
    36  H    0.151793
    37  H    0.152025
    38  H    0.155245
    39  H    0.155109
    40  H    0.160297
 Sum of Mulliken charges =  -0.00000

 Dipole moment (field-independent basis, Debye):
    X=             -0.0115    Y=             -0.0264    Z=              0.0091  Tot=              0.0302
 Quadrupole moment (field-independent basis, Debye-Ang):
   XX=            -84.1685   YY=            -85.5117   ZZ=            -85.1139
   XY=              0.0637   XZ=             -0.4190   YZ=             -0.3718

 Normal termination of Gaussian 16 at Thu May  6 02:08:18 2021.
