 Gaussian 16, Revision A.03,
 Gaussian 16:  EM64L-G16RevA.03 25-Dec-2016

 -------------
 #p 6-31g* mp2
 -------------

 ------------------------------------------------------
 Input file generated by CHIRIPA (05-May-2021 14:57:24)
 ------------------------------------------------------
 Symbolic Z-matrix:
 Charge =  0 Multiplicity = 1

                         Standard orientation:
 ---------------------------------------------------------------------
 Center     Atomic      Atomic             Coordinates (Angstroms)
 Number     Number       Type             X           Y           Z
 ---------------------------------------------------------------------
      1          6           0       -0.977008   -1.763805   -0.120051
      2          6           0       -0.964199   -0.595899   -0.889695
      3          6           0       -2.102388    0.211577   -0.973702
      4          6           0       -3.241262   -0.180656   -0.271983
      5          6           0       -3.285241   -1.338431    0.503204
      6          6           0       -2.135446   -2.130697    0.572720
      7          1           0       -0.088327   -2.385164   -0.060421
      8          1           0       -0.065956   -0.308497   -1.428773
      9          1           0       -2.120017    1.120884   -1.562147
     10          1           0       -4.195572   -1.598916    1.029383
     11          1           0       -2.148281   -3.037169    1.171209
     12          7           0       -4.452355    0.666131   -0.353247
     13          8           0       -5.443110    0.298614    0.274426
     14          8           0       -4.387923    1.681327   -1.043076
     15          6           0        1.214358    1.402525    1.620759
     16          6           0        2.021177    2.183080    0.786314
     17          6           0        3.036628    1.594100    0.027033
     18          6           0        3.218316    0.215583    0.126900
     19          6           0        2.430976   -0.588980    0.949131
     20          6           0        1.421468    0.021421    1.699366
     21          1           0        0.427839    1.868379    2.207073
     22          1           0        1.862614    3.255893    0.723274
     23          1           0        3.675813    2.174664   -0.627037
     24          1           0        2.613075   -1.655988    0.990973
     25          1           0        0.796410   -0.587254    2.346561
     26          7           0        4.290183   -0.419282   -0.672129
     27          8           0        4.429958   -1.635803   -0.566415
     28          8           0        4.970241    0.311653   -1.388992
 ---------------------------------------------------------------------

 SCF Done:  E(RHF) =  -868.336660017     A.U. after   16 cycles
 E2 =    -0.2603156724D+01 EUMP2 =    -0.87093981674076D+03

 The electronic state is 1-A.
 Alpha  occ. eigenvalues --  -20.61560 -20.61542 -20.61218 -20.61213 -15.86608
 Alpha  occ. eigenvalues --  -15.86271 -11.32050 -11.31663 -11.28579 -11.28510
 Alpha  occ. eigenvalues --  -11.28229 -11.28165 -11.28162 -11.27931 -11.27545
 Alpha  occ. eigenvalues --  -11.27519 -11.27273 -11.27148  -1.60632  -1.60295
 Alpha  occ. eigenvalues --   -1.40182  -1.39847  -1.20185  -1.19826  -1.09536
 Alpha  occ. eigenvalues --   -1.09219  -1.05581  -1.05215  -0.96368  -0.96052
 Alpha  occ. eigenvalues --   -0.86944  -0.86612  -0.83211  -0.82859  -0.78268
 Alpha  occ. eigenvalues --   -0.77916  -0.72811  -0.72484  -0.71971  -0.71625
 Alpha  occ. eigenvalues --   -0.71231  -0.70916  -0.65795  -0.65537  -0.65467
 Alpha  occ. eigenvalues --   -0.65206  -0.62916  -0.62557  -0.55983  -0.55717
 Alpha  occ. eigenvalues --   -0.54286  -0.53659  -0.53346  -0.53133  -0.49581
 Alpha  occ. eigenvalues --   -0.49568  -0.49246  -0.49239  -0.45571  -0.45247
 Alpha  occ. eigenvalues --   -0.38532  -0.37950  -0.37044  -0.36359
 Alpha virt. eigenvalues --    0.04044   0.04753   0.10254   0.10953   0.15406
 Alpha virt. eigenvalues --    0.16458   0.19963   0.21486   0.25584   0.26777
 Alpha virt. eigenvalues --    0.27277   0.28893   0.30047   0.30675   0.32055

 Mulliken charges:
               1
     1  C   -0.174772
     2  C   -0.211981
     3  C   -0.175511
     4  C    0.157618
     5  C   -0.172314
     6  C   -0.222931
     7  H    0.225737
     8  H    0.228880
     9  H    0.275682
    10  H    0.276190
    11  H    0.223630
    12  N    0.487809
    13  O   -0.459670
    14  O   -0.460126
    15  C   -0.170501
    16  C   -0.219794
    17  C   -0.174136
    18  C    0.157207
    19  C   -0.183952
    20  C   -0.210107
    21  H    0.231178
    22  H    0.228046
    23  H    0.277987
    24  H    0.271675
    25  H    0.224736
    26  N    0.487726
    27  O   -0.461278
    28  O   -0.457030
 Sum of Mulliken charges =  -0.00000

 Dipole moment (field-independent basis, Debye):
    X=              0.5363    Y=             -0.5616    Z=              3.1215  Tot=              3.2166
 Quadrupole moment (field-independent basis, Debye-Ang):
   XX=           -156.7375   YY=            -97.1513   ZZ=           -102.7053
   XY=             18.6700   XZ=              4.3096   YZ=             -2.2788

 Normal termination of Gaussian 16 at Fri May  7 03:27:21 2021.
