 Gaussian 16, Revision A.03,
 Gaussian 16:  EM64L-G16RevA.03 25-Dec-2016

 -------------
 #p 6-31g* mp2
 -------------

 ------------------------------------------------------
 Input file generated by CHIRIPA (05-May-2021 14:55:20)
 ------------------------------------------------------
 Symbolic Z-matrix:
 Charge =  0 Multiplicity = 1

                         Standard orientation:
 ---------------------------------------------------------------------
 Center     Atomic      Atomic             Coordinates (Angstroms)
 Number     Number       Type             X           Y           Z
 ---------------------------------------------------------------------
      1          6           0       -0.657806    0.706448    1.303485
      2          6           0       -1.671651    1.585125    0.907802
      3          6           0       -2.840285    1.099443    0.313702
      4          6           0       -2.962383   -0.276954    0.129546
      5          6           0       -1.970088   -1.177821    0.513055
      6          6           0       -0.809992   -0.669795    1.105199
      7          1           0        0.246701    1.092416    1.764237
      8          1           0       -1.556192    2.654415    1.060554
      9          1           0       -3.640897    1.757257   -0.002082
     10          1           0       -2.113961   -2.238662    0.347723
     11          1           0       -0.024275   -1.354538    1.411501
     12          7           0       -4.195044   -0.802951   -0.498366
     13          8           0       -4.278316   -2.019847   -0.649581
     14          8           0       -5.054592    0.011629   -0.827418
     15          6           0        3.781159   -0.428784   -0.561420
     16          6           0        4.738457   -1.137807    0.397147
     17          6           0        5.228634   -2.481479   -0.143284
     18          1           0        2.920329   -1.081951   -0.759632
     19          1           0        4.285590   -0.275307   -1.525468
     20          1           0        4.232841   -1.288662    1.359546
     21          1           0        5.597016   -0.482798    0.593250
     22          1           0        5.756780   -2.345368   -1.092566
     23          1           0        4.384853   -3.155812   -0.321918
     24          1           0        5.911702   -2.971111    0.557813
     25          6           0        3.282458    0.915857   -0.035144
     26          6           0        2.325161    1.624881   -0.993712
     27          6           0        1.834983    2.968552   -0.453280
     28          1           0        2.778027    0.762380    0.928904
     29          1           0        4.143289    1.569024    0.163067
     30          1           0        1.466602    0.969871   -1.189815
     31          1           0        2.830777    1.775735   -1.956110
     32          1           0        2.678765    3.642885   -0.274647
     33          1           0        1.306837    2.832442    0.496002
     34          1           0        1.151915    3.458184   -1.154378
 ---------------------------------------------------------------------

 SCF Done:  E(RHF) =  -669.534814405     A.U. after   15 cycles
 E2 =    -0.2093192718D+01 EUMP2 =    -0.67162800712383D+03

 The electronic state is 1-A.
 Alpha  occ. eigenvalues --  -20.60789 -20.60783 -15.85843 -11.31222 -11.27801
 Alpha  occ. eigenvalues --  -11.27787 -11.27529 -11.26824 -11.26791 -11.22374
 Alpha  occ. eigenvalues --  -11.22322 -11.22309 -11.22143 -11.22035 -11.21659
 Alpha  occ. eigenvalues --   -1.59864  -1.39417  -1.19403  -1.09259  -1.08791
 Alpha  occ. eigenvalues --   -1.04805  -1.04309  -0.96783  -0.95627  -0.87797
 Alpha  occ. eigenvalues --   -0.86199  -0.82460  -0.80366  -0.79060  -0.77498
 Alpha  occ. eigenvalues --   -0.72061  -0.71188  -0.70577  -0.65908  -0.65058
 Alpha  occ. eigenvalues --   -0.64787  -0.62161  -0.61708  -0.60139  -0.58375
 Alpha  occ. eigenvalues --   -0.56141  -0.55276  -0.53443  -0.53213  -0.53086
 Alpha  occ. eigenvalues --   -0.52888  -0.50738  -0.48823  -0.48815  -0.48671
 Alpha  occ. eigenvalues --   -0.47393  -0.46595  -0.46519  -0.44820  -0.44573
 Alpha  occ. eigenvalues --   -0.37342  -0.36404
 Alpha virt. eigenvalues --    0.05009   0.11163   0.16400   0.19057   0.22539
 Alpha virt. eigenvalues --    0.23913   0.25156   0.25754   0.26504   0.28478
 Alpha virt. eigenvalues --    0.29153   0.30042   0.30972   0.31304   0.31649

 Mulliken charges:
               1
     1  C   -0.170225
     2  C   -0.218140
     3  C   -0.171238
     4  C    0.158383
     5  C   -0.170926
     6  C   -0.221232
     7  H    0.229009
     8  H    0.224814
     9  H    0.275840
    10  H    0.275722
    11  H    0.223502
    12  N    0.488082
    13  O   -0.460377
    14  O   -0.460261
    15  C   -0.299154
    16  C   -0.299651
    17  C   -0.475959
    18  H    0.148970
    19  H    0.153585
    20  H    0.147833
    21  H    0.154007
    22  H    0.157547
    23  H    0.154943
    24  H    0.162089
    25  C   -0.298256
    26  C   -0.304241
    27  C   -0.474281
    28  H    0.137917
    29  H    0.152943
    30  H    0.158528
    31  H    0.156507
    32  H    0.158084
    33  H    0.141518
    34  H    0.164120
 Sum of Mulliken charges =  -0.00000

 Dipole moment (field-independent basis, Debye):
    X=              4.4471    Y=              1.8471    Z=              2.0740  Tot=              5.2431
 Quadrupole moment (field-independent basis, Debye-Ang):
   XX=           -119.4356   YY=            -92.2144   ZZ=            -94.7863
   XY=             -7.9576   XZ=             -6.4905   YZ=             -1.4184

 Normal termination of Gaussian 16 at Thu May  6 02:57:42 2021.
