 Gaussian 16, Revision A.03,
 Gaussian 16:  EM64L-G16RevA.03 25-Dec-2016

 -------------
 #p 6-31g* mp2
 -------------

 ------------------------------------------------------
 Input file generated by CHIRIPA (05-May-2021 14:55:25)
 ------------------------------------------------------
 Symbolic Z-matrix:
 Charge =  0 Multiplicity = 1

                         Standard orientation:
 ---------------------------------------------------------------------
 Center     Atomic      Atomic             Coordinates (Angstroms)
 Number     Number       Type             X           Y           Z
 ---------------------------------------------------------------------
      1          6           0        1.658945    2.126392    1.394726
      2          6           0        2.625660    2.104799    0.384026
      3          6           0        2.898189    0.923757   -0.312692
      4          6           0        2.181983   -0.222424    0.028790
      5          6           0        1.212860   -0.232820    1.030778
      6          6           0        0.956868    0.959571    1.714314
      7          1           0        1.453661    3.048262    1.930833
      8          1           0        3.172448    3.009456    0.133696
      9          1           0        3.641327    0.878884   -1.099552
     10          1           0        0.684078   -1.150563    1.257837
     11          1           0        0.205552    0.973389    2.498775
     12          7           0        2.461744   -1.478748   -0.701816
     13          8           0        1.817018   -2.475080   -0.381989
     14          8           0        3.320448   -1.443334   -1.580457
     15          6           0       -2.530109   -0.547157    0.278702
     16          6           0       -3.193926   -1.882607   -0.058794
     17          6           0       -2.776263   -3.006768    0.889685
     18          1           0       -1.438744   -0.669070    0.247000
     19          1           0       -2.783812   -0.270140    1.311316
     20          1           0       -2.940177   -2.156342   -1.090926
     21          1           0       -4.283839   -1.757454   -0.026473
     22          1           0       -3.044278   -2.759367    1.921946
     23          1           0       -1.692982   -3.160521    0.851444
     24          1           0       -3.262501   -3.952350    0.630251
     25          6           0       -2.937733    0.586495   -0.660661
     26          6           0       -2.273915    1.921945   -0.323164
     27          6           0       -2.691579    3.046106   -1.271644
     28          1           0       -2.684029    0.309479   -1.693275
     29          1           0       -4.029097    0.708408   -0.628958
     30          1           0       -1.184003    1.796792   -0.355486
     31          1           0       -2.527664    2.195680    0.708968
     32          1           0       -3.774859    3.199860   -1.233403
     33          1           0       -2.423564    2.798705   -2.303905
     34          1           0       -2.205341    3.991688   -1.012210
 ---------------------------------------------------------------------

 SCF Done:  E(RHF) =  -669.534551466     A.U. after   15 cycles
 E2 =    -0.2094463796D+01 EUMP2 =    -0.67162901526289D+03

 The electronic state is 1-A.
 Alpha  occ. eigenvalues --  -20.60865 -20.60859 -15.85914 -11.31270 -11.27826
 Alpha  occ. eigenvalues --  -11.27799 -11.27558 -11.26848 -11.26816 -11.21829
 Alpha  occ. eigenvalues --  -11.21633 -11.21585 -11.21539 -11.21347 -11.21020
 Alpha  occ. eigenvalues --   -1.59937  -1.39491  -1.19449  -1.08839  -1.08611
 Alpha  occ. eigenvalues --   -1.04846  -1.03669  -0.96129  -0.95673  -0.87146
 Alpha  occ. eigenvalues --   -0.86237  -0.82505  -0.79742  -0.78512  -0.77520
 Alpha  occ. eigenvalues --   -0.72131  -0.71261  -0.70550  -0.65296  -0.65085
 Alpha  occ. eigenvalues --   -0.64799  -0.62203  -0.61040  -0.59512  -0.57749
 Alpha  occ. eigenvalues --   -0.55427  -0.55320  -0.53269  -0.52943  -0.52767
 Alpha  occ. eigenvalues --   -0.52554  -0.50065  -0.48888  -0.48885  -0.48059
 Alpha  occ. eigenvalues --   -0.46757  -0.45981  -0.45891  -0.44883  -0.43936
 Alpha  occ. eigenvalues --   -0.37403  -0.36329
 Alpha virt. eigenvalues --    0.04939   0.11106   0.16415   0.20547   0.22974
 Alpha virt. eigenvalues --    0.23462   0.25663   0.26133   0.27607   0.28359
 Alpha virt. eigenvalues --    0.29026   0.30653   0.31431   0.31599   0.31841

 Mulliken charges:
               1
     1  C   -0.171113
     2  C   -0.218320
     3  C   -0.171463
     4  C    0.157558
     5  C   -0.174177
     6  C   -0.214828
     7  H    0.226361
     8  H    0.223915
     9  H    0.275780
    10  H    0.278669
    11  H    0.225862
    12  N    0.488457
    13  O   -0.461715
    14  O   -0.459710
    15  C   -0.305369
    16  C   -0.298517
    17  C   -0.480761
    18  H    0.153053
    19  H    0.142245
    20  H    0.157317
    21  H    0.151217
    22  H    0.150454
    23  H    0.162932
    24  H    0.163476
    25  C   -0.297280
    26  C   -0.305270
    27  C   -0.475106
    28  H    0.152967
    29  H    0.149846
    30  H    0.159387
    31  H    0.144424
    32  H    0.155686
    33  H    0.157363
    34  H    0.156658
 Sum of Mulliken charges =  -0.00000

 Dipole moment (field-independent basis, Debye):
    X=             -0.8988    Y=              4.3580    Z=              2.5042  Tot=              5.1060
 Quadrupole moment (field-independent basis, Debye-Ang):
   XX=            -96.7706   YY=            -96.7964   ZZ=            -93.5738
   XY=             12.1957   XZ=              3.1693   YZ=             -1.0644

 Normal termination of Gaussian 16 at Thu May  6 08:01:14 2021.
