 Gaussian 16, Revision A.03,
 Gaussian 16:  EM64L-G16RevA.03 25-Dec-2016

 -------------
 #p 6-31g* mp2
 -------------

 ------------------------------------------------------
 Input file generated by CHIRIPA (05-May-2021 14:55:25)
 ------------------------------------------------------
 Symbolic Z-matrix:
 Charge =  0 Multiplicity = 1

                         Standard orientation:
 ---------------------------------------------------------------------
 Center     Atomic      Atomic             Coordinates (Angstroms)
 Number     Number       Type             X           Y           Z
 ---------------------------------------------------------------------
      1          6           0       -0.514651   -1.348094    0.959519
      2          6           0       -1.493760   -2.202195    0.441467
      3          6           0       -2.709561   -1.690369   -0.021578
      4          6           0       -2.913732   -0.313173    0.048675
      5          6           0       -1.957813    0.563581    0.559372
      6          6           0       -0.749388    0.029639    1.016717
      7          1           0        0.426947   -1.754283    1.317009
      8          1           0       -1.314208   -3.272579    0.395820
      9          1           0       -3.484842   -2.328827   -0.427445
     10          1           0       -2.165748    1.626181    0.591948
     11          1           0        0.009189    0.695330    1.418538
     12          7           0       -4.196941    0.240381   -0.438513
     13          8           0       -4.352377    1.457417   -0.365706
     14          8           0       -5.022988   -0.553261   -0.883953
     15          6           0        4.128857    0.178432   -0.304691
     16          6           0        4.066952   -1.346656   -0.213819
     17          6           0        5.414993   -2.010853   -0.495637
     18          1           0        4.478710    0.465853   -1.305659
     19          1           0        4.878249    0.551093    0.407300
     20          1           0        3.316912   -1.716231   -0.924784
     21          1           0        3.717022   -1.630477    0.786986
     22          1           0        6.169493   -1.670370    0.220884
     23          1           0        5.767109   -1.756611   -1.500612
     24          1           0        5.347912   -3.101000   -0.425344
     25          6           0        2.788887    0.856845   -0.025471
     26          6           0        2.850792    2.381934   -0.116343
     27          6           0        1.502750    3.046130    0.165475
     28          1           0        2.039495    0.484184   -0.737462
     29          1           0        2.439033    0.569424    0.975497
     30          1           0        3.200722    2.665754   -1.117148
     31          1           0        3.600832    2.751508    0.594622
     32          1           0        1.150634    2.791888    1.170450
     33          1           0        0.748252    2.705647   -0.551046
     34          1           0        1.569832    4.136277    0.095183
 ---------------------------------------------------------------------

 SCF Done:  E(RHF) =  -669.534671805     A.U. after   15 cycles
 E2 =    -0.2093279974D+01 EUMP2 =    -0.67162795177906D+03

 The electronic state is 1-A.
 Alpha  occ. eigenvalues --  -20.60686 -20.60681 -15.85737 -11.31078 -11.27642
 Alpha  occ. eigenvalues --  -11.27605 -11.27343 -11.26661 -11.26543 -11.22530
 Alpha  occ. eigenvalues --  -11.22500 -11.22403 -11.22236 -11.22062 -11.21805
 Alpha  occ. eigenvalues --   -1.59762  -1.39316  -1.19240  -1.09375  -1.08633
 Alpha  occ. eigenvalues --   -1.04656  -1.04416  -0.96883  -0.95477  -0.87900
 Alpha  occ. eigenvalues --   -0.86044  -0.82317  -0.80509  -0.79239  -0.77344
 Alpha  occ. eigenvalues --   -0.71955  -0.71086  -0.70336  -0.66013  -0.64886
 Alpha  occ. eigenvalues --   -0.64649  -0.62073  -0.61774  -0.60209  -0.58506
 Alpha  occ. eigenvalues --   -0.56173  -0.55122  -0.53552  -0.53340  -0.52980
 Alpha  occ. eigenvalues --   -0.52736  -0.50821  -0.48841  -0.48713  -0.48659
 Alpha  occ. eigenvalues --   -0.47522  -0.46704  -0.46628  -0.44727  -0.44684
 Alpha  occ. eigenvalues --   -0.37199  -0.36215
 Alpha virt. eigenvalues --    0.05138   0.11356   0.16568   0.19629   0.22346
 Alpha virt. eigenvalues --    0.22992   0.24902   0.25739   0.26242   0.28852
 Alpha virt. eigenvalues --    0.28943   0.30208   0.31155   0.31414   0.31699

 Mulliken charges:
               1
     1  C   -0.173980
     2  C   -0.218929
     3  C   -0.171664
     4  C    0.158668
     5  C   -0.175902
     6  C   -0.219296
     7  H    0.227044
     8  H    0.222860
     9  H    0.275014
    10  H    0.275831
    11  H    0.232562
    12  N    0.488048
    13  O   -0.460597
    14  O   -0.460912
    15  C   -0.298142
    16  C   -0.301169
    17  C   -0.475969
    18  H    0.153918
    19  H    0.151672
    20  H    0.152864
    21  H    0.145701
    22  H    0.157036
    23  H    0.158171
    24  H    0.161116
    25  C   -0.303206
    26  C   -0.299715
    27  C   -0.482283
    28  H    0.156624
    29  H    0.138168
    30  H    0.157215
    31  H    0.154453
    32  H    0.146541
    33  H    0.160350
    34  H    0.167906
 Sum of Mulliken charges =  -0.00000

 Dipole moment (field-independent basis, Debye):
    X=              4.7680    Y=             -1.8485    Z=              1.5724  Tot=              5.3501
 Quadrupole moment (field-independent basis, Debye-Ang):
   XX=           -121.4172   YY=            -89.3815   ZZ=            -94.1699
   XY=              6.6583   XZ=             -4.3989   YZ=              0.4224

 Normal termination of Gaussian 16 at Thu May  6 09:34:05 2021.
