 Gaussian 16, Revision A.03,
 Gaussian 16:  EM64L-G16RevA.03 25-Dec-2016

 -------------
 #p 6-31g* mp2
 -------------

 ------------------------------------------------------
 Input file generated by CHIRIPA (05-May-2021 14:55:23)
 ------------------------------------------------------
 Symbolic Z-matrix:
 Charge =  0 Multiplicity = 1

                         Standard orientation:
 ---------------------------------------------------------------------
 Center     Atomic      Atomic             Coordinates (Angstroms)
 Number     Number       Type             X           Y           Z
 ---------------------------------------------------------------------
      1          6           0       -0.569813    0.971096   -0.721516
      2          6           0       -0.724907   -0.410041   -0.563626
      3          6           0       -1.968545   -0.950561   -0.223404
      4          6           0       -3.040507   -0.076845   -0.047885
      5          6           0       -2.917749    1.303610   -0.198104
      6          6           0       -1.664798    1.822013   -0.538574
      7          1           0        0.399892    1.382394   -0.985905
      8          1           0        0.123716   -1.073272   -0.705077
      9          1           0       -2.116645   -2.015913   -0.094914
     10          1           0       -3.782215    1.939484   -0.050520
     11          1           0       -1.547288    2.895028   -0.660538
     12          7           0       -4.362020   -0.637362    0.312424
     13          8           0       -5.290788    0.153715    0.461503
     14          8           0       -4.444032   -1.857160    0.438934
     15          6           0        4.025722   -0.642458    0.297143
     16          6           0        3.451444   -1.922921   -0.309985
     17          6           0        4.288037   -3.159832    0.018586
     18          1           0        5.052327   -0.499879   -0.067135
     19          1           0        4.094518   -0.760701    1.387409
     20          1           0        3.382459   -1.801782   -1.398646
     21          1           0        2.426019   -2.062366    0.055630
     22          1           0        4.346826   -3.308569    1.101647
     23          1           0        5.308701   -3.046505   -0.360892
     24          1           0        3.859494   -4.063841   -0.425240
     25          6           0        3.200405    0.602687   -0.022537
     26          6           0        3.774682    1.883151    0.584591
     27          6           0        2.938090    3.120062    0.256020
     28          1           0        3.131608    0.720930   -1.112803
     29          1           0        2.173799    0.460109    0.341740
     30          1           0        4.800107    2.022595    0.218976
     31          1           0        3.843667    1.762012    1.673252
     32          1           0        1.917426    3.006735    0.635497
     33          1           0        2.879300    3.268799   -0.827042
     34          1           0        3.366631    4.024069    0.699845
 ---------------------------------------------------------------------

 SCF Done:  E(RHF) =  -669.535004558     A.U. after   15 cycles
 E2 =    -0.2093377890D+01 EUMP2 =    -0.67162838244837D+03

 The electronic state is 1-A.
 Alpha  occ. eigenvalues --  -20.60706 -20.60701 -15.85759 -11.31106 -11.27677
 Alpha  occ. eigenvalues --  -11.27671 -11.27304 -11.26662 -11.26627 -11.22697
 Alpha  occ. eigenvalues --  -11.22679 -11.22608 -11.22399 -11.22245 -11.21876
 Alpha  occ. eigenvalues --   -1.59782  -1.39336  -1.19272  -1.09557  -1.08656
 Alpha  occ. eigenvalues --   -1.04672  -1.04591  -0.97034  -0.95503  -0.88050
 Alpha  occ. eigenvalues --   -0.86068  -0.82348  -0.80669  -0.79445  -0.77388
 Alpha  occ. eigenvalues --   -0.71976  -0.71106  -0.70362  -0.66186  -0.64915
 Alpha  occ. eigenvalues --   -0.64648  -0.62065  -0.61932  -0.60419  -0.58661
 Alpha  occ. eigenvalues --   -0.56317  -0.55159  -0.53694  -0.53476  -0.53009
 Alpha  occ. eigenvalues --   -0.52758  -0.50966  -0.48970  -0.48733  -0.48716
 Alpha  occ. eigenvalues --   -0.47687  -0.46872  -0.46826  -0.44846  -0.44746
 Alpha  occ. eigenvalues --   -0.37209  -0.36280
 Alpha virt. eigenvalues --    0.05107   0.11241   0.16522   0.19971   0.22044
 Alpha virt. eigenvalues --    0.22612   0.25221   0.25467   0.26520   0.28301
 Alpha virt. eigenvalues --    0.29444   0.30025   0.30440   0.31092   0.31705

 Mulliken charges:
               1
     1  C   -0.177305
     2  C   -0.227148
     3  C   -0.172239
     4  C    0.158292
     5  C   -0.170809
     6  C   -0.221540
     7  H    0.237164
     8  H    0.231650
     9  H    0.275352
    10  H    0.275218
    11  H    0.223611
    12  N    0.488096
    13  O   -0.460721
    14  O   -0.460704
    15  C   -0.297408
    16  C   -0.305286
    17  C   -0.475974
    18  H    0.153719
    19  H    0.153972
    20  H    0.151970
    21  H    0.148287
    22  H    0.158290
    23  H    0.158154
    24  H    0.162728
    25  C   -0.311078
    26  C   -0.297961
    27  C   -0.482370
    28  H    0.146131
    29  H    0.151544
    30  H    0.156075
    31  H    0.156861
    32  H    0.153493
    33  H    0.152874
    34  H    0.167062
 Sum of Mulliken charges =  -0.00000

 Dipole moment (field-independent basis, Debye):
    X=              4.9684    Y=              1.9626    Z=             -1.1837  Tot=              5.4715
 Quadrupole moment (field-independent basis, Debye-Ang):
   XX=           -121.6826   YY=            -91.4013   ZZ=            -94.7691
   XY=             -7.9867   XZ=              3.4364   YZ=              0.1610

 Normal termination of Gaussian 16 at Thu May  6 01:31:22 2021.
