 Gaussian 16, Revision A.03,
 Gaussian 16:  EM64L-G16RevA.03 25-Dec-2016

 -------------
 #p 6-31g* mp2
 -------------

 ------------------------------------------------------
 Input file generated by CHIRIPA (05-May-2021 14:51:10)
 ------------------------------------------------------
 Symbolic Z-matrix:
 Charge =  0 Multiplicity = 1

                         Standard orientation:
 ---------------------------------------------------------------------
 Center     Atomic      Atomic             Coordinates (Angstroms)
 Number     Number       Type             X           Y           Z
 ---------------------------------------------------------------------
      1          6           0        3.811714    0.960543   -0.238299
      2          6           0        2.419684    1.589412   -0.307306
      3          6           0        2.462908    3.116977   -0.357025
      4          1           0        4.336345    1.342975    0.647959
      5          1           0        4.396024    1.283535   -1.111026
      6          1           0        1.837710    1.264223    0.564574
      7          1           0        1.898234    1.205292   -1.193397
      8          1           0        3.020412    3.458209   -1.235291
      9          1           0        2.959543    3.517476    0.532669
     10          1           0        1.457090    3.545681   -0.406025
     11          6           0        3.785005   -0.566051   -0.188043
     12          6           0        5.177034   -1.194920   -0.119036
     13          6           0        5.133810   -2.722485   -0.069317
     14          1           0        3.200695   -0.889043    0.684684
     15          1           0        3.260374   -0.948483   -1.074301
     16          1           0        5.698484   -0.810800    0.767055
     17          1           0        5.759008   -0.869731   -0.990916
     18          1           0        4.637175   -3.122984   -0.959011
     19          1           0        4.576307   -3.063717    0.808949
     20          1           0        6.139629   -3.151189   -0.020317
     21          6           0       -4.535249    0.003789    0.216252
     22          6           0       -5.398444   -0.842009   -0.720502
     23          6           0       -6.870150   -0.427788   -0.703292
     24          1           0       -4.928282   -0.076429    1.239010
     25          1           0       -4.622951    1.060956   -0.070283
     26          1           0       -5.308053   -1.897412   -0.433152
     27          1           0       -5.003195   -0.759919   -1.741118
     28          1           0       -6.979873    0.617148   -1.010979
     29          1           0       -7.286464   -0.526807    0.304417
     30          1           0       -7.468973   -1.045365   -1.379951
     31          6           0       -3.061468   -0.398282    0.210090
     32          6           0       -2.198275    0.447517    1.146844
     33          6           0       -0.726569    0.033296    1.129634
     34          1           0       -2.973768   -1.455448    0.496625
     35          1           0       -2.668436   -0.318062   -0.812668
     36          1           0       -2.593524    0.365427    2.167459
     37          1           0       -2.288664    1.502919    0.859494
     38          1           0       -0.310254    0.132315    0.121925
     39          1           0       -0.616845   -1.011640    1.437321
     40          1           0       -0.127744    0.650873    1.806293
 ---------------------------------------------------------------------

 SCF Done:  E(RHF) =  -470.732196197     A.U. after   11 cycles
 E2 =    -0.1583185355D+01 EUMP2 =    -0.47231538155205D+03

 The electronic state is 1-A.
 Alpha  occ. eigenvalues --  -11.21602 -11.21588 -11.21557 -11.21437 -11.21404
 Alpha  occ. eigenvalues --  -11.21345 -11.21334 -11.21272 -11.21072 -11.21037
 Alpha  occ. eigenvalues --  -11.21016 -11.21014  -1.08432  -1.08359  -1.03551
 Alpha  occ. eigenvalues --   -1.03445  -0.95993  -0.95912  -0.87043  -0.86906
 Alpha  occ. eigenvalues --   -0.79730  -0.79422  -0.78274  -0.78128  -0.65068
 Alpha  occ. eigenvalues --   -0.64994  -0.60986  -0.60848  -0.59423  -0.59221
 Alpha  occ. eigenvalues --   -0.57596  -0.57531  -0.55284  -0.55192  -0.52765
 Alpha  occ. eigenvalues --   -0.52594  -0.52411  -0.52319  -0.49989  -0.49833
 Alpha  occ. eigenvalues --   -0.47960  -0.47786  -0.46681  -0.46499  -0.45860
 Alpha  occ. eigenvalues --   -0.45727  -0.45660  -0.45503  -0.43757  -0.43665
 Alpha virt. eigenvalues --    0.22203   0.23011   0.23756   0.24944   0.25895
 Alpha virt. eigenvalues --    0.26302   0.26865   0.27556   0.28012   0.29240
 Alpha virt. eigenvalues --    0.29934   0.31109   0.31721   0.31922   0.32267

 Mulliken charges:
               1
     1  C   -0.297619
     2  C   -0.306692
     3  C   -0.475478
     4  H    0.149006
     5  H    0.148734
     6  H    0.163283
     7  H    0.149753
     8  H    0.154719
     9  H    0.154655
    10  H    0.159456
    11  C   -0.298663
    12  C   -0.299514
    13  C   -0.475630
    14  H    0.150359
    15  H    0.149194
    16  H    0.151772
    17  H    0.151784
    18  H    0.155079
    19  H    0.155155
    20  H    0.160047
    21  C   -0.298287
    22  C   -0.299635
    23  C   -0.475699
    24  H    0.149660
    25  H    0.149495
    26  H    0.151936
    27  H    0.151902
    28  H    0.155178
    29  H    0.155179
    30  H    0.160251
    31  C   -0.298649
    32  C   -0.299587
    33  C   -0.479681
    34  H    0.149562
    35  H    0.149669
    36  H    0.151580
    37  H    0.151759
    38  H    0.161665
    39  H    0.154598
    40  H    0.159706
 Sum of Mulliken charges =  -0.00000

 Dipole moment (field-independent basis, Debye):
    X=             -0.0257    Y=             -0.0159    Z=              0.0158  Tot=              0.0341
 Quadrupole moment (field-independent basis, Debye-Ang):
   XX=            -86.2315   YY=            -85.7244   ZZ=            -83.1826
   XY=              0.4132   XZ=             -0.1993   YZ=             -0.3802

 Normal termination of Gaussian 16 at Thu May  6 03:46:10 2021.
