 Gaussian 16, Revision A.03,
 Gaussian 16:  EM64L-G16RevA.03 25-Dec-2016

 -------------
 #p 6-31g* mp2
 -------------

 ------------------------------------------------------
 Input file generated by CHIRIPA (05-May-2021 14:53:12)
 ------------------------------------------------------
 Symbolic Z-matrix:
 Charge =  0 Multiplicity = 1

                         Standard orientation:
 ---------------------------------------------------------------------
 Center     Atomic      Atomic             Coordinates (Angstroms)
 Number     Number       Type             X           Y           Z
 ---------------------------------------------------------------------
      1          6           0        3.964704    0.796413    0.399511
      2          6           0        2.633967    1.258068   -0.195466
      3          6           0        2.016455    2.426669    0.573198
      4          1           0        3.809485    0.506503    1.447750
      5          1           0        4.666733    1.641663    0.409646
      6          1           0        1.935104    0.411840   -0.205751
      7          1           0        2.792334    1.546731   -1.242466
      8          1           0        2.692033    3.288176    0.572468
      9          1           0        1.829932    2.146837    1.615073
     10          1           0        1.065863    2.740598    0.130838
     11          6           0        4.594414   -0.371219   -0.358005
     12          6           0        5.925151   -0.832873    0.236972
     13          6           0        6.542663   -2.001475   -0.531692
     14          1           0        3.892385   -1.216469   -0.368140
     15          1           0        4.749633   -0.081308   -1.406244
     16          1           0        5.766784   -1.121537    1.283972
     17          1           0        6.624015    0.013354    0.247257
     18          1           0        6.729186   -1.721643   -1.573567
     19          1           0        5.867085   -2.862982   -0.530962
     20          1           0        7.493255   -2.315404   -0.089332
     21          6           0       -5.755631   -0.904517   -0.058849
     22          6           0       -4.766083   -1.772614    0.414146
     23          6           0       -3.426331   -1.374095    0.442339
     24          6           0       -3.110200   -0.094703   -0.012092
     25          6           0       -4.073285    0.793099   -0.489131
     26          6           0       -5.406689    0.373316   -0.508185
     27          1           0       -6.793918   -1.222355   -0.077199
     28          1           0       -5.034160   -2.765575    0.763731
     29          1           0       -2.640114   -2.025944    0.803411
     30          1           0       -3.775325    1.776834   -0.831041
     31          1           0       -6.173074    1.049609   -0.876053
     32          7           0       -1.695224    0.338446    0.012918
     33          8           0       -1.442656    1.470739   -0.392987
     34          8           0       -0.865529   -0.462547    0.437950
 ---------------------------------------------------------------------

 SCF Done:  E(RHF) =  -669.536832987     A.U. after   15 cycles
 E2 =    -0.2091968085D+01 EUMP2 =    -0.67162880107175D+03

 The electronic state is 1-A.
 Alpha  occ. eigenvalues --  -20.61139 -20.61132 -15.86133 -11.31400 -11.27949
 Alpha  occ. eigenvalues --  -11.27945 -11.27675 -11.26941 -11.26931 -11.20697
 Alpha  occ. eigenvalues --  -11.20343 -11.20221 -11.19921 -11.19580 -11.18956
 Alpha  occ. eigenvalues --   -1.60165  -1.39726  -1.19556  -1.08972  -1.07095
 Alpha  occ. eigenvalues --   -1.04942  -1.02093  -0.95825  -0.94575  -0.86346
 Alpha  occ. eigenvalues --   -0.85615  -0.82660  -0.78253  -0.77720  -0.76807
 Alpha  occ. eigenvalues --   -0.72349  -0.71467  -0.70664  -0.65213  -0.64946
 Alpha  occ. eigenvalues --   -0.63738  -0.62289  -0.59501  -0.58040  -0.56152
 Alpha  occ. eigenvalues --   -0.55434  -0.53905  -0.53277  -0.53033  -0.51297
 Alpha  occ. eigenvalues --   -0.51025  -0.49121  -0.48989  -0.48579  -0.46522
 Alpha  occ. eigenvalues --   -0.45308  -0.45150  -0.44380  -0.44167  -0.42336
 Alpha  occ. eigenvalues --   -0.37531  -0.36539
 Alpha virt. eigenvalues --    0.04806   0.11117   0.16319   0.21250   0.24083
 Alpha virt. eigenvalues --    0.25834   0.27180   0.27906   0.28144   0.28837
 Alpha virt. eigenvalues --    0.29409   0.30841   0.32317   0.32711   0.32953

 Mulliken charges:
               1
     1  C   -0.296937
     2  C   -0.304641
     3  C   -0.479038
     4  H    0.147336
     5  H    0.143598
     6  H    0.173509
     7  H    0.143456
     8  H    0.141124
     9  H    0.149656
    10  H    0.181032
    11  C   -0.297381
    12  C   -0.298457
    13  C   -0.474861
    14  H    0.150490
    15  H    0.146811
    16  H    0.150491
    17  H    0.149870
    18  H    0.153742
    19  H    0.154044
    20  H    0.157076
    21  C   -0.170344
    22  C   -0.218589
    23  C   -0.170438
    24  C    0.157937
    25  C   -0.170540
    26  C   -0.218579
    27  H    0.226385
    28  H    0.224177
    29  H    0.275918
    30  H    0.276032
    31  H    0.224212
    32  N    0.490147
    33  O   -0.458439
    34  O   -0.458797
 Sum of Mulliken charges =  -0.00000

 Dipole moment (field-independent basis, Debye):
    X=             -5.5700    Y=             -1.6003    Z=             -0.1175  Tot=              5.7966
 Quadrupole moment (field-independent basis, Debye-Ang):
   XX=            -65.8046   YY=            -91.4076   ZZ=            -94.8462
   XY=              4.5049   XZ=              0.8546   YZ=             -2.9358

 Normal termination of Gaussian 16 at Wed May  5 23:23:07 2021.
