 Gaussian 16, Revision A.03,
 Gaussian 16:  EM64L-G16RevA.03 25-Dec-2016

 -------------
 #p 6-31g* mp2
 -------------

 ------------------------------------------------------
 Input file generated by CHIRIPA (05-May-2021 14:53:15)
 ------------------------------------------------------
 Symbolic Z-matrix:
 Charge =  0 Multiplicity = 1

                         Standard orientation:
 ---------------------------------------------------------------------
 Center     Atomic      Atomic             Coordinates (Angstroms)
 Number     Number       Type             X           Y           Z
 ---------------------------------------------------------------------
      1          6           0        3.082197    1.060237   -0.359553
      2          6           0        3.472909    2.321723    0.411148
      3          6           0        2.965066    3.601616   -0.253505
      4          1           0        3.477846    1.125812   -1.382347
      5          1           0        1.987898    1.018292   -0.449814
      6          1           0        4.566075    2.360563    0.501128
      7          1           0        3.076447    2.253051    1.432283
      8          1           0        1.872958    3.589133   -0.329300
      9          1           0        3.371049    3.697256   -1.265746
     10          1           0        3.255608    4.491209    0.314008
     11          6           0        3.582703   -0.227434    0.292463
     12          6           0        3.191990   -1.488921   -0.478238
     13          6           0        3.699834   -2.768814    0.186415
     14          1           0        4.677001   -0.185490    0.382724
     15          1           0        3.187053   -0.293009    1.315256
     16          1           0        3.588453   -1.420249   -1.499373
     17          1           0        2.098825   -1.527761   -0.568218
     18          1           0        3.293850   -2.864453    1.198656
     19          1           0        4.791942   -2.756330    0.262210
     20          1           0        3.409291   -3.658406   -0.381098
     21          6           0       -0.709247   -1.991834    0.049070
     22          6           0       -1.171187   -1.440650    1.248790
     23          6           0       -2.220121   -0.516375    1.248073
     24          6           0       -2.786604   -0.164200    0.023997
     25          6           0       -2.348566   -0.695790   -1.187954
     26          6           0       -1.298372   -1.618304   -1.163335
     27          1           0        0.106081   -2.709150    0.058911
     28          1           0       -0.715559   -1.728890    2.191851
     29          1           0       -2.597335   -0.074162    2.162171
     30          1           0       -2.822717   -0.388982   -2.112330
     31          1           0       -0.941677   -2.044737   -2.096592
     32          7           0       -3.897731    0.813356    0.010586
     33          8           0       -4.379952    1.107180   -1.081095
     34          8           0       -4.265371    1.267231    1.092008
 ---------------------------------------------------------------------

 SCF Done:  E(RHF) =  -669.535286380     A.U. after   15 cycles
 E2 =    -0.2092230941D+01 EUMP2 =    -0.67162751732084D+03

 The electronic state is 1-A.
 Alpha  occ. eigenvalues --  -20.60815 -20.60810 -15.85870 -11.31258 -11.27828
 Alpha  occ. eigenvalues --  -11.27821 -11.27552 -11.26850 -11.26840 -11.22415
 Alpha  occ. eigenvalues --  -11.22026 -11.22009 -11.21914 -11.21785 -11.21256
 Alpha  occ. eigenvalues --   -1.59891  -1.39443  -1.19436  -1.08999  -1.08820
 Alpha  occ. eigenvalues --   -1.04837  -1.04104  -0.96542  -0.95658  -0.87554
 Alpha  occ. eigenvalues --   -0.86232  -0.82489  -0.80189  -0.78764  -0.77526
 Alpha  occ. eigenvalues --   -0.72087  -0.71215  -0.70571  -0.65633  -0.65085
 Alpha  occ. eigenvalues --   -0.64829  -0.62179  -0.61516  -0.59950  -0.58144
 Alpha  occ. eigenvalues --   -0.55872  -0.55281  -0.53266  -0.53164  -0.52953
 Alpha  occ. eigenvalues --   -0.52924  -0.50480  -0.48849  -0.48841  -0.48484
 Alpha  occ. eigenvalues --   -0.47223  -0.46309  -0.46203  -0.44844  -0.44334
 Alpha  occ. eigenvalues --   -0.37369  -0.36442
 Alpha virt. eigenvalues --    0.04961   0.11182   0.16334   0.20064   0.22781
 Alpha virt. eigenvalues --    0.23823   0.26112   0.26509   0.26944   0.27591
 Alpha virt. eigenvalues --    0.29266   0.30823   0.31016   0.31143   0.31850

 Mulliken charges:
               1
     1  C   -0.300153
     2  C   -0.299923
     3  C   -0.476331
     4  H    0.149965
     5  H    0.152684
     6  H    0.152075
     7  H    0.151861
     8  H    0.157599
     9  H    0.155328
    10  H    0.161745
    11  C   -0.296666
    12  C   -0.306574
    13  C   -0.477521
    14  H    0.151639
    15  H    0.147596
    16  H    0.154530
    17  H    0.148332
    18  H    0.151549
    19  H    0.161072
    20  H    0.157573
    21  C   -0.170670
    22  C   -0.220698
    23  C   -0.171104
    24  C    0.158599
    25  C   -0.170805
    26  C   -0.219457
    27  H    0.229835
    28  H    0.223771
    29  H    0.275846
    30  H    0.276009
    31  H    0.224635
    32  N    0.488039
    33  O   -0.460124
    34  O   -0.460255
 Sum of Mulliken charges =  -0.00000

 Dipole moment (field-independent basis, Debye):
    X=              3.9481    Y=             -3.3576    Z=              0.0306  Tot=              5.1828
 Quadrupole moment (field-independent basis, Debye-Ang):
   XX=           -116.4096   YY=            -95.3333   ZZ=            -89.6196
   XY=              9.5292   XZ=             -0.3290   YZ=              0.6768

 Normal termination of Gaussian 16 at Thu May  6 12:09:54 2021.
