 Gaussian 16, Revision A.03,
 Gaussian 16:  EM64L-G16RevA.03 25-Dec-2016

 -------------
 #p 6-31g* mp2
 -------------

 ------------------------------------------------------
 Input file generated by CHIRIPA (05-May-2021 14:51:12)
 ------------------------------------------------------
 Symbolic Z-matrix:
 Charge =  0 Multiplicity = 1

                         Standard orientation:
 ---------------------------------------------------------------------
 Center     Atomic      Atomic             Coordinates (Angstroms)
 Number     Number       Type             X           Y           Z
 ---------------------------------------------------------------------
      1          6           0       -2.965092    0.284414    0.082185
      2          6           0       -4.173465    0.421418   -0.844663
      3          6           0       -4.559706    1.878442   -1.100970
      4          1           0       -3.185600    0.780263    1.037410
      5          1           0       -2.111820    0.818953   -0.357804
      6          1           0       -5.023821   -0.114386   -0.403727
      7          1           0       -3.950126   -0.074981   -1.797724
      8          1           0       -3.729083    2.421580   -1.563211
      9          1           0       -4.808877    2.381951   -0.161293
     10          1           0       -5.425787    1.953171   -1.765936
     11          6           0       -2.566823   -1.166271    0.347935
     12          6           0       -1.358450   -1.303275    1.274784
     13          6           0       -0.972208   -2.760299    1.531090
     14          1           0       -3.420095   -1.700811    0.787924
     15          1           0       -2.346315   -1.662120   -0.607290
     16          1           0       -1.581788   -0.806876    2.227844
     17          1           0       -0.508094   -0.767471    0.833847
     18          1           0       -0.723037   -3.263808    0.591413
     19          1           0       -1.802832   -3.303437    1.993331
     20          1           0       -0.106128   -2.835028    2.196056
     21          6           0        2.464966   -0.214803   -0.465764
     22          6           0        3.515721   -1.264369   -0.829509
     23          6           0        2.898084   -2.570676   -1.329387
     24          1           0        1.797652   -0.624912    0.304592
     25          1           0        1.839069   -0.012323   -1.345906
     26          1           0        4.140328   -1.463793    0.050668
     27          1           0        4.180728   -0.851645   -1.598951
     28          1           0        2.290272   -2.392488   -2.222368
     29          1           0        2.249642   -3.008116   -0.563376
     30          1           0        3.667025   -3.306815   -1.583725
     31          6           0        3.066948    1.096661    0.035644
     32          6           0        2.016194    2.146226    0.399389
     33          6           0        2.633831    3.452534    0.899267
     34          1           0        3.692846    0.894181    0.915785
     35          1           0        3.734263    1.506769   -0.734712
     36          1           0        1.351186    1.733502    1.168830
     37          1           0        1.391587    2.345651   -0.480788
     38          1           0        3.282272    3.889973    0.133257
     39          1           0        3.241643    3.274346    1.792247
     40          1           0        1.864889    4.188673    1.153605
 ---------------------------------------------------------------------

 SCF Done:  E(RHF) =  -470.733365846     A.U. after   11 cycles
 E2 =    -0.1583447112D+01 EUMP2 =    -0.47231681295764D+03

 The electronic state is 1-A.
 Alpha  occ. eigenvalues --  -11.21629 -11.21627 -11.21583 -11.21551 -11.21435
 Alpha  occ. eigenvalues --  -11.21376 -11.21375 -11.21316 -11.21092 -11.21089
 Alpha  occ. eigenvalues --  -11.21087 -11.21059  -1.08472  -1.08399  -1.03556
 Alpha  occ. eigenvalues --   -1.03514  -0.96004  -0.95969  -0.87026  -0.86979
 Alpha  occ. eigenvalues --   -0.79622  -0.79584  -0.78367  -0.78138  -0.65177
 Alpha  occ. eigenvalues --   -0.64966  -0.61003  -0.60867  -0.59374  -0.59336
 Alpha  occ. eigenvalues --   -0.57653  -0.57547  -0.55293  -0.55258  -0.52700
 Alpha  occ. eigenvalues --   -0.52664  -0.52437  -0.52394  -0.50016  -0.49840
 Alpha  occ. eigenvalues --   -0.47982  -0.47884  -0.46745  -0.46642  -0.46070
 Alpha  occ. eigenvalues --   -0.45762  -0.45730  -0.45229  -0.43810  -0.43766
 Alpha virt. eigenvalues --    0.20766   0.23162   0.23390   0.24305   0.25614
 Alpha virt. eigenvalues --    0.26411   0.26706   0.27569   0.28579   0.29590
 Alpha virt. eigenvalues --    0.30915   0.31605   0.31652   0.31872   0.32313

 Mulliken charges:
               1
     1  C   -0.298791
     2  C   -0.299653
     3  C   -0.475646
     4  H    0.149434
     5  H    0.150424
     6  H    0.151868
     7  H    0.151847
     8  H    0.155083
     9  H    0.155157
    10  H    0.160157
    11  C   -0.297552
    12  C   -0.308736
    13  C   -0.476911
    14  H    0.149266
    15  H    0.149795
    16  H    0.151311
    17  H    0.160727
    18  H    0.156512
    19  H    0.155562
    20  H    0.159139
    21  C   -0.305896
    22  C   -0.298875
    23  C   -0.477592
    24  H    0.157808
    25  H    0.148498
    26  H    0.151999
    27  H    0.152040
    28  H    0.154674
    29  H    0.157177
    30  H    0.160481
    31  C   -0.297753
    32  C   -0.301406
    33  C   -0.475712
    34  H    0.149560
    35  H    0.149763
    36  H    0.153853
    37  H    0.151334
    38  H    0.155226
    39  H    0.155282
    40  H    0.160546
 Sum of Mulliken charges =  -0.00000

 Dipole moment (field-independent basis, Debye):
    X=              0.0206    Y=              0.0054    Z=              0.0026  Tot=              0.0215
 Quadrupole moment (field-independent basis, Debye-Ang):
   XX=            -84.6644   YY=            -86.6774   ZZ=            -83.4528
   XY=              0.1304   XZ=             -0.7222   YZ=             -0.4326

 Normal termination of Gaussian 16 at Wed May  5 23:07:58 2021.
