 Gaussian 16, Revision A.03,
 Gaussian 16:  EM64L-G16RevA.03 25-Dec-2016

 -------------
 #p 6-31g* mp2
 -------------

 ------------------------------------------------------
 Input file generated by CHIRIPA (05-May-2021 14:51:12)
 ------------------------------------------------------
 Symbolic Z-matrix:
 Charge =  0 Multiplicity = 1

                         Standard orientation:
 ---------------------------------------------------------------------
 Center     Atomic      Atomic             Coordinates (Angstroms)
 Number     Number       Type             X           Y           Z
 ---------------------------------------------------------------------
      1          6           0        4.118479   -0.516347   -0.200880
      2          6           0        5.595304   -0.899731   -0.100934
      3          6           0        5.813900   -2.412981   -0.091773
      4          1           0        3.572673   -0.962006    0.641990
      5          1           0        3.694118   -0.954593   -1.114802
      6          1           0        6.017099   -0.459740    0.811817
      7          1           0        6.137692   -0.452949   -0.944034
      8          1           0        5.419459   -2.864746   -1.007702
      9          1           0        5.298182   -2.871576    0.758125
     10          1           0        6.876597   -2.664673   -0.019760
     11          6           0        3.883802    0.993139   -0.211160
     12          6           0        2.406977    1.376523   -0.311106
     13          6           0        2.188381    2.889773   -0.320266
     14          1           0        4.308163    1.431385    0.702763
     15          1           0        4.429608    1.438798   -1.054029
     16          1           0        1.864590    0.929741    0.531994
     17          1           0        1.985182    0.936532   -1.223856
     18          1           0        2.704100    3.348368   -1.170164
     19          1           0        2.582822    3.341538    0.595663
     20          1           0        1.125684    3.141465   -0.392280
     21          6           0       -4.533697   -0.626924   -0.179807
     22          6           0       -5.910458    0.037582   -0.149052
     23          6           0       -6.965217   -0.751547   -0.925296
     24          1           0       -4.212494   -0.742234   -1.224066
     25          1           0       -4.614222   -1.640748    0.236211
     26          1           0       -5.827088    1.050354   -0.563730
     27          1           0       -6.228336    0.151498    0.895263
     28          1           0       -7.077703   -1.757632   -0.508474
     29          1           0       -6.674174   -0.853668   -1.975756
     30          1           0       -7.941780   -0.258644   -0.890200
     31          6           0       -3.468584    0.150132    0.591847
     32          6           0       -2.091823   -0.514373    0.561092
     33          6           0       -1.037064    0.274754    1.337335
     34          1           0       -3.388059    1.163956    0.175828
     35          1           0       -3.789787    0.265442    1.636106
     36          1           0       -1.773945   -0.628290   -0.483222
     37          1           0       -2.175194   -1.527145    0.975769
     38          1           0       -1.328107    0.376876    2.387795
     39          1           0       -0.924579    1.280840    0.920514
     40          1           0       -0.060500   -0.218148    1.302241
 ---------------------------------------------------------------------

 SCF Done:  E(RHF) =  -470.732904848     A.U. after   11 cycles
 E2 =    -0.1582769913D+01 EUMP2 =    -0.47231567476094D+03

 The electronic state is 1-A.
 Alpha  occ. eigenvalues --  -11.21603 -11.21599 -11.21588 -11.21488 -11.21407
 Alpha  occ. eigenvalues --  -11.21378 -11.21348 -11.21309 -11.21073 -11.21062
 Alpha  occ. eigenvalues --  -11.21056 -11.21037  -1.08435  -1.08393  -1.03552
 Alpha  occ. eigenvalues --   -1.03473  -0.96005  -0.95930  -0.87018  -0.86956
 Alpha  occ. eigenvalues --   -0.79665  -0.79496  -0.78255  -0.78197  -0.65075
 Alpha  occ. eigenvalues --   -0.65022  -0.60992  -0.60861  -0.59454  -0.59225
 Alpha  occ. eigenvalues --   -0.57605  -0.57558  -0.55298  -0.55198  -0.52749
 Alpha  occ. eigenvalues --   -0.52620  -0.52451  -0.52322  -0.49946  -0.49863
 Alpha  occ. eigenvalues --   -0.47981  -0.47799  -0.46687  -0.46523  -0.45787
 Alpha  occ. eigenvalues --   -0.45755  -0.45715  -0.45653  -0.43785  -0.43684
 Alpha virt. eigenvalues --    0.21751   0.23030   0.23530   0.24803   0.25863
 Alpha virt. eigenvalues --    0.26491   0.26903   0.27129   0.27818   0.29094
 Alpha virt. eigenvalues --    0.30491   0.30974   0.31597   0.31889   0.32687

 Mulliken charges:
               1
     1  C   -0.298227
     2  C   -0.299562
     3  C   -0.475701
     4  H    0.148801
     5  H    0.149410
     6  H    0.151951
     7  H    0.152001
     8  H    0.155133
     9  H    0.155111
    10  H    0.160222
    11  C   -0.297915
    12  C   -0.305510
    13  C   -0.476173
    14  H    0.149279
    15  H    0.149210
    16  H    0.160601
    17  H    0.150724
    18  H    0.154837
    19  H    0.155192
    20  H    0.159883
    21  C   -0.298286
    22  C   -0.299643
    23  C   -0.475702
    24  H    0.149656
    25  H    0.149543
    26  H    0.151928
    27  H    0.151938
    28  H    0.155185
    29  H    0.155177
    30  H    0.160261
    31  C   -0.298626
    32  C   -0.299468
    33  C   -0.479531
    34  H    0.149447
    35  H    0.149637
    36  H    0.152360
    37  H    0.151800
    38  H    0.154644
    39  H    0.157092
    40  H    0.163321
 Sum of Mulliken charges =  -0.00000

 Dipole moment (field-independent basis, Debye):
    X=             -0.0187    Y=             -0.0070    Z=              0.0149  Tot=              0.0249
 Quadrupole moment (field-independent basis, Debye-Ang):
   XX=            -85.7339   YY=            -85.9243   ZZ=            -83.2791
   XY=              0.0545   XZ=             -0.6924   YZ=             -0.6555

 Normal termination of Gaussian 16 at Wed May  5 23:10:26 2021.
