 Gaussian 16, Revision A.03,
 Gaussian 16:  EM64L-G16RevA.03 25-Dec-2016

 -------------
 #p 6-31g* mp2
 -------------

 ------------------------------------------------------
 Input file generated by CHIRIPA (05-May-2021 14:57:25)
 ------------------------------------------------------
 Symbolic Z-matrix:
 Charge =  0 Multiplicity = 1

                         Standard orientation:
 ---------------------------------------------------------------------
 Center     Atomic      Atomic             Coordinates (Angstroms)
 Number     Number       Type             X           Y           Z
 ---------------------------------------------------------------------
      1          6           0        0.943088    0.096665    1.784688
      2          6           0        1.302862   -1.136868    1.231986
      3          6           0        2.467318   -1.260118    0.468180
      4          6           0        3.252246   -0.124182    0.276277
      5          6           0        2.920566    1.118546    0.813776
      6          6           0        1.751663    1.218458    1.574191
      7          1           0        0.036783    0.183344    2.376714
      8          1           0        0.676824   -2.009756    1.393813
      9          1           0        2.769466   -2.202964    0.028673
     10          1           0        3.564781    1.970882    0.635091
     11          1           0        1.474733    2.177705    2.002208
     12          7           0        4.487358   -0.242307   -0.530534
     13          8           0        5.161869    0.773484   -0.684938
     14          8           0        4.757540   -1.348449   -0.993233
     15          6           0       -0.839513    0.964923   -1.272686
     16          6           0       -1.821137    1.863999   -0.843041
     17          6           0       -3.048860    1.398644   -0.362741
     18          6           0       -3.262259    0.021552   -0.325775
     19          6           0       -2.304124   -0.899368   -0.746696
     20          6           0       -1.083707   -0.411465   -1.223228
     21          1           0        0.111374    1.335180   -1.644331
     22          1           0       -1.634258    2.933454   -0.880312
     23          1           0       -3.826345    2.072490   -0.023819
     24          1           0       -2.519553   -1.959836   -0.697545
     25          1           0       -0.323204   -1.112026   -1.556235
     26          7           0       -4.558127   -0.483035    0.180703
     27          8           0       -4.721530   -1.700997    0.203140
     28          8           0       -5.385886    0.348988    0.545653
 ---------------------------------------------------------------------

 SCF Done:  E(RHF) =  -868.336692226     A.U. after   16 cycles
 E2 =    -0.2603414653D+01 EUMP2 =    -0.87094010687836D+03

 The electronic state is 1-A.
 Alpha  occ. eigenvalues --  -20.61496 -20.61490 -20.61316 -20.61311 -15.86554
 Alpha  occ. eigenvalues --  -15.86371 -11.31992 -11.31756 -11.28560 -11.28540
 Alpha  occ. eigenvalues --  -11.28311 -11.28293 -11.28166 -11.27941 -11.27514
 Alpha  occ. eigenvalues --  -11.27483 -11.27304 -11.27237  -1.60576  -1.60395
 Alpha  occ. eigenvalues --   -1.40125  -1.39947  -1.20167  -1.19907  -1.09523
 Alpha  occ. eigenvalues --   -1.09259  -1.05580  -1.05304  -0.96330  -0.96117
 Alpha  occ. eigenvalues --   -0.86940  -0.86682  -0.83168  -0.82948  -0.78234
 Alpha  occ. eigenvalues --   -0.78014  -0.72757  -0.72579  -0.71916  -0.71730
 Alpha  occ. eigenvalues --   -0.71175  -0.70959  -0.65773  -0.65579  -0.65494
 Alpha  occ. eigenvalues --   -0.65293  -0.62905  -0.62653  -0.55957  -0.55749
 Alpha  occ. eigenvalues --   -0.54438  -0.53617  -0.53412  -0.53119  -0.49524
 Alpha  occ. eigenvalues --   -0.49517  -0.49343  -0.49338  -0.45516  -0.45349
 Alpha  occ. eigenvalues --   -0.38739  -0.37624  -0.37219  -0.36402
 Alpha virt. eigenvalues --    0.04244   0.04519   0.09926   0.11239   0.15626
 Alpha virt. eigenvalues --    0.16205   0.20376   0.21297   0.25898   0.27287
 Alpha virt. eigenvalues --    0.27713   0.27861   0.30208   0.30626   0.31682

 Mulliken charges:
               1
     1  C   -0.162728
     2  C   -0.218948
     3  C   -0.178765
     4  C    0.156446
     5  C   -0.175848
     6  C   -0.221802
     7  H    0.231602
     8  H    0.225766
     9  H    0.276319
    10  H    0.276570
    11  H    0.224777
    12  N    0.487845
    13  O   -0.459230
    14  O   -0.459180
    15  C   -0.166688
    16  C   -0.223073
    17  C   -0.173478
    18  C    0.157036
    19  C   -0.179002
    20  C   -0.214326
    21  H    0.230008
    22  H    0.223627
    23  H    0.276029
    24  H    0.274321
    25  H    0.224748
    26  N    0.487841
    27  O   -0.460399
    28  O   -0.459467
 Sum of Mulliken charges =  -0.00000

 Dipole moment (field-independent basis, Debye):
    X=              0.2749    Y=              2.2304    Z=              1.1259  Tot=              2.5136
 Quadrupole moment (field-independent basis, Debye-Ang):
   XX=           -164.1022   YY=            -95.8009   ZZ=           -103.0820
   XY=             -4.4635   XZ=             12.3608   YZ=              0.7436

 Normal termination of Gaussian 16 at Thu May  6 16:26:46 2021.
