 Gaussian 16, Revision A.03,
 Gaussian 16:  EM64L-G16RevA.03 25-Dec-2016

 -------------
 #p 6-31g* mp2
 -------------

 ------------------------------------------------------
 Input file generated by CHIRIPA (05-May-2021 14:55:20)
 ------------------------------------------------------
 Symbolic Z-matrix:
 Charge =  0 Multiplicity = 1

                         Standard orientation:
 ---------------------------------------------------------------------
 Center     Atomic      Atomic             Coordinates (Angstroms)
 Number     Number       Type             X           Y           Z
 ---------------------------------------------------------------------
      1          6           0       -3.508419   -2.085458   -0.941637
      2          6           0       -4.355329   -1.015853   -1.250197
      3          6           0       -4.063288    0.274370   -0.797885
      4          6           0       -2.910820    0.459874   -0.035851
      5          6           0       -2.047325   -0.585434    0.288185
      6          6           0       -2.359146   -1.867220   -0.174783
      7          1           0       -3.742966   -3.084457   -1.297143
      8          1           0       -5.248555   -1.182386   -1.845560
      9          1           0       -4.701556    1.120394   -1.022105
     10          1           0       -1.164142   -0.388304    0.883623
     11          1           0       -1.699603   -2.696006    0.066384
     12          7           0       -2.591179    1.821309    0.448632
     13          8           0       -1.569749    1.958464    1.118338
     14          8           0       -3.368126    2.725468    0.149490
     15          6           0        3.405015   -0.924502    0.358958
     16          6           0        2.138690   -0.609078    1.155774
     17          6           0        1.372794   -1.865759    1.570442
     18          1           0        3.133537   -1.501986   -0.535333
     19          1           0        4.057876   -1.570651    0.962000
     20          1           0        1.489032    0.037415    0.551947
     21          1           0        2.413192   -0.032114    2.048173
     22          1           0        2.000016   -2.510959    2.194068
     23          1           0        1.070605   -2.441036    0.689340
     24          1           0        0.471175   -1.617144    2.138889
     25          6           0        4.181547    0.321641   -0.062768
     26          6           0        5.447871    0.006216   -0.859584
     27          6           0        6.213767    1.262898   -1.274251
     28          1           0        3.528685    0.967790   -0.665808
     29          1           0        4.453024    0.899124    0.831524
     30          1           0        5.173369   -0.570748   -1.751983
     31          1           0        6.097529   -0.640276   -0.255756
     32          1           0        6.515956    1.838175   -0.393149
     33          1           0        5.586545    1.908097   -1.897877
     34          1           0        7.115387    1.014283   -1.842699
 ---------------------------------------------------------------------

 SCF Done:  E(RHF) =  -669.535430479     A.U. after   15 cycles
 E2 =    -0.2091986967D+01 EUMP2 =    -0.67162741744516D+03

 The electronic state is 1-A.
 Alpha  occ. eigenvalues --  -20.60750 -20.60744 -15.85796 -11.31127 -11.27710
 Alpha  occ. eigenvalues --  -11.27641 -11.27447 -11.26726 -11.26682 -11.21868
 Alpha  occ. eigenvalues --  -11.21795 -11.21604 -11.21565 -11.21367 -11.21011
 Alpha  occ. eigenvalues --   -1.59822  -1.39376  -1.19304  -1.08709  -1.08571
 Alpha  occ. eigenvalues --   -1.04707  -1.03744  -0.96237  -0.95543  -0.87249
 Alpha  occ. eigenvalues --   -0.86104  -0.82376  -0.79787  -0.78334  -0.77430
 Alpha  occ. eigenvalues --   -0.72017  -0.71144  -0.70434  -0.65216  -0.64953
 Alpha  occ. eigenvalues --   -0.64715  -0.62195  -0.61065  -0.59571  -0.57808
 Alpha  occ. eigenvalues --   -0.55545  -0.55166  -0.53051  -0.52983  -0.52848
 Alpha  occ. eigenvalues --   -0.52506  -0.50151  -0.48778  -0.48772  -0.48100
 Alpha  occ. eigenvalues --   -0.46798  -0.45888  -0.45786  -0.44785  -0.43978
 Alpha  occ. eigenvalues --   -0.37294  -0.36302
 Alpha virt. eigenvalues --    0.05074   0.11313   0.16570   0.20004   0.22978
 Alpha virt. eigenvalues --    0.23900   0.25978   0.26519   0.26837   0.28067
 Alpha virt. eigenvalues --    0.29293   0.30319   0.31446   0.31493   0.32284

 Mulliken charges:
               1
     1  C   -0.170724
     2  C   -0.218923
     3  C   -0.170340
     4  C    0.159232
     5  C   -0.181377
     6  C   -0.223972
     7  H    0.225420
     8  H    0.223195
     9  H    0.275309
    10  H    0.289261
    11  H    0.226277
    12  N    0.487546
    13  O   -0.461119
    14  O   -0.460424
    15  C   -0.298579
    16  C   -0.303878
    17  C   -0.485928
    18  H    0.147594
    19  H    0.149429
    20  H    0.159230
    21  H    0.159491
    22  H    0.161897
    23  H    0.149612
    24  H    0.156615
    25  C   -0.299137
    26  C   -0.299825
    27  C   -0.475908
    28  H    0.153084
    29  H    0.152151
    30  H    0.150870
    31  H    0.151324
    32  H    0.156244
    33  H    0.156511
    34  H    0.159842
 Sum of Mulliken charges =  -0.00000

 Dipole moment (field-independent basis, Debye):
    X=             -0.9728    Y=             -4.7088    Z=             -1.6722  Tot=              5.0907
 Quadrupole moment (field-independent basis, Debye-Ang):
   XX=            -84.8812   YY=            -99.9336   ZZ=            -93.6394
   XY=             11.5805   XZ=              8.1615   YZ=             -1.1867

 Normal termination of Gaussian 16 at Thu May  6 07:42:42 2021.
