 Gaussian 16, Revision A.03,
 Gaussian 16:  EM64L-G16RevA.03 25-Dec-2016

 -------------
 #p 6-31g* mp2
 -------------

 ------------------------------------------------------
 Input file generated by CHIRIPA (05-May-2021 14:53:12)
 ------------------------------------------------------
 Symbolic Z-matrix:
 Charge =  0 Multiplicity = 1

                         Standard orientation:
 ---------------------------------------------------------------------
 Center     Atomic      Atomic             Coordinates (Angstroms)
 Number     Number       Type             X           Y           Z
 ---------------------------------------------------------------------
      1          6           0        3.309335    0.876209    0.120378
      2          6           0        4.439662    1.866893   -0.160496
      3          6           0        4.053962    3.310827    0.162127
      4          1           0        2.425982    1.161323   -0.467281
      5          1           0        3.019193    0.951752    1.177500
      6          1           0        4.728525    1.788522   -1.216447
      7          1           0        5.320487    1.579275    0.427754
      8          1           0        3.785639    3.410982    1.218808
      9          1           0        3.190313    3.621418   -0.434735
     10          1           0        4.876507    4.002165   -0.046032
     11          6           0        3.679713   -0.571441   -0.197202
     12          6           0        2.549387   -1.562126    0.083672
     13          6           0        2.935087   -3.006060   -0.238952
     14          1           0        3.969855   -0.646985   -1.254324
     15          1           0        4.563066   -0.856556    0.390457
     16          1           0        1.668561   -1.274508   -0.504578
     17          1           0        2.260523   -1.483755    1.139623
     18          1           0        3.798735   -3.316651    0.357911
     19          1           0        3.203409   -3.106215   -1.295632
     20          1           0        2.112541   -3.697398   -0.030792
     21          6           0       -1.048674   -1.976676    0.326593
     22          6           0       -1.574904   -1.323518    1.445962
     23          6           0       -2.507147   -0.292869    1.293537
     24          6           0       -2.892651    0.060539    0.001337
     25          6           0       -2.386487   -0.571161   -1.133583
     26          6           0       -1.455427   -1.599079   -0.957343
     27          1           0       -0.324944   -2.776248    0.454250
     28          1           0       -1.260841   -1.614656    2.444284
     29          1           0       -2.930537    0.229601    2.142762
     30          1           0       -2.718815   -0.258718   -2.116109
     31          1           0       -1.048427   -2.104568   -1.828479
     32          7           0       -3.878949    1.150195   -0.172635
     33          8           0       -4.202322    1.442787   -1.321745
     34          8           0       -4.309960    1.691043    0.843411
 ---------------------------------------------------------------------

 SCF Done:  E(RHF) =  -669.534793133     A.U. after   15 cycles
 E2 =    -0.2092637770D+01 EUMP2 =    -0.67162743090322D+03

 The electronic state is 1-A.
 Alpha  occ. eigenvalues --  -20.60752 -20.60747 -15.85808 -11.31163 -11.27765
 Alpha  occ. eigenvalues --  -11.27758 -11.27467 -11.26748 -11.26731 -11.22413
 Alpha  occ. eigenvalues --  -11.22132 -11.21994 -11.21925 -11.21795 -11.21281
 Alpha  occ. eigenvalues --   -1.59829  -1.39382  -1.19354  -1.09013  -1.08734
 Alpha  occ. eigenvalues --   -1.04759  -1.04138  -0.96588  -0.95575  -0.87591
 Alpha  occ. eigenvalues --   -0.86155  -0.82418  -0.80218  -0.78769  -0.77458
 Alpha  occ. eigenvalues --   -0.72026  -0.71153  -0.70472  -0.65636  -0.65001
 Alpha  occ. eigenvalues --   -0.64763  -0.62111  -0.61520  -0.60042  -0.58218
 Alpha  occ. eigenvalues --   -0.55849  -0.55192  -0.53311  -0.53133  -0.52952
 Alpha  occ. eigenvalues --   -0.52848  -0.50501  -0.48783  -0.48781  -0.48519
 Alpha  occ. eigenvalues --   -0.47239  -0.46312  -0.46210  -0.44791  -0.44374
 Alpha  occ. eigenvalues --   -0.37241  -0.36366
 Alpha virt. eigenvalues --    0.05076   0.11166   0.16535   0.19745   0.22628
 Alpha virt. eigenvalues --    0.23957   0.25824   0.26084   0.26996   0.27317
 Alpha virt. eigenvalues --    0.29085   0.30070   0.30819   0.31704   0.31969

 Mulliken charges:
               1
     1  C   -0.298697
     2  C   -0.300212
     3  C   -0.476133
     4  H    0.152081
     5  H    0.149494
     6  H    0.152330
     7  H    0.151981
     8  H    0.155617
     9  H    0.157143
    10  H    0.161405
    11  C   -0.298211
    12  C   -0.305785
    13  C   -0.478585
    14  H    0.150453
    15  H    0.150696
    16  H    0.155695
    17  H    0.148741
    18  H    0.160606
    19  H    0.158574
    20  H    0.149963
    21  C   -0.167183
    22  C   -0.221274
    23  C   -0.170279
    24  C    0.157840
    25  C   -0.170929
    26  C   -0.222431
    27  H    0.232203
    28  H    0.223384
    29  H    0.275593
    30  H    0.275511
    31  H    0.223519
    32  N    0.488133
    33  O   -0.460709
    34  O   -0.460534
 Sum of Mulliken charges =  -0.00000

 Dipole moment (field-independent basis, Debye):
    X=              3.5807    Y=             -3.7522    Z=              0.6090  Tot=              5.2222
 Quadrupole moment (field-independent basis, Debye-Ang):
   XX=           -115.3025   YY=            -97.1751   ZZ=            -88.9352
   XY=             11.5882   XZ=             -1.7811   YZ=              0.3633

 Normal termination of Gaussian 16 at Thu May  6 17:01:59 2021.
