 Gaussian 16, Revision A.03,
 Gaussian 16:  EM64L-G16RevA.03 25-Dec-2016

 -------------
 #p 6-31g* mp2
 -------------

 ------------------------------------------------------
 Input file generated by CHIRIPA (05-May-2021 14:57:25)
 ------------------------------------------------------
 Symbolic Z-matrix:
 Charge =  0 Multiplicity = 1

                         Standard orientation:
 ---------------------------------------------------------------------
 Center     Atomic      Atomic             Coordinates (Angstroms)
 Number     Number       Type             X           Y           Z
 ---------------------------------------------------------------------
      1          6           0        1.708542   -1.158370    1.138274
      2          6           0        1.597146   -0.292305    0.045552
      3          6           0        2.730397    0.332191   -0.483876
      4          6           0        3.964917    0.066759    0.106713
      5          6           0        4.108353   -0.791092    1.196120
      6          6           0        2.961582   -1.404566    1.709065
      7          1           0        0.822954   -1.639213    1.543144
      8          1           0        0.625306   -0.099243   -0.399756
      9          1           0        2.672790    1.007110   -1.329206
     10          1           0        5.090692   -0.963916    1.618686
     11          1           0        3.051095   -2.076699    2.557752
     12          7           0        5.171797    0.722051   -0.445043
     13          8           0        6.247962    0.471632    0.093283
     14          8           0        5.018731    1.473678   -1.405389
     15          6           0       -4.788608    2.031796    0.967642
     16          6           0       -3.664958    2.199458    0.151664
     17          6           0       -3.090028    1.103656   -0.498889
     18          6           0       -3.667148   -0.151199   -0.310306
     19          6           0       -4.786557   -0.350452    0.496237
     20          6           0       -5.344841    0.759619    1.137026
     21          1           0       -5.228762    2.888584    1.469216
     22          1           0       -3.230859    3.186278    0.018286
     23          1           0       -2.220038    1.205036   -1.136271
     24          1           0       -5.196940   -1.346489    0.609878
     25          1           0       -6.217472    0.626431    1.770130
     26          7           0       -3.067307   -1.318829   -0.993849
     27          8           0       -3.594619   -2.413950   -0.811397
     28          8           0       -2.081198   -1.116786   -1.699118
 ---------------------------------------------------------------------

 SCF Done:  E(RHF) =  -868.339095635     A.U. after   16 cycles
 E2 =    -0.2598936095D+01 EUMP2 =    -0.87093803173030D+03

 The electronic state is 1-A.
 Alpha  occ. eigenvalues --  -20.61821 -20.61771 -20.60451 -20.60446 -15.86820
 Alpha  occ. eigenvalues --  -15.85499 -11.32033 -11.30773 -11.28606 -11.28542
 Alpha  occ. eigenvalues --  -11.28236 -11.27535 -11.27513 -11.27336 -11.27299
 Alpha  occ. eigenvalues --  -11.27008 -11.26338 -11.26218  -1.60859  -1.59528
 Alpha  occ. eigenvalues --   -1.40419  -1.39084  -1.20178  -1.18922  -1.09593
 Alpha  occ. eigenvalues --   -1.08327  -1.05552  -1.04307  -0.96456  -0.95185
 Alpha  occ. eigenvalues --   -0.86955  -0.85702  -0.83289  -0.82018  -0.78373
 Alpha  occ. eigenvalues --   -0.77083  -0.73033  -0.72179  -0.71720  -0.71268
 Alpha  occ. eigenvalues --   -0.70849  -0.70024  -0.65825  -0.65539  -0.64569
 Alpha  occ. eigenvalues --   -0.64285  -0.62904  -0.61651  -0.56031  -0.54793
 Alpha  occ. eigenvalues --   -0.53892  -0.53633  -0.52646  -0.52385  -0.49806
 Alpha  occ. eigenvalues --   -0.49772  -0.48481  -0.48468  -0.45841  -0.44511
 Alpha  occ. eigenvalues --   -0.38135  -0.37150  -0.36887  -0.35910
 Alpha virt. eigenvalues --    0.04103   0.05438   0.10468   0.11749   0.15641
 Alpha virt. eigenvalues --    0.16966   0.20237   0.21886   0.25545   0.27028
 Alpha virt. eigenvalues --    0.28458   0.28742   0.30033   0.30962   0.32459

 Mulliken charges:
               1
     1  C   -0.170967
     2  C   -0.221720
     3  C   -0.172605
     4  C    0.158505
     5  C   -0.172080
     6  C   -0.218645
     7  H    0.226702
     8  H    0.232745
     9  H    0.273759
    10  H    0.274020
    11  H    0.222035
    12  N    0.488146
    13  O   -0.461634
    14  O   -0.461672
    15  C   -0.170146
    16  C   -0.217755
    17  C   -0.174208
    18  C    0.157278
    19  C   -0.171133
    20  C   -0.218152
    21  H    0.228855
    22  H    0.226644
    23  H    0.272512
    24  H    0.276917
    25  H    0.226193
    26  N    0.487821
    27  O   -0.455391
    28  O   -0.466024
 Sum of Mulliken charges =  -0.00000

 Dipole moment (field-independent basis, Debye):
    X=             -6.7749    Y=              1.8069    Z=              4.4023  Tot=              8.2792
 Quadrupole moment (field-independent basis, Debye-Ang):
   XX=           -119.3185   YY=           -104.2131   ZZ=           -103.8579
   XY=            -23.8281   XZ=             -0.7801   YZ=             -4.8780

 Normal termination of Gaussian 16 at Thu May  6 22:51:48 2021.
